/*--------------------------------*- C++ -*----------------------------------*\
  =========                 |
  \\      /  F ield         | OpenFOAM: The Open Source CFD Toolbox
   \\    /   O peration     | Website:  https://openfoam.org
    \\  /    A nd           | Version:  9
     \\/     M anipulation  |
\*---------------------------------------------------------------------------*/
FoamFile
{
    format      ascii;
    class       volScalarField;
    location    "0.0075";
    object      p;
}
// * * * * * * * * * * * * * * * * * * * * * * * * * * * * * * * * * * * * * //

dimensions      [1 -1 -2 0 0 0 0];

internalField   nonuniform List<scalar> 
9720
(
1.63136e+06
1.42364e+06
1.26895e+06
850558
723656
739278
733373
632577
504789
399097
315976
275997
262267
269005
289490
326903
376943
429686
480060
558884
1.41434e+06
1.35818e+06
701823
449686
581447
706672
712303
583773
384205
244662
169685
150874
156722
173250
203728
249826
310941
376847
437143
527880
1.28164e+06
714050
368927
326922
563703
706709
713717
568129
300886
156236
115855
117880
130653
152808
184463
228300
285083
359690
439679
543553
855461
447329
323140
256954
430337
696547
749817
645984
279881
69012.6
74584.4
84314
96856.7
111286
128047
149013
177673
226430
305024
465679
708203
557209
540525
426918
52993.5
90155.1
99146
104862
109005
113419
119317
127776
140260
159700
189034
310830
714587
679558
685164
673469
123361
127946
125517
123313
122652
123129
124345
126364
129372
133821
142354
202657
706256
684466
691783
728341
136593
127103
125229
123315
122096
121430
121451
121973
123000
125170
128878
155673
606652
558817
544448
622308
110555
81232.5
85381.2
88551.6
91245.6
93603.7
95748.9
98087.9
100784
104092
107808
123656
482268
363642
281618
247267
51279
115902
128586
103174
11685.4
19336.8
31591
43145.9
52138
59419.3
65934.2
72014.4
77893.3
83033.3
87387.9
100449
381319
230485
146091
65097.6
84958.9
119821
118904
76776.7
20567.5
8244.32
10735.3
16715.4
24838.4
34025.4
43155.9
51441.6
58375.1
64793.8
70008.8
82811.6
303688
161404
110226
70833.2
93415
117471
117138
81195.9
32799.5
11468.7
7064.33
8066.33
11889.6
18741.2
27259.6
34884.2
41525.4
49141.3
55859
68824.6
265617
145164
113122
80552.9
98593.5
115481
115499
84550.3
43822.4
18098.7
8575.87
7446.76
8196.76
10943.2
15930.1
22020.9
28830.5
37168.8
44284.9
56152
251699
150723
126770
93161.7
102589
115235
114526
87439.3
52345.8
26385.5
13158.6
8688.4
7500.92
7615.24
9546.72
14086.3
20574.4
28223.8
34246.6
44580.9
258076
166079
148007
107361
106898
115815
114478
89907.8
59102.7
35406
20552.7
12332.9
8170.33
7581.04
8236.12
10646.1
15295.1
21104.3
26238.5
36155.3
278411
194527
176523
122809
112795
117306
114919
92196.6
65275.2
44200.3
29036.1
17937.8
10901.8
8597.22
8806.69
9947.28
11970
15455.2
19926.5
29831.7
316266
238289
215745
142300
121224
119743
115863
94796.8
71278.8
51989.2
36472
24254.1
15986.3
11854.6
10455.4
10576.7
11383.9
13363
16764.9
25847.7
367556
299055
268292
168867
133492
123326
117576
97852.8
76885
58666.3
42986.8
30984.4
22522.4
17093.6
13439.9
11912.7
12123.1
13814
16808.3
23809.4
421296
366548
340025
213112
152567
128516
120556
101520
81978
65097.3
50581.3
39057.1
29898.8
22999.7
17788.7
14576
14586.4
15860.6
17845
22492
471363
427642
419988
286640
181247
137409
124922
105542
86649
70485.7
57147.2
45844.4
35864.8
28369.5
22569.9
18789.5
17952.2
18487.9
19215.2
22826.7
547582
516753
526353
443079
298144
197272
153238
122282
100718
83825.7
70126.5
57789.9
46696.7
38781.1
32614.1
28326.4
25753.5
23767.5
23692.2
25964.2
1.62197e+06
1.40835e+06
1.19871e+06
797984
696935
729930
726406
624020
494224
389631
305716
265726
252341
258178
276839
312440
362558
417039
468453
548417
1.39739e+06
1.29352e+06
622301
423115
583466
708036
710068
578763
375618
236969
162119
143105
148420
163196
191095
234074
292785
359515
421389
515179
1.2207e+06
634876
348110
314760
575521
711750
713146
564052
292574
148331
109698
110896
122068
142559
172045
213182
266042
337164
416329
525299
808020
418986
307476
241153
457522
692665
745315
640918
278146
65452.2
70650.7
79435.5
90320.3
102819
118025
137204
163194
206596
279691
438829
681933
549740
534976
403780
53402.8
87660.5
95853.9
100941
104059
107450
112117
119234
130104
147251
172938
284679
701663
675066
683438
669408
119647
125109
122057
119613
117578
117464
117937
119236
121518
125099
131928
183989
696720
679849
689416
721846
132493
124042
121494
118994
117252
115980
114965
115116
115788
117481
120513
142925
598343
555743
543259
618886
107068
78765.3
82404.4
85271.7
87436.6
88789.2
89990.4
91920
94641.2
97724.9
100773
113612
472511
358006
277393
252750
50828.3
112279
124405
99094.7
12072.1
18692.2
30488.1
41200.7
49124
55203.5
61240.5
67383.5
72865.5
77119.6
80646.2
91879.6
371212
224592
140755
62714.1
83194.3
118102
116816
74679.7
19888.7
7746.57
10036.2
15262.3
22548.3
31299.9
40126.2
47556.4
53381.9
58774.9
63780.9
75705
291321
153576
105077
67859.3
91110.4
115424
114705
78766.9
31543.1
10617.1
6169.63
7078.41
10888.1
17309.9
24867.1
31363.3
36795.9
43702.8
50364.9
62514.3
253116
136344
106581
76394.3
95998.9
113325
112668
81920.7
41702.1
16388
7463.45
6878.43
7658.65
10070.1
14128.6
19043.5
25003.7
32790.7
39518.7
50508.3
240772
141276
117495
87142.7
99091
111620
111219
84349.3
49326.3
23810.3
11805
8001.12
6797.3
6765.71
8179.46
11985.5
17725.8
24614
30208.3
39741.2
246947
155219
136278
99122
102361
111653
110116
85831.9
55221.4
32436.3
18659.8
11002.5
7135.12
6468.26
7044.41
9216.44
13278.1
18443.4
23041.8
31969
265965
181751
162876
112992
106818
112313
109929
87320.5
61101.5
41078.8
26261.2
15606.6
9120.08
7276.56
7518.86
8533.99
10379.5
13590.7
17500.4
26303.9
301696
223129
200397
130491
113570
113873
110272
89597.4
67193.8
48296.5
32824.5
20934.1
13441.9
10060.1
8892.55
8975.55
9691.55
11367.3
14373.7
22519.2
351949
281716
250268
154215
123873
116519
111333
92518.9
72504.7
54146.4
38483.8
27143.5
19454.6
14646
11400.5
10061.8
10240
11625.7
14041.6
20444
405771
348911
319782
193659
140282
120509
113544
95685.1
76785
59802.6
45613.1
34889.4
26335.6
19993.6
15239.2
12312.6
12202.3
13077.9
14747.6
19187.1
455541
409502
398081
262464
165088
127401
116985
98910.4
80619.6
64961.6
52159.2
41401.8
31999.1
24894.2
19515.4
15990.6
14998.5
15379.1
16055.2
19466.8
531320
499458
506752
417656
272683
178717
140380
112478
92593.9
77207.4
64267.5
52582.2
42137
34553.8
28835
24771.2
22273.9
20561.7
20392.4
22428
1.66898e+06
1.45929e+06
1.16916e+06
755921
677421
732405
728293
621822
490821
387900
302004
260658
247425
253112
270992
305630
356103
413236
466753
549084
1.4407e+06
1.26369e+06
553836
406479
587088
714968
711927
575035
370196
234069
159689
139389
144405
158475
185068
226391
283994
353637
417595
516328
1.18349e+06
556746
335165
312050
579643
716831
712101
557637
284180
144195
108177
109128
118686
138053
166678
207058
258594
328423
410615
528868
756175
390206
296896
231531
461204
698105
748111
638474
266679
63473.7
68794.1
77729.4
87696.9
98893.3
112968
130810
155423
194688
264592
430847
655450
548765
537473
399363
48394.1
84633.1
92217.5
97932.2
101152
104173
108380
114826
125024
140814
163794
268935
696650
676133
681230
669292
117675
122074
119098
116758
114926
114954
115600
117084
119396
122619
127962
172882
695586
682496
686540
720801
130214
120698
118223
115853
114289
113394
112846
113112
113974
115699
118425
137216
597318
557008
542880
617704
104490
76183.6
79848.6
82946
85077
86344.6
87673.2
89828.2
92899.2
96225.4
99182.5
109938
469401
358409
279529
260806
46813.4
113051
124808
99157
11470.2
18320.6
29668.9
39663.7
47266.7
53043.6
58989
65324.7
70818.9
75232.1
78636.2
88987.5
367211
222858
138343
59870.3
81582.7
118607
116807
73369.3
18571.2
7099.68
9318.1
14403.1
21411.2
29841.1
38416.2
45287.7
50886.5
56388
61607.4
73363.2
284153
150800
103626
64646
88908.6
115642
114393
77314
29797.8
9563.32
5513.52
6387.51
10119
16144.2
23018.9
29332.9
34674.4
41430.3
48258.7
60391.9
244045
130443
103118
73091.1
94461.7
113264
112232
80631.8
39790.5
15042.2
6586.87
6181.46
6977.97
9237.84
13037.1
17598.4
23183.6
30691.1
37380
48610.5
232715
134646
111465
82861.5
97621.8
111382
110774
83067.2
47531.7
22223.8
10618.9
7139.39
6244.22
6369.1
7558.71
10806.5
15986.5
22506.2
28309.8
38194.8
239266
147922
129105
93603.5
100421
111317
109860
84648.6
53466.6
30691.7
16960.2
9765.66
6579.71
5978.21
6369.3
8184.63
11756.1
16801.8
21453.6
30381.4
257678
173917
155549
106651
104166
111970
109747
86239.2
59546.3
39413.1
24183.4
14101.7
8224.5
6540.77
6728.52
7539.96
9393.33
12584.2
16131.7
24502.2
292297
214608
193710
123070
109874
113444
110073
88603.3
65996.8
46640.4
30862.2
19249.3
12041.8
8902.02
7867.62
8008.02
8705.03
10051
12632.8
20444.7
342486
272026
243514
145639
119251
115876
111083
91797.6
71584
52488.4
36621.4
25356.2
17749
13144.5
10330.2
9048.46
9069.62
10059.2
12089
18444.2
398814
341856
312562
181317
134028
119258
113057
95204.5
75997.8
58186.5
43766.2
33097.7
24599.6
18491.9
14025.7
10969.5
10535.6
11184
12871
17516
450692
404339
394765
247002
156122
124409
115999
98301.9
79535.6
63457.4
50569.4
39798.3
30520
23408.7
17984.8
14180.3
13040.9
13500.9
14407.6
17831.4
529708
499901
512667
411468
257923
167962
135250
109567
90298.2
75388.1
62796.3
51261.1
40874.5
33049.7
27091
22783.7
20373.9
18922.2
18691.4
20589.1
1.71742e+06
1.51122e+06
1.12725e+06
717243
663648
732674
727681
618535
483928
382736
296703
254641
242895
249532
267616
301700
351985
411232
466713
550500
1.49332e+06
1.19408e+06
495454
393735
586163
716455
712859
573350
364595
228622
156617
134308
139221
153462
179904
220913
277153
348151
414589
516853
1.13325e+06
491099
329648
307829
573201
718083
712908
555303
279281
138680
104434
105859
113812
131570
159428
199931
252018
320587
403502
529845
702042
372538
296177
233757
439118
700521
750826
636807
249365
59942.3
64975.6
74177.7
83823.3
94023
106781
122840
145622
180945
245471
417043
631344
552335
546705
417446
52906.2
81320.7
88793
95148.6
98677.2
101107
104481
109709
118421
132166
151916
248374
691201
676205
681274
664546
113742
118950
116441
114307
112444
112285
112748
113940
115927
118457
122228
159026
691996
681201
683519
718926
125847
117661
115590
113541
111828
110981
110311
110362
110901
112166
114251
128927
592754
553616
537540
613649
100746
73231.1
77043.6
80259
82491.8
83773.8
85006.5
86890.3
89555.8
92656.1
95556.1
104306
464822
354421
273468
249396
46970.4
112262
124285
98365.2
10648.7
16916.9
27637
37216.5
44955.7
50955.3
56561
62344.5
67699.2
72684.4
76122.8
84753.3
365285
221020
135109
57843.6
80067.8
117719
116058
72348.3
17988.6
6581.17
8443.94
13191.2
20145
28081
36144.9
42964.3
48469.5
54190.8
59183.6
69705.7
282538
150571
101540
62600.3
87287.3
114992
113867
76575.7
29087.9
8925.01
4937.54
5697.2
9061.77
14676.4
21019.1
27051.7
32787.6
39383.4
45726.8
57397.5
239194
127111
101137
71546.6
93389.1
112653
111862
79934
39178.8
14245.1
5865.85
5492.35
6169.68
8192.39
11612.4
16256.7
21845.3
28759.7
35065
46255
226661
130661
108222
80825.7
96794
110645
110339
82408.2
46915.7
21471.1
9531.72
6289.56
5726.88
5918.33
7115.52
10084.1
14691.9
20513.8
26136.2
36551.9
233290
143388
124501
90477.2
99073.3
110326
109379
84017.8
52765.3
29459.3
15539.6
8616.7
6043.91
5817.27
6088.44
7535.59
10528.4
14934.2
19627.2
29051.3
250659
168026
149817
102301
102272
110799
108926
85520.4
58262.9
37740.2
22436.5
12552.1
7604.7
6232.25
6327.24
6881.87
8378.64
11350.8
14981.6
23275.1
283573
206718
186780
117161
107004
112037
109110
87583.9
64106.9
45019.7
28944.2
17740.7
11054.3
8090.3
7135.8
7195.31
7700.62
9066.89
11596.2
18957.4
332833
260548
235215
138006
115024
114242
109870
90405.5
69686.4
50811.3
34880.3
23660.6
16136.9
11766.6
9213.67
8018.59
8082.33
9018.71
10719.5
16599.6
392475
331376
300243
169185
127862
117072
111435
93707.5
74753.5
56510.7
41550.2
30833.5
22511.1
16671.9
12729.8
9934.43
9367.37
9885.91
11255.7
15657.2
448283
398838
382965
226963
146585
120766
113783
96718.2
78146.5
61388.4
47880.1
37332.8
28396.9
21541.8
16629.5
12882.2
11488.8
11783.9
12608.9
16097.9
531696
502060
513613
394337
237767
155958
128800
105826
86969.5
71942
59635.7
48581.4
38818.3
31158.5
25280.8
20827.3
18313.1
16923.9
17007.9
19119.8
1.74865e+06
1.55075e+06
1.09596e+06
691031
656158
732967
729455
617852
479868
378631
292618
249590
240136
248303
267401
301785
352432
413660
470195
553083
1.53383e+06
1.14147e+06
463946
384981
593218
719629
715517
573983
360622
224557
154343
129816
134502
149701
177385
218817
274452
346256
413698
517176
1.10549e+06
456819
323823
305580
583102
721885
715195
555859
275055
134875
102052
102791
109707
126084
153162
193337
245645
313979
396885
528264
675483
362453
288067
229358
445109
700847
752336
637711
252272
57906.5
62672.8
71897
81409.3
90926.1
102748
117627
138549
170817
230404
403079
620145
547545
538542
409973
44686.4
79410.2
86763.5
93373.5
97288
99467.6
102431
106916
114464
126687
144021
232997
687302
673823
680471
661910
112187
117618
114871
112649
110882
110481
110800
111690
113368
115392
118160
149385
688962
679144
682912
716244
124214
116364
114074
112005
110461
109569
108709
108570
108817
109585
111105
123010
588576
550326
534249
610475
99443.9
71696.8
75517.5
78713.6
80979
82166.6
83204
84911.1
87366.7
90301.2
93004.4
100245
460338
349234
267005
243095
45940
111341
123471
97169.5
10318.6
16265.2
26415.8
36036.9
43863.7
49692.6
54940.7
60217.3
65448.4
70743.1
74127.8
81576.1
362666
217650
131681
56524.4
79470.5
117091
115373
71677.3
17787.5
6216.74
8226.02
12825.3
19432.7
26891.4
34373.6
41585.2
47595.7
52842.5
57226.1
66715.8
280603
149125
99101
61385
86523.7
114380
113444
75914
28385.8
8705.8
4794.69
5310.81
8269.33
13532.4
20186.5
26889.6
32363.7
38082.1
43741.4
54856.6
237466
125490
100196
70616.2
92759.2
112083
111633
79010.3
38415
14036.7
5520.18
5089.04
5653.44
7854.34
11606.8
16177
21362.8
27524
33658.8
44707.6
224999
129055
107003
79903
96477.5
110118
109980
81525.6
46479.5
21182.4
8856.38
5786.79
5851.31
6155.52
7296.9
9903.64
13904.8
19523.8
25407.8
35702.8
231381
141528
122737
89201.5
98649.1
109713
108980
83694.9
52446.9
28832.1
14555.3
8284.33
6302.84
6099.13
6129.7
7136.23
9793.66
14550.4
19300.4
28448.2
248241
165760
147702
100645
101631
110143
108572
85310.8
57695.8
36430.2
21615.1
12413
7741.99
6284.53
6166.59
6640.5
8312.56
11507.7
15025.9
22797.6
280023
203728
184087
114878
106032
111241
108713
86957.3
62812
43804.7
28523.7
17419.5
10794
7655.08
6843.07
7122.25
7912.75
9313.05
11477.1
18120.2
328024
255506
231984
134803
113371
113270
109230
89219.9
68136.4
50010.3
34319.5
22988
15264
10903.9
9028.91
8191.71
8248.17
8723.24
10003.9
15399.9
388487
324663
294184
164251
125346
115860
110393
92318.5
73889.4
55669
40361
29468.8
21347
16021.9
12599.4
9974.25
8966.59
9246.51
10372.7
14733.5
446949
394836
374164
216967
142366
118942
112325
95503.2
77502.8
60203
46058.1
35712.6
27231.1
20740.7
16204.2
12430.6
10537.8
10743.4
11620.5
15307.4
533424
502238
510720
381447
225918
149484
125020
103814
85242.4
69669.2
57164.8
46707.9
37368.5
29909.1
24215.1
19533.2
16760.8
15769.9
16114.7
18421.4
1.74963e+06
1.5496e+06
1.08692e+06
685908
656734
735477
731023
618530
479820
378255
292342
248279
239030
248060
268108
303128
354303
416081
472726
555442
1.53769e+06
1.13667e+06
460260
382807
597916
723742
717627
574772
360513
224623
154854
129411
133510
148889
177279
219275
275774
348768
416509
519772
1.11029e+06
452664
321206
303656
591458
726543
717547
556594
274834
134827
102571
103024
109783
125936
152936
193264
245942
315404
400432
532167
675278
359610
284090
225294
466209
703508
753888
639519
249168
57689.8
62703.7
72057.5
81541.4
90842.2
102493
117225
138384
170885
231704
406898
618010
544076
533985
393039
43952.2
78550.7
85982.2
92726.7
96564.1
98707.7
101580
106162
113879
126250
143647
234089
685940
671949
679321
662211
111008
116647
114065
111865
109923
109524
109901
110891
112711
114897
117771
149235
687169
677480
682048
715652
123150
115601
113483
111479
109758
108803
108015
107955
108257
109163
110799
122782
587059
549264
533819
608938
98326
71719.7
75419.5
78353.1
80518.4
82171.5
83431.4
84918.8
87189.7
90101.5
92780
99929.2
458868
349101
268196
249984
43388.3
111590
123558
97260.7
10386.9
16638.1
26748.1
36344.3
44073.3
49792.9
55046.9
60160.8
65245
70670.7
74122.2
81386.2
361631
217346
132019
56228.9
79704.6
118125
116282
71798.7
17385.6
6150.4
8282.99
12989.7
19541.3
26877.5
34349
41500.3
47365.7
52601.5
57042
66416.3
279792
149062
98868.8
61125.5
87062.4
115516
114180
75996
27916.6
8580.23
4789.11
5319.54
8268.08
13579.9
20211
26738.6
32081.6
37786.1
43444.9
54415.3
237827
125812
100493
70473.9
93577.8
113269
112261
79497.4
37994.1
13869.5
5526.09
4995.7
5563.97
7749.92
11443.1
15892
20985.2
27193.7
33340.3
44212.2
225630
129472
107718
80086.3
97362.4
111289
110684
82094.5
46138.1
20968
8858.08
5747.3
5689.13
5954.57
7077.9
9622.32
13663.5
19337.8
25050.9
35198.7
232159
142155
123800
89781.2
99692.7
110856
109770
83670.3
52095.8
28652.7
14558
8249.69
6122.83
5876.51
5930.72
7040.44
9844.23
14362.3
18966.1
28008
249133
166641
148864
101504
102648
111279
109300
84955.2
57515.3
36413.9
21515
12315.7
7585.23
6094.03
6063.1
6633.89
8219.15
11198.9
14670.9
22422.5
280936
204758
185559
116081
107086
112353
109407
86835.8
63020.8
43634.5
28311.8
17258.4
10591.6
7588.64
6840.34
7043.48
7647.59
8925.98
11108.5
17792.9
328894
256507
233288
135631
114498
114353
109968
89541.8
68264.9
49616.8
34118
22828.1
15176.7
10954.4
8878.33
7894.65
7929.53
8501.21
9813
15034.7
388776
325334
296173
165371
126520
116905
111207
92730.1
73325.2
55140.6
40213.3
29444.1
21234
15768.3
12297.8
9635.66
8758.23
9110.41
10242
14445.8
446629
394967
375078
218184
143501
119917
113140
95648.7
76822.4
59847.6
46055.1
35628
26965.5
20512.6
16015.3
12210
10352.4
10581.1
11438.3
15099.9
532711
501556
508778
379730
225523
149730
125531
103622
85009.1
69724.6
57132.6
46549.3
37261.2
29912.3
24175.2
19428.5
16516.3
15493
15915.3
18372.4
1.72028e+06
1.51123e+06
1.11081e+06
707076
664965
737234
732151
619873
482019
380548
294837
251720
241942
249965
269501
304897
356192
416569
472462
555298
1.49988e+06
1.18772e+06
488413
390532
600661
725253
718369
575801
362772
227363
156021
132357
137223
152585
180525
222858
280681
352942
419671
521547
1.1417e+06
485192
324897
308799
595012
727364
717942
558146
277255
138047
103980
104856
112459
130303
158822
200231
253516
324141
409595
535572
702635
366946
287107
227625
471184
705035
755431
641735
250160
59032.4
64283
73625.2
83293.6
93453.8
106236
122318
145465
181421
248064
423304
626294
541786
532978
393373
44891
79448.3
87226.9
93756.3
97335.5
99741
103183
108522
117314
131082
150905
249986
686440
671024
679163
663404
110878
117217
114603
112386
110475
110377
110911
112198
114286
116875
120658
157954
687448
677560
682946
716254
123057
115919
113874
111928
110276
109394
109038
109240
109916
111190
113164
127582
587717
549797
534903
610716
98320.9
72499.9
76158.5
79156.4
81548.3
83193.1
84652.2
86539.8
89110.8
92225
95090
103465
460053
349416
267886
240804
47152.4
112891
124907
98851.6
10477.6
17221.7
27861
37519.2
45164
50920.7
56264.4
61892.5
67278.3
72384
75763.2
83967
361512
217753
133526
57941.3
80995.1
118646
117000
72659.8
17458.7
6432.17
8509.25
13394.7
20200.4
27878.3
35852.3
42739.9
48250
53853.4
58668.5
68830
279926
148749
100340
63039.1
88227.9
115749
114759
76677.6
28403.2
8664.04
4816.62
5519.04
8849.61
14495.2
20938.7
27013.4
32657.5
38962.1
45131.4
56595.2
239425
127114
101895
72339.2
94454.7
113397
112712
80054
38358.6
13804.4
5651.03
5290.53
5963.15
8074.31
11629.1
16179.1
21473.5
28267.8
34578.2
45598.9
227716
131123
109604
82100.9
97979.4
111424
111042
82631.3
46296.3
20886.1
9248.12
6104.92
5597.07
5834.74
6987.26
9769.03
14304.4
20180
25727.2
35952.2
234465
144025
126101
92077.3
100312
111129
110112
84295.3
52248.8
28887.5
15190.1
8495.89
5979.09
5651.41
5862.4
7335.4
10460.8
14758.3
19336.6
28494.2
252090
169014
151458
104042
103456
111606
109635
85672.5
57844.1
37206.9
22054.4
12451.8
7469.02
5992.29
6133.75
6828.05
8350.17
11195.3
14685.4
22703.3
285357
208327
188722
118823
108142
112816
109777
87473
63798.3
44485.8
28597.8
17494.8
10701.4
7878.8
7066.12
7146.1
7596.23
8866.3
11225
18381.4
334665
262529
237557
139380
116041
114901
110441
90094.1
69251.5
50340.9
34529.7
23244.5
15765.1
11595
9119.35
7898.65
7928.15
8773.23
10448.2
16068.2
393757
333430
302780
170526
128744
117562
111790
93329.8
74288
56024.6
41164.9
30423.6
22159.8
16456.4
12558.7
9670.1
9103.91
9673.76
11055.3
15276.1
449070
400808
384625
227624
147046
121009
113875
96306.9
77662.4
60885.5
47493.9
36961.7
28077.4
21386.6
16389.3
12511.5
11149.2
11516.3
12366.3
15757.6
531348
502557
514474
392920
235875
154821
128021
105117
86299.8
71427.1
59305.1
48430.1
38764.7
31107.4
25098.7
20562.7
17964.7
16593.7
16734.4
18819.1
1.67068e+06
1.45804e+06
1.15313e+06
748673
680842
738756
732216
622660
488019
384975
299628
258077
246557
253215
272472
308356
359415
416283
469565
551703
1.44311e+06
1.25436e+06
545222
407329
598553
723431
716744
576829
366794
231106
157510
136887
142124
157285
185611
228572
287466
356582
420087
518473
1.18675e+06
552194
334401
315314
592509
724339
716437
559848
281188
142134
106237
107196
116594
136318
166246
208270
261602
333288
415957
531847
754070
385883
293835
232805
472737
706614
755912
642968
255366
61934.4
67305.9
76371.5
86589.1
98044.8
112284
130537
156040
197193
270507
438409
648693
541410
531916
396102
47212.7
82695.7
90712.5
96627.8
99838.7
102828
107033
113443
123704
139646
163230
272648
690662
671194
680026
666222
112706
120066
117118
114776
112886
112915
113578
115010
117253
120422
125993
172817
690149
678399
685945
719020
124461
118527
116247
113973
112470
111558
111150
111414
112251
113953
116630
135695
591843
553373
540486
614638
99393.8
74362.7
78070.4
81229.2
83605.6
85082.2
86447.3
88544.6
91598
94999.3
97888
108415
464820
354199
274628
255237
45233.5
112945
124832
99060.9
11470.3
17725.6
28890.9
38997.4
46645.6
52255
57959.9
64275.8
70058.3
74513.9
77703.3
87630.2
363851
220139
136914
59245.9
81388.8
118485
116969
73618.6
18335.4
6944.97
9204.47
14132.6
20873.1
29018.9
37599.5
44776
50459
55749.5
60708.4
72215.6
282132
149261
101838
64321.6
88986.1
115654
114700
77379.6
29663.1
9438.86
5311.05
6053.29
9655.9
15702.6
22720.2
29090.3
34293
40790.6
47497.9
59665.9
243503
129673
102791
73085.2
94778.4
113398
112571
80674.5
39759.9
14754.2
6236.71
6031.78
6887.36
9212.08
12994.9
17380.3
22744
30194.1
36997
48228.9
232320
133851
111643
83139.5
98062.6
111554
111101
83221.4
47400.9
21702.9
10143.2
7062.96
6181.83
6324.12
7398.3
10501.8
15644.8
22296.4
28145.3
37870.6
239136
147217
129305
93951.6
100851
111463
110231
84793.8
53046.1
29981.2
16540.2
9700
6508.23
5741.14
6131.9
8022.02
11661.7
16702.1
21289.5
29974.5
258177
173698
155637
106907
104522
112096
110066
86198.1
58907.3
38797.3
23873.5
13948.1
7965.72
6257.13
6504.4
7419.81
9337.24
12518.4
15909.3
24011.5
293786
215239
193940
123003
110061
113582
110387
88340.5
65494.7
46310.5
30579.8
18838.9
11510.1
8553.17
7651.81
7857.91
8604.12
9899.1
12314.3
19917.4
344946
273932
244327
144951
119161
116033
111387
91577.9
71415.5
52225.3
36154.5
24640.1
17163.2
12817.4
10129.4
8887.74
8903.72
9810.71
11774.8
17985.6
402267
345690
313842
179516
133611
119363
113308
95141.2
75902.8
57686.1
43021.4
32485.1
24311.6
18350.2
13834.5
10648.6
10175.7
10825.4
12536.5
17200.7
454757
409346
397485
243733
155009
124215
116112
98181.2
79223.9
62848.3
50021
39535.2
30451.4
23314.9
17668.2
13660.1
12571
13082.3
14099.1
17555.2
533182
505205
518205
409276
254060
165892
134370
108866
89566.4
74821
62562
51205.3
40790.4
32821.7
26678.7
22323.9
19994.1
18640.4
18461.8
20324.7
1.62179e+06
1.41102e+06
1.1852e+06
793394
700582
738320
730506
625727
494247
389876
305765
265170
252457
258850
278358
314333
364045
417412
468145
547953
1.39435e+06
1.28768e+06
612403
428914
594896
717547
712665
578774
374326
236989
162028
142526
147916
163141
191795
235311
293977
359460
420235
513124
1.22022e+06
632705
349524
322166
586943
718339
713466
562831
290917
148526
109524
110515
121262
141691
171899
213738
267327
339092
416477
521851
804876
413506
304483
238705
470376
701747
749592
639777
269902
64877.4
69998.1
78563.8
89255.9
101823
117170
137039
164264
210741
287025
443147
676484
543611
530999
399826
48614.5
85201
93297.9
98352.2
101470
104935
109773
117161
128410
146192
173271
289264
695194
670475
681794
667552
116215
121957
118962
116536
114568
114527
115005
116246
118461
122134
129709
185029
691773
677882
689376
721348
128237
120594
118158
115746
114154
112958
112091
112238
112933
114696
117838
141342
594049
554831
544214
618410
102746
76585.6
80217.8
83066.5
85297.3
86615.9
87794.8
89758.1
92503.8
95560.7
98559.8
111645
468126
356664
278359
249912
49431.1
112472
124573
99369.2
11835
18598.5
30086.8
40429.7
47982.2
53820.2
59718.1
65889.6
71356.7
75457.4
78897.8
90081.1
366513
222357
140510
61696.4
82619.1
118329
117194
74537.5
19345.7
7616.71
9844.1
14845.7
21895.6
30452.7
39222.6
46547.3
52202.7
57424.8
62330
74223.9
287200
151801
104007
66688.6
90511.8
115599
115025
78631
31035.8
10357.7
5964.83
6869.26
10628.3
17000.6
24419.5
30675.2
35914.2
42694
49310.4
61422.7
249447
133988
105402
75136.2
95594.1
113448
112883
81930.1
41297.3
15894.9
7183.45
6794.05
7629.11
10044.4
13905.4
18584.8
24403
32141
38844.9
49698.7
238292
138571
115950
85883.7
98753.2
111680
111483
84478.2
48831.3
23136
11427.7
7913.37
6707.23
6650.21
7974.61
11675
17345.2
24233
29757.4
39097.6
245286
152694
134616
97782.1
101969
111705
110520
85920.7
54581.4
31680.1
18246.2
10836.1
6943.47
6250.55
6843.69
9038.66
13145.7
18248.1
22710.1
31399
265592
180181
161280
111530
106244
112338
110206
87231.1
60504.3
40497.6
25879.9
15250.3
8718.92
7011.09
7300.6
8424.14
10376.3
13526.1
17239.7
25785.5
303056
222950
199155
128490
112611
113842
110525
89377.4
66818.9
47947.2
32384.1
20340.8
12837.8
9679.35
8695.73
8850.05
9579.64
11194.4
14080.7
22052.7
355126
283985
249858
151336
122410
116385
111482
92337.5
72357.6
53746
37841
26378.9
18818
14260.2
11182
9864.4
10034.6
11384.5
13776.6
20135
411138
353917
320757
188898
138099
120124
113521
95519
76555.1
59165.1
44799.9
34192
25901.9
19717.4
14942.2
11937.7
11837.9
12751.7
14505.2
19004.1
462267
416176
402240
256495
161674
126223
116680
98587.4
80122.2
64249.9
51489.3
40949.5
31711.3
24626.1
19113.1
15463.3
14569.5
15041.8
15831.2
19295.4
538217
507833
515291
415933
266694
174622
138499
111169
91501.1
76394.6
63738.1
52199.2
41780.5
34151.6
28361.8
24279.1
21912
20307.1
20181
22209.5
1.62974e+06
1.42681e+06
1.25227e+06
843210
726418
749615
741545
637931
508670
402458
318241
277056
262739
269605
290506
328168
377755
429395
478885
557088
1.40883e+06
1.35555e+06
685697
453538
596613
718288
717023
586109
386169
246987
170993
151754
157524
174043
204497
250248
310602
375686
435199
524660
1.28445e+06
717341
368647
332725
582803
716935
716109
568493
301935
157848
116963
118578
130990
153186
185302
229073
285482
360251
438447
538124
854748
440847
316279
247478
468632
699531
746726
641132
278259
69243.9
74726.2
84069.2
96243.3
110753
127645
149556
180108
232995
314445
469317
702991
547491
529842
404006
52002.6
87382.6
96283.3
101804
105867
110369
116633
125684
138972
159597
191360
318192
705293
671646
682024
669754
116161
123832
121504
119352
119008
119521
120805
122846
125865
130632
140515
205849
698599
680094
690844
723370
128313
122788
121018
119171
118101
117561
117712
118277
119424
121792
125803
154751
600309
555628
542764
619506
103545
78540.2
82668
85816
88439.5
90704.1
92820.5
95184.5
97916.6
101251
104979
121602
475663
358749
277053
249828
51313.6
113033
125385
100252
12281.1
18846
30783.1
41992.1
50644.6
57682.5
64077.4
70101.1
75793.6
80705.5
84985.8
98232.9
374241
226281
144758
65151.6
85896.3
120814
120072
77499.9
20650.3
8178.66
10536
16286.4
24194.3
33194.7
42101.3
50113
56785.3
62984
68089.8
80932.3
297763
158345
108632
70956.4
94512.9
118429
118325
81988.8
33015.8
11353.4
6983.21
7981.61
11739.2
18456
26719.4
34019.5
40435.5
47892.8
54467
67303.4
260331
141714
111435
80598.4
99598.9
116362
116662
85395.5
44077.9
17962.1
8524.04
7427.38
8205.53
10935.8
15721.6
21559.4
28186
36367.2
43337.6
54963.3
248033
146964
124661
92969.8
103384
115876
115561
88273.9
52526.3
26239.1
13068.4
8680.47
7455.43
7546.73
9447.46
13900.1
20247
27740
33614.9
43672
255183
162338
145305
106687
107391
116441
115491
90651.6
59259.1
35313.9
20457.3
12257.9
8035.65
7466.07
8119.11
10556.1
15186
20905.7
25882.9
35482
276807
191487
173360
121675
112876
117876
115881
92823.7
65551
44256.9
29022.7
17751.9
10601.7
8405
8648.03
9808.26
11918.2
15419.8
19752.6
29327.6
316555
236682
212549
140195
120717
120242
116768
95352.9
71645
52185.8
36489.3
23974.5
15551.5
11507.7
10228.7
10396
11218.3
13188.9
16510.7
25363.8
369990
300423
265998
165336
132242
123676
118315
98359.2
77292.6
58821
42894.2
30622.1
22042.4
16662.6
13125.6
11649.6
11881.4
13559.8
16467.7
23422
426495
371174
340060
207138
150231
128476
121038
101911
82271.9
65121.2
50348.9
38661.6
29489.1
22595.7
17372.1
14176.6
14188
15461.6
17480.7
22235
478805
434797
423644
279562
177267
136302
124972
105701
86707.9
70415.9
56906.9
45543.6
35545.4
27963.1
22087.4
18241.8
17451.1
18074.8
18912.3
22614.7
556087
526400
535358
441093
291577
192674
151230
121246
100122
83427.9
69790.3
57499.3
46350.6
38336
32120.9
27795.6
25310.7
23497.4
23487.4
25761.5
630480
348699
639129
449673
633606
407581
637689
746507
688845
749262
694410
743811
682381
744755
703661
752725
697608
746399
699634
747509
690850
448912
651856
384192
642291
449802
645368
383995
369452
610507
618682
414678
347351
604989
610173
60168.3
112944
109225
54713.9
59952.1
109920
107388
664673
724937
727674
669801
660167
720666
720654
124994
136588
136253
120167
122451
133096
133783
731034
681847
674532
723503
723882
678014
668462
135763
121676
123019
133065
133252
118439
120483
629031
418600
332485
619809
624413
425993
362617
108891
31122.4
45974.9
107561
106886
32006.1
45582.7
105968
57823.2
102441
49944.3
102938
55623.3
100386
128534
117397
128177
112533
124666
114490
125378
114060
127750
115251