/*--------------------------------*- C++ -*----------------------------------*\
  =========                 |
  \\      /  F ield         | OpenFOAM: The Open Source CFD Toolbox
   \\    /   O peration     | Website:  https://openfoam.org
    \\  /    A nd           | Version:  9
     \\/     M anipulation  |
\*---------------------------------------------------------------------------*/
FoamFile
{
    format      ascii;
    class       surfaceScalarField;
    location    "0.0075";
    object      phi;
}
// * * * * * * * * * * * * * * * * * * * * * * * * * * * * * * * * * * * * * //

dimensions      [0 3 -1 0 0 0 0];

internalField   nonuniform List<scalar> 
28500
(
-125.271
-125.833
6.49157
-106.225
-128.195
8.50718
-114.635
-176.933
7.07555
-104.065
-246.893
-0.451907
-58.73
-291.537
-2.24795
0.0719821
-284.72
-2.30418
58.8479
-283.037
-3.20843
132.443
-288.442
-2.052
200.29
-277.548
-3.50359
249.284
-234.113
-0.691093
284.356
-189.19
-1.22368
306.147
-160.956
-2.31244
322.799
-139.032
1.90339
336.236
-125.741
5.60753
343.452
-113.143
4.69565
345.245
-102.071
1.52996
346.406
-92.398
1.19706
349.175
-84.6304
2.84588
353.283
-80.4342
3.24175
-76.7791
2.2206
-127.649
-104.493
9.10296
-147.377
-143.943
9.49972
-192.007
-223.975
5.97859
-142.973
-263.584
-3.73337
-63.504
-284.507
-2.86645
-1.0078
-283.868
-2.26808
62.7134
-282.397
-2.35645
152.43
-286.719
-1.66427
243.99
-262.987
-1.8228
301
-195.438
-0.0997785
337.14
-144.622
1.8429
359.496
-134.298
-0.509856
375.77
-116.021
3.0244
387.226
-106.42
6.81855
392.545
-97.3827
5.96423
389.832
-85.4164
3.0706
382.658
-75.0492
0.801165
377.485
-65.8035
2.44619
375.836
-60.8654
3.79615
-60.2385
3.38841
-174.081
-109.787
9.0476
-224.434
-189.69
8.33583
-220.471
-219.004
-0.564632
-156.782
-63.7745
-6.47476
-64.6115
-64.8978
-65.7687
-68.3336
-69.6775
-1.64748
-69.9383
-70.8668
-70.706
0.0222177
-69.6492
-1.29718
-70.2402
-70.4521
-70.8698
68.8129
-69.5602
-1.31287
-69.87
-70.1669
-70.4966
164.493
-69.9074
-1.5438
-70.1864
-70.5104
-70.9866
265.459
-63.6053
0.83076
-51.6726
-64.7223
-52.643
322.749
-173.369
-1.80508
364.135
-149.048
2.51527
406.173
-150.337
3.14561
435.386
-146.733
-0.855166
455.074
-141.12
-3.77134
464.82
-129.562
-3.83315
465.439
-113.097
-2.1095
458.54
-94.2002
-1.36089
446.583
-72.4237
-2.81077
429.035
-45.5032
-0.675808
-35.9439
-0.325444
-245.211
-101.198
2.52159
-263.989
-142.3
1.3453
-64.9613
-157.801
0.7448
-65.1855
-64.7351
-65.6823
-59.3438
-57.7916
-1.08265
-28.2099
-1.11812
46.8685
-17.3482
-16.9522
-16.9378
-17.2916
18.1521
-8.15227
-0.303036
-17.4872
-17.2769
-17.3186
-17.4819
-0.00207762
8.22218
-0.589476
-17.4662
-17.2044
-17.2162
-17.456
-18.2458
28.2422
-0.40693
-17.7015
-17.305
-17.3297
-17.6666
-50.3551
64.0534
-59.6461
-1.18107
470.345
-129.969
-6.69595
-88.9255
-113.021
-88.9002
-113.023
504.846
-129.813
-4.23943
524.46
-131.391
-1.82675
534.154
-127.682
-4.75234
539.668
-120.514
-6.66159
542.259
-111.548
-7.25252
541.926
-101.243
-6.13402
537.801
-86.5644
-1.51369
527.415
-71.4028
-6.21018
503.49
-47.0891
-2.82178
-13.6729
-1.1697
-291.498
-58.5092
-1.90003
-283.745
-63.8787
-2.32216
-69.7203
-69.1743
-0.820769
-69.9557
-70.2713
-70.4303
-28.0124
-0.00662856
47.4383
-17.4364
-17.6143
-17.7747
-17.4358
6.29045
30.6452
-7.68581
-0.730565
582.176
-70.4114
-4.67282
-142.122
-144.494
-143.568
-146.277
585.721
-70.3461
-6.18825
589.836
-67.7957
-7.12191
593.089
-65.0135
-7.17206
594.565
-62.25
-7.73622
593.701
-59.8431
-5.61517
591.797
-57.3779
-6.92127
586.704
-52.5778
-6.52689
577.387
-48.6865
-6.19408
563.535
-36.4032
-5.40733
2.88903
-3.79942
-285.426
0.216925
-2.43822
-284.658
-1.19073
-2.45359
-69.9362
-0.156909
-1.59131
-70.6189
-70.4477
-71.1373
18.1909
-8.15746
-0.245467
-17.4593
-17.5055
-17.4918
-17.4288
3.75275
36.1857
-2.64278
-0.382275
588.014
-0.0109882
-5.56362
-144.946
-146.676
-146.767
-148.479
588.814
-0.472213
-5.88175
589.049
-0.796593
-6.22233
588.837
-1.09801
-6.31904
588.143
-1.61113
-6.8883
587.135
-1.56059
-7.04592
586.241
-0.83817
-7.02684
585.609
0.727309
-7.1956
584.168
2.62889
-7.02212
581.357
5.90502
-6.60642
24.5666
-4.94049
-283.881
59.2483
-4.46642
-282.978
62.8889
-3.98062
-69.7293
69.2973
-2.48141
-69.912
-70.266
-70.6476
-0.0112673
8.21586
-0.982336
-17.5177
-17.2788
-17.2902
-17.5081
-0.0399045
36.4578
0.876678
-0.386304
592.86
68.0046
-5.37522
-146.874
-147.111
-148.636
-148.947
593.738
66.0551
-5.42118
594.534
64.1932
-6.52822
595.397
61.7834
-7.25517
596.126
59.9379
-7.01587
596.458
59.2816
-6.42627
596.799
57.5613
-6.34786
597.304
56.7449
-6.88562
597.054
56.1595
-7.36217
595.932
55.2822
-7.30634
60.6808
-6.25716
-289.529
133.119
-3.73284
-287.298
153.497
-3.60622
-69.8182
165.297
-3.53036
-70.0136
-70.5313
-70.7963
-18.2408
28.3547
-1.02091
-17.576
-17.4141
-17.4138
-17.4383
-3.78114
36.7467
5.10716
-0.397509
598.031
177.044
-2.77316
-147.666
-147.72
-149.424
-149.435
601.895
171.142
-7.96758
604.252
162.663
-8.86516
604.806
155.76
-5.34063
605.03
146.731
-3.14511
605.218
139.519
-5.49585
604.938
132.397
-9.01422
605.608
125.594
-8.6399
606.029
120.271
-6.2423
605.003
113.75
-5.40608
110.029
-4.9316
-277.84
201.205
-5.1956
-262.142
245.591
-4.63992
-62.7095
266.937
-4.15214
-51.1767
-64.6043
-52.8831
-50.0589
-58.6334
65.6042
-1.96209
8.62022
-6.9334
33.8769
-1.15173
3.75007
-2.64894
35.284
-0.431336
-0.0897573
0.94783
35.597
-0.392955
-3.90103
5.20467
35.9393
-0.368516
-9.02215
-11.1682
122.232
127.231
-2.6413
-15.5681
-8.22697
-14.7535
-16.7749
-13.5319
-17.493
564.707
345.146
-24.6386
-134.639
-118.426
-135.619
-119.561
578.32
289.493
-4.85169
588.744
264.812
4.66649
595.337
249.847
1.63624
599.138
234.804
-8.34422
603.902
216.827
-14.5031
606.983
203.288
-11.1954
608.119
191.41
-3.82242
610.665
180.514
-2.47233
611.676
170.931
-5.47115
159.377
-6.69618
-233.228
249.774
-4.05421
-193.576
302.012
-5.0991
-172.117
323.631
-6.91482
-132.288
467.829
-10.4775
-89.7091
-113.809
-89.5328
-112.658
-71.1217
570.715
-4.81903
-139.753
-141.441
-141.246
-143.346
0.966864
575.543
-5.83944
-141.542
-143.309
-143.592
-145.35
71.0103
581.065
-4.99308
-143.527
-144.032
-145.593
-146.133
186.281
585.285
-2.00496
-145.216
-145.993
-147.528
-148.677
329.321
564.469
-14.6074
-134.767
-124.064
-138.225
-126.585
457.308
485.054
-21.5524
509.41
383.475
16.9759
538.692
334.831
-0.472641
562.836
322.546
-19.3322
573.393
305.106
-20.5015
581.295
283.328
-11.5134
590.772
264.608
1.51345
594.966
250.944
2.15869
600.084
235.291
-4.87115
606.292
223.796
-9.95373
205.59
-7.56016
-188.822
284.234
-5.25251
-144.043
336.88
-4.56774
-149.889
364.839
-3.2699
-131.122
499.686
-5.10084
-70.4262
574.54
-6.65432
0.841603
576.298
-6.31694
68.773
582.056
-5.34473
173.517
587.388
-6.97742
289.321
569.845
-7.65103
376.953
526.813
23.5562
441.139
464.49
3.51613
484.658
396.406
-37.5441
517.257
371.495
-28.5805
538.012
358.251
-7.16431
548.568
338.911
8.50425
561.079
318.755
7.35827
574.779
305.296
-5.08768
583.021
284.38
-12.7927
590.504
270.525
-9.66062
248.512
-5.07942
-159.774
305.821
-6.25645
-134.177
358.979
-6.86071
-152.306
405.82
-1.62032
-132.25
517.232
-4.02473
-67.1764
578.819
-7.26277
0.354316
576.598
-6.81539
66.1769
583.021
-6.5277
162.113
590.138
-8.7422
262.181
576.457
2.59379
339.609
542.984
6.20504
394.586
503.879
-29.488
435.244
448.822
-32.959
473.642
407.285
-1.72616
498.121
395.656
15.3064
511.166
384.349
9.90413
528.573
364.876
-4.70631
546.185
348.712
-15.1265
554.979
326.678
-14.5665
564.665
313.233
-7.9035
290.522
-4.51713
-138.688
322.756
-2.10563
-115.744
376.019
-2.86969
-146.58
432.375
-3.88508
-126.917
525.145
-6.80788
-64.1936
582.157
-7.54166
-0.0474792
576.586
-7.08092
63.2692
584.187
-6.95598
153.871
590.71
-5.70672
243.09
581.404
2.20697
320.828
558.953
-14.5251
369.992
525.084
-22.3748
400.851
485.164
2.80203
435.291
444.601
20.5268
475.845
429.318
19.8281
495.743
416.718
-0.582857
503.644
398.919
-11.3644
514.144
384.4
-14.7714
524.338
365.396
-9.11963
539.89
355.261
-1.24919
330.935
-1.63321
-126.822
336.592
2.21241
-107.376
387.993
2.62371
-139.618
450.81
-5.2822
-118.959
530.62
-7.92001
-61.2021
583.649
-7.9896
-0.694015
576.056
-7.77803
60.7854
585.141
-6.75526
145.036
591.087
-3.92064
227.815
585.551
-6.4059
298.669
566.198
-18.5531
352.721
537.064
-6.08658
390.098
498.76
15.1987
419.954
477.248
20.4509
460.342
467.623
3.23772
479.812
447.373
-14.8837
481.735
428.049
-10.7152
487.951
413.415
-4.63638
502.386
399.437
5.53995
518.689
392.12
7.78381
365.555
0.458718
-114.716
343.801
1.71577
-99.4219
393.855
3.32616
-128.015
461.366
-4.47786
-109.932
533.768
-8.65384
-58.6373
582.798
-5.86799
-0.861383
575.148
-7.78151
59.2901
585.527
-6.89566
137.354
591.576
-5.59237
211.28
591.083
-13.0453
276.149
572.377
-12.5044
332.18
544.846
7.3702
377.055
508.253
11.4764
407.793
488.035
0.469612
436
477.645
-12.6053
462.571
467.051
-17.4288
472.207
449.512
-6.88734
485.628
436.838
6.68044
496.771
426.475
15.6862
504.78
419.695
7.95467
394.613
-2.01758
-103.362
345.135
-1.26393
-87.4597
391.506
1.33598
-112.05
462.949
-2.21748
-99.8412
533.546
-7.14468
-56.1821
580.752
-8.00192
-0.395947
574.241
-7.8581
57.3231
586.138
-7.45844
130.306
591.31
-7.83133
198.566
594.027
-10.9994
258.808
581.781
-0.192121
311.312
556.156
7.66966
355.428
523.509
-1.19708
389.25
495.911
-9.09102
420.178
474.198
-13.0438
442.62
469.245
-10.1337
461.934
464.55
5.40883
481.979
459.047
18.9259
490.99
449.366
15.877
494.013
437.36
3.26733
415.094
-4.83699
-93.2749
345.733
-1.56762
-76.0582
383.213
-0.838408
-93.8778
456.562
-1.3353
-85.6757
529.747
-1.64839
-51.3987
575.58
-7.08948
1.3164
573.289
-8.07441
56.2605
586.486
-8.01881
123.31
591.914
-7.22253
187.36
595.44
-4.41437
245.367
586.213
1.9519
297.843
568.544
-2.58174
339.731
540.298
-12.0059
374.993
508.869
-13.6894
405.658
479.475
-7.25387
428.382
475.865
2.1538
450.168
476.938
14.3964
471.555
471.937
17.0468
478.626
458.269
5.17332
480
444.749
-2.81501
428.882
-1.10717
-84.4379
348.138
-0.0384425
-65.2529
376.386
0.402497
-72.8136
444.662
-2.54833
-70.7363
520.607
-6.79728
-47.5863
566.39
-6.61325
3.05604
571.329
-7.85216
55.3677
586.138
-8.13497
117.714
591.966
-6.45148
176.814
598.131
-2.40242
230.304
591.083
-3.5911
277.6
576.21
-9.77074
318.469
549.985
-12.4571
356.6
520.899
-8.35639
391.922
495.089
4.78953
416.944
483.578
10.5927
439.599
479.683
9.30948
456
471.581
2.64373
461.055
455.432
-7.43332
465.411
449.446
-2.80146
441.677
6.20198
-80.2525
352.321
0.668199
-60.5913
374.625
1.35398
-45.6979
427.177
0.309596
-46.3891
497.497
-1.646
-36.3161
552.698
-5.35413
6.27302
568.209
-7.33947
54.5416
584.912
-7.71032
111.329
590.686
-6.59194
166.824
598.798
-5.05323
219.1
596.385
-7.48543
265.628
583.547
-6.71345
307.879
560.551
-5.12753
348.118
537.3
0.676767
382.642
511.785
8.02425
407.421
493.344
3.7008
425.152
481.227
-2.07475
438.547
469.483
-5.21778
448.735
456.81
-2.90339
461.274
458.197
7.19263
450.297
12.2672
-76.9144
-0.0606177
-59.9736
0.772969
-35.1012
-0.702274
-13.1723
0.643236
2.97065
-2.69085
25.1663
-5.10125
59.9385
-6.1933
108.013
-6.03224
155.567
-6.1772
201.373
-5.29649
244.35
-2.27038
285.809
-1.13262
324.595
1.20069
356.951
2.01899
384.394
-2.36688
405.765
-5.51467
422.162
-1.45181
437.196
6.44733
448.787
11.9631
11.2666
-124.532
-125.718
7.2593
-107.352
-129.982
10.7244
-120.441
-186.428
16.3439
-107.428
-259.196
6.30762
-58.531
-297.039
1.17916
0.188095
-289.935
-0.0768725
58.9049
-288.052
-1.29593
133.423
-293.693
-0.085032
201.575
-282.155
-0.595063
250.769
-238.258
1.84956
285.943
-192.641
2.80549
307.278
-162.726
2.01529
323.836
-139.599
4.83721
337.677
-126.224
8.96001
345.005
-113.526
8.95206
346.405
-102.194
5.92414
347.241
-92.5475
4.59037
349.79
-84.4308
5.18059
353.773
-80.1592
4.99598
-76.6906
3.66039
-128.382
-106.211
11.3646
-156.757
-154.46
15.7005
-194.803
-231.374
18.3803
-143.677
-274.428
1.29708
-61.862
-290.809
-0.727628
-0.364596
-290.359
-0.223891
62.8484
-288.653
-1.07672
153.096
-293.125
-0.302029
245.361
-268.569
1.495
303.807
-201.689
2.58513
340.163
-146.947
5.76005
361.871
-136.274
4.33248
378.538
-117.016
6.9798
390.718
-106.785
12.4597
396.338
-97.6524
12.2767
393.832
-85.6895
9.42653
385.917
-74.9634
7.50873
379.038
-64.8932
7.37905
377.003
-59.7416
6.32929
-59.2436
5.06371
-180.681
-114.842
16.4544
-229.896
-195.008
19.6247
-223.216
-224.192
1.31801
-155.473
-66.7202
1.85382
-67.2902
-67.263
-67.9413
-66.3523
-72.7098
0.619244
-72.1854
-73.5301
-72.8798
0.177673
-72.0994
0.421655
-72.304
-72.9694
-73.0073
68.7191
-71.5753
-0.511828
-71.8817
-72.2458
-72.5884
165.074
-71.9059
-0.743503
-72.405
-72.5999
-72.9766
267.962
-65.8591
4.58269
-54.0606
-65.7879
-53.9053
326.919
-177.616
3.49201
368.479
-150.948
6.23079
412.665
-152.489
8.62141
442.727
-149.584
6.86363
462.094
-143.65
4.87371
471.538
-132.488
4.2946
472.083
-115.805
5.12177
464.845
-96.2324
6.22984
451.796
-74.3166
4.56497
432.928
-45.899
6.3768
-34.3486
3.40233
-254.311
-104.986
7.41562
-269.744
-145.378
1.94314
-65.7286
-158.593
-2.18431
-66.4536
-66.6423
-67.488
-0.478385
-59.1389
-60.0194
0.824317
0.826397
-27.2285
0.0776695
47.0414
-18.4096
-18.596
-18.223
-18.704
-0.0410073
17.9042
-8.14734
0.304705
-18.1835
-17.9925
-18.0197
-18.0429
0.332191
-0.000792686
8.22178
-0.270956
-18.0233
-17.6949
-17.9326
-17.7724
0.0768146
-18.2383
28.1375
-0.113009
-18.2429
-17.8538
-18.1768
-17.9441
-50.3699
-0.273889
64.0875
-61.7583
0.465945
481.222
-132.576
3.58232
-90.2648
-114.645
-91.3554
-118.103
515.057
-130.754
3.16387
534.799
-132.29
4.8243
544.561
-129.022
3.19713
549.479
-121.88
1.85006
551.333
-113.13
1.3652
550.403
-102.93
1.64735
545.911
-88.4829
7.90342
535.843
-73.8174
3.22992
511.218
-50.1364
7.50132
-13.8527
6.72487
-295.886
-59.4982
0.888302
-288.829
-64.2026
-1.91709
-71.2145
-69.3315
-0.588345
-71.5939
-71.7019
-72.2185
-0.612236
-28.3938
0.438976
46.6452
-17.497
-17.1502
-17.5813
-17.2431
0.115389
6.06333
30.5987
-7.65981
-0.0879914
594.888
-70.8782
-0.644033
-145.872
-148.408
-147.321
-149.233
597.385
-70.5557
-1.53586
600.712
-67.8683
-2.31113
603.556
-65.0256
-2.02073
604.839
-62.2285
-2.63607
603.666
-59.938
0.456027
601.391
-57.7609
-0.429597
596.083
-53.2233
0.884972
586.528
-49.7566
1.31384
572.58
-39.3477
3.40907
0.891382
6.06812
-290
-0.0434073
-0.468411
-290.226
-0.970048
-1.19034
-71.6938
-0.0671075
-0.950721
-72.3727
-72.39
-72.9532
0.096865
18.3297
-8.14359
-0.108626
-18.1508
-17.7923
-18.0666
-17.898
0.222913
3.67982
37.1552
-2.5973
-0.202029
600.252
0.177863
-2.55632
-148.759
-150.508
-149.534
-151.322
600.168
-0.213964
-2.33076
599.937
-0.523892
-2.03362
599.283
-1.19504
-1.37651
598.234
-1.36108
-1.31664
596.789
-1.42885
-0.92905
595.401
-0.851726
-0.530073
594.281
0.557446
-0.339333
592.579
2.14677
0.0321635
589.799
4.93379
1.10695
22.6095
4.56507
-288.671
59.1143
-2.10488
-288.96
62.9877
-1.56841
-71.5402
69.0812
-1.04164
-71.9894
-72.2034
-72.5989
0.704657
-0.00146259
8.14558
-0.61613
-18.0162
-17.7259
-17.9315
-17.7861
0.236656
-0.0341392
37.4374
0.857099
-0.223204
605.588
68.7011
-2.16902
-150.724
-151.082
-151.623
-152.029
605.967
66.5165
-1.32546
606.364
64.4478
-1.69861
606.646
61.9171
-2.17024
606.693
60.2046
-1.74123
606.802
59.5406
-0.594891
606.889
58.0287
0.159417
607.003
56.6165
0.0298407
606.549
55.9689
-0.327455
605.426
54.802
-0.249528
59.5395
1.86349
-294.504
133.583
-1.43876
-293.353
153.488
-1.93617
-71.8191
165.255
-2.12297
-72.0938
-72.5078
-72.8347
0.67099
-18.1654
28.1018
-0.526073
-18.0924
-17.8825
-18.0386
-17.9674
0.241074
-3.70001
37.691
4.99929
-0.216775
611.657
178.697
1.72641
-151.544
-151.416
-152.627
-152.704
614.571
171.377
-2.56449
616.128
162.395
-4.48279
616.147
156.545
-1.48822
616.106
148.097
2.80056
616.063
140.014
2.47239
615.047
132.967
-1.04633
615.019
126.049
-2.21675
615.126
120.875
-0.0457096
613.712
114.53
1.68641
110.344
3.18319
-282.638
202.256
-2.31575
-268.07
246.518
-1.55563
-64.7701
268.942
-0.225979
-53.0817
-65.6878
-53.658
-49.6332
0.745727
-60.8677
65.0758
-0.53269
0.287047
8.07652
-6.99097
33.9117
-0.388718
0.254766
3.65613
-2.58958
36.4977
-0.234924
0.217506
-0.0949209
0.937052
36.8621
-0.212016
0.186556
-3.82623
5.09008
37.2925
-0.174261
-8.29257
-12.2743
1.97656
122.992
132.918
-1.56303
-14.6875
-8.27981
-14.696
-17.4695
-12.585
-17.5711
576.95
350.301
-15.8781
-137.11
-120.568
-138.588
-122.982
589.292
292.973
-6.13486
600.083
267.692
7.71406
607.033
250.766
10.3875
610.804
235.647
2.86586
614.808
217.898
-6.3533
617.249
203.889
-6.52445
617.755
193.301
0.958761
619.611
182.239
5.59806
620.531
172.718
3.23774
160.29
1.84687
-238.439
251.579
-1.6706
-200.489
304.908
-2.66633
-175.689
327.03
-1.67841
-133.234
479.532
-3.34672
-90.6512
-116.14
-91.1577
-117.502
-71.1456
588.357
-2.93087
-144.707
-146.517
-146.302
-148.138
1.33245
593.507
-4.39301
-146.8
-148.654
-148.413
-150.304
71.8828
599.734
-3.22538
-148.96
-149.551
-150.652
-151.321
188.165
605.587
0.673037
-151.01
-152.028
-152.679
-153.748
332.731
582.096
-11.4479
-141.013
-129.01
-143.082
-130.209
467.754
492.834
-26.8186
522.898
394.571
24.7575
549.65
340.476
16.2673
573.628
322.968
-5.36149
584.13
305.366
-14.6927
591.166
285.07
-9.10639
601.454
267.822
5.93831
605.802
253.57
12.1142
609.241
238.174
7.30168
614.649
225.875
-1.63793
207.1
-0.0602192
-193.321
286.047
-1.04154
-146.002
340.189
-0.431383
-150.305
367.853
0.0823593
-130.537
511.345
0.306158
-70.4074
590.447
-3.62035
1.13141
592.6
-4.17266
69.2385
599.116
-2.5852
174.54
605.69
-3.70751
289.849
586.545
-7.1108
385.677
540.481
28.0554
451.28
472.899
33.1582
498.626
404.874
-18.8071
524.213
373.927
-26.4063
547.11
360.836
-8.73463
561.023
343.486
14.4499
572.299
322.17
22.3355
584.533
308.084
11.8181
592.76
287.328
-2.87839
599.877
273.633
-2.89893
251.158
3.46934
-162.452
306.812
-1.49425
-136.417
361.426
-1.41261
-152.107
411.058
1.6523
-131.96
529.539
1.70262
-67.4279
593.353
-3.82693
0.738258
591.797
-4.09055
66.561
598.755
-2.90639
162.389
606.809
-6.12471
264.71
592.13
6.16031
341.532
556.481
20.9955
399.48
516.695
-13.9258
441.64
455.181
-36.2995
480.307
411.998
-7.46863
508.323
396.699
24.2079
520.858
386.236
30.1399
537.082
366.668
15.5679
555.84
351.233
-4.73701
565.837
330.399
-8.01663
575.433
316.199
2.34738
292.559
6.94039
-139.62
323.564
1.05629
-116.86
378.558
1.11317
-147.669
439.622
3.06564
-127.873
538.002
0.255214
-64.4835
595.78
-3.40716
0.0157574
590.84
-3.57707
63.7167
598.79
-3.12616
155.01
606.424
-3.25283
244.882
596.95
10.0065
322.185
572.735
-1.95591
374.29
535.226
-21.5023
406.696
493.736
-3.88535
439.08
449.674
28.4328
475.049
425.99
37.889
499.596
415.601
17.7492
511.188
399.026
-3.22123
524.258
386.699
-8.93373
535.627
368.286
1.84407
548.976
356.114
14.0627
332.395
10.1382
-127.28
337.914
5.07248
-107.498
391.229
7.31772
-141.793
458.469
4.0067
-120.616
542.779
0.147733
-61.4584
596.836
-3.95709
-0.217804
589.618
-3.57264
61.561
598.789
-2.56991
146.828
605.803
1.02466
229.63
600.426
2.82986
300.521
580.084
-13.07
356.592
549.525
-6.76765
392.363
512.603
26.6694
418.662
481.509
41.1385
457.583
465.693
20.5819
482.222
446.668
-8.82847
487.726
429.1
-7.90559
495.815
416.038
3.84719
508.595
400.615
21.1195
523.23
393.189
20.219
367.615
9.60486
-114.906
345.481
5.67267
-99.3601
397.433
8.92222
-131.27
468.722
3.89375
-112.042
545.033
-0.173596
-58.9735
595.566
-0.984614
-0.636135
587.933
-2.99417
59.8428
598.51
-1.88449
138.453
605.558
0.955637
212.998
604.714
-6.54317
278.808
584.587
-9.27658
337.442
558.243
14.5138
379.851
520.648
31.4835
408.258
497.269
19.6598
436.974
482.448
-5.76085
466.077
471.692
-14.3536
476.878
452.982
2.00546
488.336
438.361
26.5441
496.44
426.911
29.278
508.363
422.052
15.1883
397.374
4.35957
-103.419
346.455
3.80704
-87.5047
395.262
7.31011
-115.44
470.196
5.01746
-102.121
544.047
0.521035
-56.8303
593.078
-2.39858
-0.277302
586.308
-2.62696
58.0302
598.428
-1.74176
131.084
604.768
-2.047
199.524
606.582
-6.95805
261.889
592.991
4.67257
315.622
567.549
21.5754
359.446
533.916
17.4122
392.11
507.196
0.344887
423.322
483.432
-7.36246
446.204
475.46
1.56837
464.815
467.268
29.102
481.434
458.343
37.9769
493.35
451.106
26.7982
498.989
442.439
8.9093
418.616
3.45907
-93.4481
346.676
3.08301
-75.9091
386.566
5.67009
-96.7688
463.475
6.10352
-88.4401
539.711
7.64593
-52.3627
587.623
-0.584092
1.14374
584.726
-2.45541
56.5102
598.26
-1.89312
124.399
604.738
-2.47337
189.255
606.804
-0.0310453
247.967
597.074
10.5301
301.529
578.641
11.4952
344.157
551.38
-2.62918
379.273
520.878
-6.70488
409.548
489.633
2.80904
431.347
480.076
23.1877
450.58
477.135
35.0445
472.82
475.108
30.5696
483.107
464.376
14.1852
485.457
451.606
8.33358
431.569
12.0659
-84.4887
348.875
3.89369
-64.6993
378.406
5.99598
-75.2609
450.573
4.36143
-73.9729
530.638
2.46233
-49.2066
578.083
0.178863
2.57095
582.451
-2.05342
55.5526
597.552
-2.01498
118.72
604.338
-0.854943
178.463
608.86
4.17539
232.912
600.7
5.94373
281.122
586.453
-1.65963
323.423
561.13
-6.04718
360.964
532.175
2.67141
394.036
503.243
20.0187
418.669
485.945
26.4761
440.719
482.032
21.8626
460.088
477.52
12.0187
467.865
463.991
7.69836
472.748
454.24
17.3588
443.188
24.8281
-80.2342
352.942
4.0162
-59.7643
376.308
5.53798
-46.6395
432.095
7.46503
-50.4029
506.511
8.41133
-39.866
563.981
3.02699
5.1452
579.252
-0.780464
54.3173
596.184
-1.52093
112.257
602.498
-0.113141
168.445
609.628
1.82711
221.007
605.755
-1.19633
268.589
593.329
-0.812464
311.245
570.844
4.12591
350.139
545.876
13.8694
385.068
518.055
20.4165
410.918
497.937
14.5081
429.565
485.407
6.67743
444.444
475.72
7.25512
453.943
462.665
15.2922
462.964
459.417
28.9369
452.089
28.7644
-77.0594
2.76466
-59.4795
4.16064
-34.3736
3.88499
-14.1726
8.43197
0.423696
6.83234
22.8699
3.43204
58.884
1.20065
108.321
1.45509
156.47
1.1365
202.813
1.06033
246.81
5.4453
287.978
8.71142
326.617
11.3602
359.826
11.7449
387.771
6.57887
409.383
4.84469
424.934
12.3856
438.994
22.8155
450.865
27.6504
24.9707
-126.478
-126.695
4.84186
-113.043
-134.892
8.74862
-131.363
-201.762
15.1949
-112.712
-273.935
4.37986
-57.6974
-300.747
0.815884
0.611428
-295.793
-0.19186
59.4228
-294.304
-1.0627
134.909
-299.803
-0.334746
203.573
-288.039
-1.03896
252.93
-243.632
0.732265
288.917
-196.141
2.79567
310.476
-165.988
2.75773
326.584
-141.634
4.09983
340.689
-127.518
8.02679
349.122
-115.366
8.17814
350.695
-103.856
5.39601
350.796
-94.5935
3.93581
352.381
-86.3368
4.10756
355.673
-81.2143
3.356
-77.8191
2.1802
-134.259
-110.879
9.70507
-176.415
-173.343
14.6964
-199.496
-236.723
12.7898
-146.401
-281.131
-0.413282
-61.4095
-295.077
-0.613197
0.618053
-296.282
-0.158605
63.7497
-294.874
-0.941363
154.732
-299.016
-0.781732
248.257
-273.807
0.251099
307.373
-208.335
-0.0301312
344.782
-148.85
5.51699
367.152
-136.753
4.3578
384.337
-118.922
5.89337
398.089
-108.037
12.0212
405.468
-99.5042
12.4425
404.398
-87.6931
9.34979
397.2
-76.6896
7.24657
387.851
-66.4623
6.96438
383.549
-59.785
5.051
-59.1977
3.14189
-197.407
-124.807
15.9577
-239.778
-200.312
13.564
-228.137
-228.206
-1.11342
-156.488
-68.3035
2.15931
-68.6333
-68.3412
-68.8854
-65.9491
-74.1578
0.505081
-73.5976
-74.2154
-73.7679
0.711223
-73.8071
0.267882
-73.9394
-74.0352
-74.3304
69.5128
-73.0351
-0.450014
-73.4466
-73.3132
-73.7245
165.98
-73.3944
-1.46257
-73.7515
-73.6063
-73.7175
272.575
-67.138
2.04454
-54.9946
-66.33
-54.1667
333.421
-183.294
0.370301
375.12
-154.049
4.1792
420.709
-150.956
8.23929
455.121
-151.417
7.08293
477.113
-147.268
6.30706
487.664
-137.205
5.97879
489.023
-120.959
6.0957
482.494
-101.078
6.96979
469.231
-79.811
5.04037
448.956
-49.1883
6.47057
-34.4459
2.88991
-269.142
-110.639
5.47124
-277.837
-148.033
-0.797774
-67.4693
-159.061
-1.24856
-68.1339
-67.8478
-68.2522
-0.982018
-60.3222
-61.1801
0.961443
-0.316478
-27.0937
0.660653
47.0893
-18.493
-19.0864
-18.5057
-19.0955
-0.390631
17.7558
-7.98658
0.231718
-18.4645
-18.4704
-18.4447
-18.5136
0.276804
-0.110035
8.29344
-0.353884
-18.3718
-18.0956
-18.3258
-18.1462
0.14636
-18.3967
28.4076
-0.164117
-18.5967
-18.2129
-18.5537
-18.263
-50.9725
-0.520168
64.842
-63.3989
0.92936
495.518
-136.624
1.78478
-91.8879
-117.055
-93.2004
-122.215
530.004
-133.754
2.60507
550.756
-132.922
4.32436
563.207
-130.911
4.42452
569.286
-124.676
3.63283
571.39
-115.948
3.09042
570.599
-106.358
2.02028
566.619
-92.5081
8.25221
558.225
-78.9187
4.84557
534.982
-57.045
8.47815
-17.3179
7.81977
-300.813
-60.0428
0.66893
-294.553
-64.1747
-1.36093
-72.6212
-68.9807
-0.451848
-73.0293
-73.3117
-73.5743
-0.307568
-28.5352
-0.376739
47.252
-17.7296
-17.5345
-17.6273
-17.5782
0.0505319
5.95507
31.6159
-7.69478
0.00203535
612.207
-71.3717
2.46593
-148.99
-151.31
-152.617
-154.298
615.1
-71.3549
2.03333
618.81
-69.2593
1.1847
622.34
-66.1233
1.16471
624.563
-63.1391
-0.4795
624.134
-60.5741
1.62824
622.246
-58.9198
0.787203
617.66
-55.1311
1.52057
608.643
-52.2084
1.91652
595.64
-45.4993
4.24775
-4.45276
7.25064
-295.895
-0.663032
-0.527721
-295.859
-0.414532
-1.00197
-73.209
0.21622
-0.532264
-73.5576
-73.6562
-73.7604
0.0719567
18.3763
-8.08309
-0.0828763
-18.5498
-18.2376
-18.4735
-18.2738
0.121732
3.7008
37.6679
-2.61071
-0.0768394
617.647
0.0803981
0.654829
-151.645
-153.516
-154.64
-156.471
618.389
-0.315353
0.687888
618.778
-0.442046
0.607633
618.627
-1.17452
0.798326
617.993
-1.46439
0.654703
616.789
-1.53676
0.632234
615.305
-1.43105
0.934152
614.12
-0.284132
1.13986
612.615
1.11194
1.3718
610.513
3.06832
2.35347
18.1915
5.53683
-294.254
58.5623
-1.18791
-294.688
63.6556
-1.04978
-73.0097
69.3511
-0.499736
-73.329
-73.2707
-73.6153
0.498554
-0.151106
8.34811
-0.387877
-18.3686
-18.0753
-18.3202
-18.108
0.139279
-0.0514178
38.0544
0.878041
-0.0925366
623.861
69.3071
1.41272
-153.909
-154.365
-156.871
-157.39
625.089
67.3686
2.16596
626.138
65.2091
1.94499
627.082
62.512
0.999961
627.312
60.3703
0.545025
627.708
59.5183
0.946653
628.08
58.4207
1.62247
628.323
56.4971
1.74465
628.092
55.7963
1.46604
627.385
54.2246
1.3321
57.3149
2.91802
-299.89
134.032
-0.539352
-298.901
153.559
-0.873736
-73.3869
165.315
-0.9947
-73.7994
-73.7602
-74.1888
0.43879
-18.4004
28.2959
-0.331798
-18.6329
-18.1923
-18.5413
-18.2442
0.101386
-3.71766
38.4265
5.01943
-0.0569439
630.992
181.636
5.37144
-155.251
-155.063
-158.255
-158.42
633.862
173.033
2.07213
635.619
162.961
-1.54896
636.17
156.75
-0.34439
637.243
149.758
4.0608
638.036
141.504
5.32559
637.098
134.451
2.08519
635.942
127.307
-0.882697
635.94
121.943
0.26157
634.749
115.896
2.20089
110.871
4.02579
-288.833
203.382
-0.92346
-274.682
246.685
0.710707
-67.2675
269.356
1.99235
-55.3384
-67.6634
-55.5146
-50.6338
0.878027
-63.2736
64.4222
0.00463055
0.313881
5.94622
-7.66856
31.3525
-0.264627
0.22927
3.64299
-2.55882
37.4071
-0.233384
0.209428
-0.118464
0.951987
37.8036
-0.201614
0.154873
-3.81547
5.08667
38.2293
-0.141054
-10.9632
-9.27958
1.3117
132.907
129.141
-1.00476
-16.0727
-10.9752
-16.1011
-16.1643
-9.60514
-16.3255
597.115
344.603
-5.74302
-143.683
-128.663
-144.227
-128.261
607.602
291.329
-6.36826
619.037
270.243
8.05896
628.399
252.824
14.9606
633.782
237.369
10.1334
636.229
221.083
-0.723908
637.559
205.73
-5.45238
638.44
196.012
-0.486678
640.682
184.968
6.69974
642.161
176.139
5.72395
162.465
3.36808
-245.205
253.25
-0.131967
-209.585
306.139
0.418757
-185.569
328.636
2.33863
-134.335
486.989
-0.68006
-91.1412
-115.766
-91.4688
-117.178
-69.5527
605.348
-1.74942
-147.528
-150.023
-149.469
-152.06
1.5053
611.08
-3.14586
-150.391
-152.328
-152.562
-154.457
71.9028
617.523
-1.89328
-152.726
-153.342
-154.848
-155.519
187.163
625.507
2.16344
-154.555
-155.66
-156.727
-157.436
340.651
593.095
-8.22273
-141.296
-126.872
-145.166
-131.446
480.53
486.568
-30.6681
546.014
398.393
22.8749
570.951
348.831
28.5545
592.532
323.661
8.27471
603.466
305.052
-8.74788
608.806
286.216
-9.00623
620.29
271.356
3.78262
628.669
258.144
13.969
631.591
243.37
12.4915
635.213
230.565
1.75391
210.357
0.65104
-197.639
288.574
1.33339
-148.118
342.877
1.28716
-156.933
369.811
0.836797
-133.112
523.112
0.0874251
-69.6433
608.619
-2.31763
1.5553
611.665
-2.9732
70.1048
618.371
-1.11774
176.314
626.666
-0.900291
290.928
601.899
-9.61529
396.715
551.256
26.4369
473.14
480.543
47.9883
518.828
413.952
2.81414
538.536
372.954
-21.4784
558.864
357.987
-11.5685
580.701
347.775
10.15
596.068
329.172
24.7349
607.871
313.938
20.6461
614.824
293.319
2.19527
619.931
278.811
-3.13093
256.236
3.39853
-167.196
309.383
0.670353
-138.604
364.779
2.08594
-152.813
416.365
2.20668
-132.575
544.394
1.6407
-67.6304
612.156
-2.98084
1.29981
611.937
-2.98187
67.4506
618.833
-1.197
164.047
627.588
-4.58898
268.941
611.164
3.11527
352.032
572.665
24.817
414.113
528.437
2.92925
454.273
462.647
-36.2299
487.066
411.654
-17.3669
522.122
395.741
21.9377
541.569
389.64
33.7411
558.616
372.057
26.0265
577.094
357.141
2.08169
585.699
335.131
-9.28803
596.122
323.145
2.11471
298.306
9.18975
-143.087
325.75
0.415334
-120.984
383.248
1.28533
-152.598
450.904
3.93733
-130.428
556.677
0.750932
-64.6243
615.443
-2.63429
0.508456
611.723
-2.81238
64.5111
619.519
-1.84629
156.809
627.667
-3.55494
249.934
619.356
9.76377
327.566
591.176
5.24288
379.333
546.553
-21.4891
412.407
498.977
-15.9337
448.884
455.412
25.6497
481.751
423.289
41.8924
512.172
415.64
25.8292
529.15
401.988
0.265538
541.505
389.816
-10.7041
556.243
373.674
-0.1491
570.34
361.738
16.7537
337.75
13.3731
-129.773
340.437
3.05845
-111.173
398.196
5.19933
-148.672
473.586
3.71475
-124.634
563.007
0.216807
-61.7268
617.598
-3.85641
0.271835
611.041
-2.86001
62.0526
620.187
-2.24134
149.258
628.089
0.648162
233.951
624.289
5.31177
305.033
599.437
-11.4393
361.454
562.633
-13.3263
399.307
530.818
22.9171
423.039
490.106
44.3741
457.361
462.337
25.7445
488.84
447.079
-5.81125
496.986
426.717
-11.3754
510.94
417.485
0.58113
527.144
405.012
21.6542
539.456
398.173
23.196
373.202
10.7479
-117.667
349.491
4.15055
-103.131
406.573
6.32842
-139.645
485.425
2.14101
-116.019
565.431
-0.264961
-58.8152
617.421
-1.62718
-0.0503378
609.766
-2.65002
60.643
620.373
-1.91767
140.918
628.701
1.92161
217.407
626.242
-4.30553
283.553
602.626
-12.1086
346.49
579.199
6.95838
390.858
544.665
31.6458
416.167
515.52