/*--------------------------------*- C++ -*----------------------------------*\
  =========                 |
  \\      /  F ield         | OpenFOAM: The Open Source CFD Toolbox
   \\    /   O peration     | Website:  https://openfoam.org
    \\  /    A nd           | Version:  9
     \\/     M anipulation  |
\*---------------------------------------------------------------------------*/
FoamFile
{
    format      ascii;
    class       volScalarField;
    location    "0.0075";
    object      rho;
}
// * * * * * * * * * * * * * * * * * * * * * * * * * * * * * * * * * * * * * //

dimensions      [1 -3 0 0 0 0 0];

internalField   nonuniform List<scalar> 
9720
(
4.20108
3.75344
3.40122
2.50654
2.26212
2.30981
2.29677
2.0464
1.70642
1.40101
1.14717
1.0103
0.956362
0.970707
1.02505
1.12851
1.26675
1.40775
1.5402
1.74057
3.73363
3.60707
2.16848
1.53857
1.90704
2.22813
2.24233
1.91568
1.36755
0.937985
0.677392
0.599653
0.614029
0.662218
0.753475
0.890361
1.06752
1.25291
1.41945
1.6589
3.4263
2.19724
1.31126
1.1914
1.8572
2.22271
2.24076
1.8697
1.10987
0.629531
0.465836
0.469944
0.508598
0.578047
0.677036
0.810664
0.978049
1.19062
1.41275
1.69013
2.51358
1.53196
1.18084
0.981667
1.49836
2.19924
2.33118
2.06761
1.04889
0.306025
0.329275
0.368911
0.41788
0.472603
0.533143
0.603574
0.694816
0.843339
1.07166
1.49361
2.22217
1.84345
1.79619
1.48932
0.241268
0.410137
0.444319
0.466513
0.482462
0.498605
0.519097
0.547932
0.589833
0.6534
0.747042
1.08695
2.24792
2.15937
2.16896
2.14027
0.533313
0.548457
0.540397
0.533091
0.531813
0.533581
0.537784
0.54486
0.555346
0.570619
0.599672
0.78276
2.22915
2.17206
2.1862
2.27733
0.578306
0.545572
0.539646
0.533599
0.529932
0.528057
0.52851
0.530568
0.534327
0.541915
0.554712
0.640807
1.97965
1.85036
1.80761
2.00745
0.488546
0.381259
0.398882
0.412031
0.422703
0.43174
0.439822
0.448508
0.458291
0.470022
0.483143
0.537012
1.64481
1.30725
1.05006
0.945882
0.243541
0.507476
0.551078
0.462442
0.0598124
0.101292
0.16349
0.220534
0.264065
0.29799
0.326575
0.351488
0.374313
0.393753
0.41001
0.457002
1.34975
0.893642
0.596659
0.29377
0.391625
0.520254
0.517092
0.366172
0.109009
0.0429914
0.0569658
0.0895
0.132535
0.179952
0.224901
0.263237
0.293888
0.321278
0.34298
0.392218
1.10935
0.650837
0.449075
0.317757
0.424036
0.512305
0.511427
0.384232
0.171746
0.0607091
0.038245
0.0443225
0.065071
0.101133
0.144934
0.18395
0.21712
0.253264
0.2835
0.336206
0.97918
0.58232
0.455991
0.357469
0.444368
0.505747
0.506205
0.397595
0.226545
0.0969538
0.0466541
0.0410066
0.0451835
0.0599392
0.0865039
0.119042
0.154579
0.195546
0.229328
0.281507
0.92475
0.595749
0.497814
0.406628
0.459704
0.505598
0.50323
0.408699
0.267849
0.141092
0.0711674
0.0473117
0.0417366
0.0430582
0.0533943
0.0771867
0.110358
0.148723
0.17962
0.229765
0.938546
0.640456
0.564796
0.460504
0.475314
0.507586
0.503538
0.41805
0.299181
0.187951
0.109896
0.0662969
0.0452664
0.043054
0.0463831
0.0585659
0.081975
0.111707
0.138955
0.188095
0.99315
0.726307
0.655241
0.516322
0.49581
0.512704
0.505242
0.426599
0.32579
0.231476
0.15389
0.0960381
0.0597026
0.0480941
0.0491313
0.0548289
0.0649111
0.0828338
0.105917
0.154471
1.09905
0.857779
0.776644
0.582142
0.524704
0.521247
0.508761
0.436216
0.349772
0.267527
0.19233
0.129875
0.0862644
0.0642254
0.0569466
0.0579739
0.062177
0.0719453
0.0887274
0.132193
1.2421
1.03584
0.933859
0.667574
0.566159
0.533751
0.514894
0.447309
0.371049
0.29665
0.225001
0.165244
0.119938
0.090526
0.0716667
0.064596
0.0657521
0.0737984
0.0877272
0.11984
1.38772
1.22734
1.13975
0.803875
0.629076
0.551639
0.52531
0.460374
0.389975
0.323489
0.260771
0.205239
0.157548
0.121256
0.0939888
0.0775718
0.0773624
0.0825513
0.0911977
0.111944
1.51959
1.39655
1.3633
1.02034
0.721577
0.582141
0.540466
0.474639
0.407237
0.345358
0.289907
0.237514
0.188252
0.149512
0.11875
0.0983197
0.0927951
0.0940711
0.0968633
0.112601
1.7123
1.63136
1.64831
1.43698
1.05194
0.765521
0.631945
0.531679
0.45754
0.395895
0.341877
0.289388
0.240088
0.200578
0.168006
0.144232
0.128993
0.117774
0.116523
0.12506
4.17849
3.71861
3.24714
2.3863
2.1958
2.28445
2.27757
2.02314
1.67691
1.37275
1.11522
0.977109
0.924172
0.936124
0.985506
1.0842
1.22362
1.37085
1.50707
1.71171
3.69363
3.46622
1.96855
1.46625
1.91108
2.22968
2.23494
1.90133
1.34149
0.911438
0.650362
0.571976
0.585186
0.62853
0.712626
0.841186
1.01272
1.20185
1.37392
1.62362
3.28829
1.99908
1.24939
1.15441
1.88703
2.2343
2.23759
1.85764
1.0822
0.599986
0.442926
0.444994
0.479133
0.543942
0.636843
0.763496
0.920807
1.1248
1.3463
1.64018
2.40234
1.45348
1.13217
0.93072
1.5733
2.1876
2.31853
2.0539
1.04224
0.291352
0.313703
0.350529
0.394288
0.442776
0.499037
0.564709
0.648646
0.782738
0.998054
1.4205
2.15618
1.82263
1.77999
1.42445
0.240328
0.401387
0.432806
0.452915
0.46527
0.477973
0.494411
0.518924
0.555851
0.612727
0.696133
1.0118
2.21364
2.14649
2.16333
2.12925
0.520429
0.539152
0.528868
0.520816
0.51434
0.514303
0.515903
0.520493
0.528521
0.540957
0.564558
0.725136
2.20341
2.15892
2.17884
2.26034
0.56442
0.535549
0.527238
0.519069
0.513506
0.509358
0.506257
0.506993
0.50952
0.515517
0.526102
0.599288
1.95693
1.84092
1.80297
1.99792
0.476176
0.372212
0.388109
0.400261
0.409138
0.414443
0.419074
0.426362
0.436389
0.447441
0.458294
0.502667
1.61792
1.29054
1.03593
0.9624
0.237856
0.494412
0.536324
0.447286
0.0590572
0.0966201
0.157302
0.211502
0.251305
0.281086
0.308465
0.333946
0.355358
0.371696
0.385152
0.426489
1.32014
0.872302
0.574789
0.282451
0.384984
0.51448
0.510049
0.358125
0.104104
0.0397496
0.0527502
0.0823571
0.121549
0.167145
0.211232
0.24676
0.273573
0.297494
0.318985
0.366094
1.07195
0.622397
0.428593
0.304697
0.415529
0.505322
0.503131
0.375027
0.164516
0.0556708
0.0335123
0.038712
0.0591949
0.0933353
0.133258
0.167885
0.196461
0.230547
0.261267
0.311866
0.938912
0.550513
0.431969
0.340667
0.434919
0.498369
0.496494
0.387841
0.21614
0.0882961
0.0405923
0.0374191
0.0416687
0.0549396
0.0774109
0.10463
0.136473
0.175577
0.208447
0.258373
0.889608
0.562956
0.465912
0.383943
0.447114
0.492989
0.491838
0.397399
0.254346
0.128419
0.0636488
0.0431251
0.0372729
0.0382792
0.0462097
0.0664843
0.0963125
0.131563
0.160982
0.208557
0.903037
0.604304
0.526076
0.43062
0.459322
0.493215
0.488276
0.403127
0.282907
0.173596
0.0998473
0.0592252
0.0396832
0.0371265
0.0400123
0.0510422
0.0717559
0.0987702
0.123666
0.168825
0.954236
0.68505
0.611062
0.482336
0.475069
0.495524
0.488021
0.408809
0.309093
0.216815
0.140259
0.0844375
0.0506017
0.041107
0.0422723
0.0473298
0.0566656
0.0735263
0.0941504
0.138162
1.05442
0.810043
0.728142
0.542881
0.498486
0.501041
0.489353
0.417346
0.333906
0.251322
0.175318
0.113715
0.0734832
0.0549701
0.0488111
0.0496739
0.0535386
0.0620181
0.0770772
0.116646
1.19518
0.982568
0.878672
0.620512
0.533782
0.51036
0.493219
0.428074
0.354337
0.277994
0.204974
0.146697
0.104678
0.0782669
0.0614434
0.0552925
0.0563208
0.0630245
0.0744226
0.104243
1.34244
1.17445
1.07926
0.743941
0.588745
0.524273
0.501059
0.439451
0.370533
0.302618
0.239759
0.185711
0.140251
0.10659
0.0815562
0.0664757
0.0657302
0.0693623
0.0767794
0.0969697
1.47508
1.344
1.29974
0.949421
0.670218
0.548243
0.513148
0.450993
0.384992
0.324272
0.269579
0.217626
0.170027
0.132839
0.104035
0.0848149
0.0787013
0.0795679
0.0823376
0.0976302
1.66883
1.58432
1.59474
1.36708
0.977957
0.707779
0.589879
0.497953
0.428667
0.3718
0.319337
0.267931
0.219917
0.181089
0.150379
0.127556
0.112852
0.103206
0.101775
0.109726
4.2671
3.81739
3.17538
2.29286
2.14799
2.28879
2.28062
2.01572
1.66576
1.3652
1.10196
0.957745
0.904584
0.915455
0.961809
1.05665
1.19651
1.3517
1.49461
1.70768
3.77615
3.39862
1.79434
1.42001
1.91901
2.24499
2.23779
1.89001
1.32366
0.899521
0.637955
0.554782
0.5672
0.608365
0.687989
0.810665
0.978054
1.17476
1.35304
1.61866
3.19687
1.8003
1.2088
1.14378
1.89552
2.24494
2.23247
1.83902
1.05299
0.582233
0.432799
0.433161
0.462547
0.524356
0.614426
0.738221
0.890647
1.08972
1.3183
1.63809
2.28213
1.37279
1.09823
0.899193
1.58231
2.19895
2.32276
2.04516
1.0023
0.281642
0.30476
0.342448
0.383459
0.427844
0.480882
0.5428
0.622535
0.744347
0.951108
1.39166
2.08997
1.81814
1.78411
1.41114
0.222326
0.390731
0.420159
0.442372
0.455119
0.466575
0.481535
0.503849
0.538661
0.59137
0.666717
0.96431
2.19877
2.14727
2.15528
2.12703
0.514337
0.529269
0.519081
0.511273
0.505421
0.505745
0.507989
0.51315
0.521247
0.532439
0.550956
0.690682
2.1983
2.16385
2.16875
2.25513
0.55761
0.524679
0.516478
0.508642
0.503605
0.500729
0.499222
0.50028
0.50346
0.509562
0.519114
0.5811
1.95243
1.84243
1.79979
1.992
0.467881
0.363456
0.379076
0.392011
0.400888
0.40602
0.411171
0.419251
0.430565
0.442568
0.453158
0.490656
1.60869
1.29135
1.0421
0.986584
0.216203
0.497689
0.538513
0.448262
0.0548752
0.0942122
0.152846
0.204297
0.243248
0.272203
0.299596
0.326137
0.347848
0.365011
0.378192
0.416755
1.30722
0.864874
0.564019
0.269294
0.378527
0.516576
0.510429
0.35283
0.0961489
0.0360748
0.0486409
0.0774181
0.115065
0.158881
0.202162
0.236162
0.262808
0.287781
0.310558
0.357919
1.04998
0.609342
0.418646
0.290279
0.407374
0.506443
0.502444
0.369429
0.15495
0.0498965
0.0298037
0.034587
0.0540984
0.0860407
0.122822
0.157061
0.185632
0.219619
0.251815
0.303496
0.907744
0.525975
0.414839
0.326128
0.429248
0.498514
0.495356
0.383088
0.206396
0.0807696
0.0356352
0.0331257
0.037174
0.0494427
0.0705577
0.0960144
0.125782
0.163842
0.197198
0.249391
0.861072
0.536895
0.441612
0.366462
0.441873
0.492405
0.490657
0.392955
0.245718
0.119446
0.0567357
0.0379772
0.0334459
0.0350153
0.0418899
0.0592127
0.0862073
0.119517
0.149911
0.19951
0.875101
0.576687
0.49888
0.409298
0.452661
0.492576
0.487745
0.399206
0.274971
0.163701
0.0902471
0.0520255
0.0358378
0.0336005
0.0355606
0.0447479
0.0628621
0.0888784
0.113721
0.158802
0.924089
0.655562
0.583032
0.459239
0.466185
0.49484
0.487801
0.405311
0.302489
0.207696
0.128735
0.0756173
0.0448945
0.0363242
0.0372659
0.041269
0.0504119
0.0667959
0.0854329
0.127332
1.02017
0.777536
0.701356
0.51744
0.486159
0.499949
0.489017
0.41412
0.3292
0.243192
0.164705
0.103706
0.064958
0.0479929
0.0425914
0.0435169
0.0471022
0.0538203
0.0666726
0.104611
1.16024
0.9456
0.850548
0.591894
0.518487
0.508498
0.492695
0.425844
0.351098
0.270865
0.195283
0.135823
0.0943654
0.0691266
0.0545829
0.0486042
0.0489423
0.0536365
0.0631003
0.0925613
1.3146
1.14391
1.0486
0.704239
0.56834
0.520279
0.499693
0.438116
0.36809
0.296519
0.230797
0.174951
0.129384
0.0969725
0.0735868
0.0579914
0.0557095
0.0583802
0.0656909
0.0866807
1.45382
1.31901
1.2783
0.901444
0.641652
0.538168
0.51001
0.4492
0.381573
0.319206
0.262569
0.208419
0.16042
0.122989
0.0942033
0.0738049
0.0671288
0.0683235
0.0720703
0.0875019
1.65877
1.57734
1.59875
1.34294
0.933058
0.674389
0.573594
0.488413
0.421201
0.3663
0.314022
0.261462
0.211893
0.171182
0.139353
0.115396
0.101188
0.0928827
0.0912608
0.0986948
4.3551
3.91221
3.07669
2.20561
2.11385
2.28817
2.27767
2.00619
1.64662
1.34985
1.08649
0.936238
0.887834
0.901016
0.947553
1.0399
1.1781
1.33869
1.48704
1.7052
3.87528
3.24037
1.64285
1.38308
1.91549
2.24725
2.23871
1.88469
1.30803
0.881822
0.625233
0.534294
0.546286
0.588032
0.667011
0.788001
0.950482
1.15
1.33474
1.61136
3.082
1.63077
1.19104
1.12891
1.8772
2.2467
2.23326
1.832
1.03898
0.560994
0.416152
0.417008
0.441349
0.498626
0.586525
0.710243
0.863368
1.05776
1.28689
1.62803
2.15844
1.32322
1.09543
0.903491
1.52028
2.20417
2.32828
2.04028
0.941615
0.264607
0.287247
0.326324
0.366938
0.408596
0.457994
0.515126
0.589682
0.7
0.892565
1.34772
2.02968
1.82643
1.80706
1.46009
0.248235
0.37761
0.407043
0.431697
0.445678
0.455196
0.467477
0.485795
0.515836
0.562229
0.627964
0.902997
2.18386
2.14591
2.15436
2.11268
0.500796
0.518201
0.509638
0.502537
0.496307
0.496326
0.497912
0.502004
0.508991
0.517866
0.531027
0.646996
2.18793
2.15925
2.1596
2.24859
0.542934
0.513965
0.507201
0.500457
0.494833
0.492204
0.490227
0.49053
0.49259
0.497165
0.50457
0.553745
1.93922
1.83249
1.78479
1.98035
0.454728
0.351506
0.368055
0.381591
0.391069
0.396507
0.401455
0.408562
0.418376
0.429667
0.440224
0.471243
1.5956
1.2797
1.02303
0.94853
0.220684
0.494629
0.536465
0.445206
0.0504369
0.0859577
0.141387
0.191847
0.232147
0.262606
0.289077
0.3139
0.33558
0.355324
0.368899
0.401516
1.30075
0.858146
0.550418
0.258256
0.372274
0.513036
0.507414
0.348899
0.0927765
0.0326957
0.0434874
0.0704218
0.107584
0.149009
0.190192
0.224658
0.251755
0.278375
0.300574
0.343785
1.04449
0.60642
0.40775
0.279503
0.400971
0.503807
0.500253
0.36643
0.150824
0.0460499
0.0263458
0.0306984
0.0481821
0.0776881
0.111831
0.145138
0.175837
0.209397
0.240021
0.291054
0.891136
0.511116
0.402894
0.317513
0.42483
0.496094
0.493737
0.380177
0.202694
0.0761712
0.0316321
0.0293363
0.0325798
0.043391
0.0624189
0.0881038
0.117902
0.15348
0.185688
0.238831
0.839928
0.519925
0.425706
0.356683
0.43841
0.489289
0.488827
0.3903
0.242268
0.114987
0.0508218
0.0332561
0.0303178
0.0318891
0.0387471
0.0546113
0.0788598
0.109115
0.138531
0.190372
0.853969
0.558162
0.479449
0.396322
0.447491
0.489026
0.48582
0.396789
0.271477
0.1569
0.0824153
0.0456317
0.0323996
0.0319544
0.0333625
0.0407358
0.0561188
0.0789953
0.10372
0.150978
0.899719
0.633087
0.560776
0.44268
0.459358
0.490728
0.484805
0.402691
0.296959
0.198956
0.119373
0.0670628
0.0408887
0.0339376
0.0345191
0.0372838
0.0447698
0.0598222
0.0786379
0.120081
0.990262
0.748904
0.675481
0.496697
0.476099
0.495027
0.485576
0.410438
0.321599
0.235187
0.154986
0.0950992
0.0590382
0.0431897
0.0382946
0.038759
0.0412572
0.0478071
0.0603231
0.0962587
1.12718
0.906281
0.82014
0.566267
0.503955
0.502809
0.488443
0.420815
0.343794
0.26337
0.186585
0.126468
0.0854716
0.0613841
0.0482771
0.0425854
0.0429364
0.0472342
0.0550853
0.0825448
1.29038
1.10686
1.00681
0.665279
0.547684
0.512767
0.494062
0.43278
0.363481
0.289735
0.220351
0.163211
0.118234
0.0868037
0.0658413
0.0515767
0.0485928
0.0507354
0.05674
0.0765742
1.44074
1.29517
1.23671
0.840535
0.61063
0.525667
0.502374
0.44364
0.376531
0.311217
0.250808
0.196266
0.148877
0.112401
0.086013
0.0659751
0.0581415
0.0588256
0.0621826
0.0776486
1.65852
1.57473
1.58953
1.29105
0.873841
0.637175
0.552686
0.475713
0.40936
0.353665
0.301721
0.249867
0.200846
0.160669
0.129213
0.10456
0.0898269
0.081789
0.0814205
0.0894257
4.41295
3.986
3.00523
2.1449
2.0951
2.28804
2.28124
2.00399
1.63586
1.33813
1.07556
0.918972
0.878311
0.895914
0.945549
1.03843
1.17683
1.34204
1.4927
1.70838
3.95078
3.11741
1.55979
1.35886
1.93319
2.25419
2.24442
1.88591
1.29779
0.86927
0.617498
0.517999
0.529482
0.574433
0.657341
0.779384
0.939609
1.1405
1.32732
1.60743
3.01683
1.53988
1.17374
1.12263
1.90261
2.25585
2.23839
1.83303
1.02821
0.547586
0.407216
0.404803
0.426052
0.479422
0.565312
0.688047
0.841546
1.03458
1.26264
1.61698
2.0971
1.29407
1.07006
0.888689
1.53634
2.20383
2.33094
2.04164
0.958079
0.255448
0.277216
0.316216
0.356591
0.396257
0.442964
0.496988
0.566159
0.667483
0.846656
1.30645
2.00194
1.81371
1.78534
1.43924
0.208404
0.369642
0.398856
0.424523
0.439912
0.448676
0.459737
0.475641
0.50187
0.543465
0.601721
0.856967
2.1739
2.13947
2.15249
2.10597
0.494443
0.512962
0.503646
0.496297
0.490286
0.489632
0.490798
0.49389
0.499839
0.507003
0.516722
0.615971
2.17994
2.15348
2.15822
2.24158
0.536354
0.508866
0.501457
0.494711
0.489705
0.48699
0.484258
0.484142
0.485108
0.487921
0.493382
0.533688
1.92794
1.82359
1.776
1.972
0.44919
0.344992
0.361853
0.375484
0.385222
0.390428
0.394724
0.401266
0.410292
0.420967
0.430878
0.456829
1.5829
1.26453
1.00328
0.929308
0.212822
0.490936
0.533122
0.440445
0.0488455
0.0821542
0.134791
0.185446
0.226725
0.256624
0.282009
0.305326
0.326937
0.348077
0.361461
0.389781
1.29324
0.84774
0.537396
0.251158
0.369959
0.510765
0.504908
0.34634
0.0914636
0.0305365
0.04171
0.0678427
0.10366
0.143048
0.181874
0.218273
0.247821
0.272652
0.292629
0.332174
1.03868
0.600691
0.397825
0.273085
0.398107
0.501633
0.498722
0.363993
0.147168
0.0444165
0.0249899
0.0285477
0.0441814
0.0717286
0.107003
0.143184
0.172984
0.20295
0.231319
0.281099
0.884723
0.504181
0.397106
0.312254
0.422475
0.494105
0.49291
0.376715
0.198726
0.0745307
0.0296882
0.0273459
0.0299605
0.0413287
0.0614352
0.0868297
0.114808
0.147144
0.178798
0.232113
0.833545
0.512338
0.418211
0.351889
0.437201
0.487418
0.487545
0.386938
0.239802
0.113111
0.0473363
0.0306609
0.0307065
0.0324329
0.0389277
0.0531837
0.0745922
0.103942
0.134514
0.185682
0.846632
0.549448
0.470205
0.390759
0.445952
0.486919
0.484433
0.395627
0.269663
0.153523
0.0772233
0.0435836
0.0331452
0.0325858
0.033188
0.0384516
0.0522606
0.0764437
0.101333
0.147543
0.89071
0.623242
0.55098
0.436207
0.457117
0.488514
0.483635
0.402072
0.294381
0.192794
0.114724
0.0655887
0.0409478
0.0336494
0.033451
0.0358328
0.0441348
0.0598127
0.0781108
0.117433
0.97777
0.737024
0.664314
0.488591
0.472751
0.49235
0.484269
0.408323
0.316405
0.229568
0.152162
0.0928815
0.0571915
0.0406792
0.0366524
0.0380331
0.0417384
0.0483427
0.0591878
0.0920094
1.11087
0.888555
0.807405
0.555517
0.498305
0.49954
0.486299
0.416627
0.337856
0.259663
0.183283
0.122599
0.0808208
0.0569116
0.0469724
0.0427314
0.0429511
0.0451381
0.0511672
0.0766969
1.27632
1.08478
0.986387
0.649417
0.539263
0.508699
0.490529
0.427842
0.36033
0.285974
0.214599
0.156413
0.11222
0.08291
0.0644626
0.0510871
0.0460461
0.0472555
0.0522791
0.0718823
1.43415
1.28046
1.20901
0.810241
0.596816
0.51949
0.497405
0.439386
0.37426
0.306253
0.242809
0.188435
0.14286
0.107847
0.0833747
0.0633744
0.0532673
0.0537136
0.0572608
0.0732857
1.66032
1.57138
1.57685
1.25407
0.839445
0.617073
0.540303
0.468894
0.403169
0.344884
0.291985
0.241645
0.193708
0.154374
0.123877
0.0983058
0.0824504
0.0759839
0.0764888
0.0851398
4.41496
3.98388
2.98597
2.13291
2.09661
2.29415
2.28503
2.00565
1.63582
1.33692
1.07483
0.914961
0.875032
0.895163
0.947603
1.04227
1.18204
1.34853
1.49921
1.71429
3.95706
3.10604
1.55007
1.3532
1.94563
2.26442
2.24973
1.88785
1.2974
0.869114
0.619379
0.516538
0.526284
0.571869
0.657056
0.780875
0.9435
1.14727
1.33449
1.61386
3.02523
1.52907
1.16642
1.11743
1.92487
2.26785
2.24431
1.83482
1.0271
0.547099
0.408914
0.405321
0.426089
0.478795
0.564514
0.687767
0.842208
1.03809
1.27135
1.62635
2.09626
1.28608
1.05818
0.876921
1.59424
2.20992
2.33461
2.04627
0.948013
0.254896
0.277238
0.31668
0.356932
0.395841
0.442001
0.495519
0.565423
0.667371
0.849951
1.31551
1.99657
1.80462
1.77323
1.3923
0.204548
0.366327
0.395824
0.421986
0.437105
0.445759
0.456499
0.472798
0.499677
0.541828
0.600319
0.859306
2.1705
2.13477
2.14972
2.10698
0.490152
0.509571
0.500783
0.493456
0.486799
0.486139
0.487502
0.490958
0.497451
0.505209
0.51531
0.615251
2.17557
2.14938
2.15614
2.24016
0.532554
0.506211
0.499383
0.492859
0.487216
0.484238
0.481816
0.481904
0.483087
0.48641
0.492287
0.532866
1.92422
1.82075
1.77466
1.9677
0.445
0.345518
0.361874
0.374455
0.383676
0.390592
0.395668
0.401322
0.409671
0.420279
0.43009
0.455706
1.57873
1.26386
1.00702
0.953177
0.197589
0.492144
0.533778
0.441031
0.047624
0.0841146
0.137026
0.187449
0.228095
0.257471
0.282852
0.305451
0.326439
0.348028
0.361595
0.389146
1.2907
0.84718
0.538554
0.2497
0.370932
0.514753
0.508481
0.346792
0.0887912
0.030197
0.0419956
0.0687531
0.104499
0.143357
0.182161
0.218239
0.247146
0.271993
0.29221
0.331249
1.03673
0.600352
0.396813
0.271879
0.400267
0.505933
0.501665
0.364358
0.144298
0.0436544
0.0248654
0.0285911
0.0442289
0.0720683
0.107278
0.142688
0.171977
0.201975
0.230433
0.279682
0.885529
0.505109
0.397818
0.311538
0.425681
0.498538
0.495445
0.378683
0.196289
0.0733796
0.0295706
0.0268246
0.0295363
0.0408578
0.0606822
0.0856126
0.113201
0.145761
0.177549
0.230213
0.8352
0.513249
0.419854
0.352335
0.440608
0.491789
0.490341
0.389339
0.238032
0.11166
0.0471233
0.0303763
0.0298934
0.0314499
0.0378993
0.05185
0.0734788
0.103134
0.132925
0.183594
0.848523
0.550724
0.472628
0.392628
0.449885
0.491104
0.487514
0.395825
0.267992
0.152181
0.0770163
0.0433403
0.0322186
0.0315682
0.0322572
0.0379898
0.0524549
0.0755665
0.0997949
0.145655
0.892728
0.625069
0.553609
0.439043
0.460882
0.492644
0.486379
0.40099
0.293509
0.192342
0.113984
0.0650116
0.0401478
0.0327782
0.0329059
0.0357704
0.043668
0.0584265
0.0764829
0.11572
0.979632
0.739094
0.667824
0.492583
0.476569
0.496355
0.48687
0.408113
0.317218
0.228681
0.150908
0.0919684
0.0561778
0.0403668
0.0365987
0.03763
0.0404888
0.046568
0.057483
0.0905627
1.11249
0.890459
0.810305
0.558154
0.502297
0.503392
0.48903
0.418023
0.338413
0.257898
0.182036
0.121648
0.0803157
0.0571337
0.046364
0.0414279
0.0415697
0.04417
0.0503208
0.0750937
1.27644
1.08571
0.991008
0.652826
0.543303
0.512377
0.493495
0.429513
0.358233
0.283674
0.213559
0.156043
0.111616
0.0818009
0.0631335
0.0495856
0.0451165
0.0465998
0.0516582
0.0706208
1.43285
1.28009
1.21066
0.813711
0.600589
0.522893
0.500344
0.440055
0.371773
0.304701
0.242441
0.187845
0.141489
0.106737
0.082434
0.0623433
0.0524572
0.0529977
0.0564241
0.0723086
1.65851
1.56943
1.5716
1.24948
0.83861
0.618103
0.542163
0.468345
0.402421
0.34504
0.291646
0.24071
0.192954
0.154208
0.123529
0.0977799
0.0813766
0.0747774
0.0755441
0.0847165
4.36098
3.91341
3.04292
2.18242
2.11721
2.2991
2.28842
2.00946
1.64173
1.34363
1.08165
0.926956
0.885227
0.902347
0.953156
1.04917
1.18991
1.35297
1.50178
1.717
3.886
3.2255
1.62438
1.37512
1.95301
2.26868
2.25199
1.89078
1.30358
0.878005
0.623624
0.527631
0.539656
0.585003
0.668668
0.793582
0.960297
1.16265
1.3476
1.62275
3.09638
1.61536
1.17751
1.13289
1.93444
2.27016
2.24555
1.83907
1.0341
0.558855
0.41447
0.413142
0.436338
0.493891
0.583846
0.71023
0.866423
1.06576
1.30089
1.64094
2.15894
1.30718
1.06768
0.884232
1.60776
2.21407
2.33862
2.05195
0.950908
0.261126
0.284134
0.323539
0.364255
0.405916
0.455529
0.512696
0.588279
0.700248
0.898313
1.36142
2.01722
1.7989
1.7708
1.39356
0.208404
0.370106
0.400745
0.426094
0.440294
0.449747
0.462316
0.48112
0.511547
0.558093
0.624071
0.905333
2.17208
2.13291
2.14952
2.11014
0.489918
0.5119
0.502972
0.49554
0.489172
0.489292
0.491148
0.495637
0.503052
0.512168
0.525395
0.642725
2.17674
2.15012
2.15886
2.24209
0.532462
0.507642
0.501031
0.494696
0.489317
0.486467
0.485661
0.486498
0.489081
0.493695
0.500713
0.549021
1.92643
1.82249
1.77784
1.97302
0.44528
0.34919
0.36522
0.377893
0.387812
0.394518
0.400279
0.407406
0.416921
0.428285
0.438682
0.468327
1.58206
1.26459
1.00593
0.923318
0.217277
0.496938
0.53868
0.447002
0.0483386
0.0878343
0.143386
0.193903
0.233603
0.262962
0.288478
0.312865
0.334661
0.354717
0.367927
0.398852
1.29056
0.848619
0.544599
0.25761
0.376014
0.516463
0.510911
0.349707
0.0891418
0.0319144
0.0436273
0.0714499
0.10817
0.148565
0.189444
0.224241
0.251438
0.277635
0.299135
0.341018
1.03724
0.599848
0.402978
0.280194
0.404604
0.506607
0.50362
0.366838
0.146308
0.0444586
0.0255039
0.029795
0.0472146
0.0768826
0.111462
0.14506
0.175407
0.20791
0.238087
0.288634
0.890918
0.510706
0.404185
0.319542
0.428776
0.498789
0.496961
0.380793
0.198037
0.0735217
0.030391
0.0282958
0.0315872
0.0427788
0.0622766
0.0876826
0.116134
0.151183
0.183572
0.236333
0.842428
0.519986
0.427914
0.360546
0.442704
0.492107
0.491533
0.391365
0.238828
0.111539
0.0491311
0.0322561
0.029604
0.0312567
0.0379575
0.0529555
0.0768802
0.107414
0.13646
0.187782
0.856426
0.558143
0.481783
0.401424
0.451915
0.491849
0.48863
0.398073
0.26881
0.153465
0.0803084
0.044837
0.0318614
0.0309885
0.0321679
0.0396507
0.0555769
0.0779391
0.102158
0.14849
0.902465
0.633849
0.563217
0.448295
0.46349
0.493534
0.487417
0.403482
0.295042
0.195925
0.116906
0.066179
0.0400293
0.0326893
0.0334593
0.0368906
0.0444704
0.0589123
0.0770633
0.117379
0.993597
0.751312
0.678908
0.501927
0.47998
0.497703
0.488019
0.410268
0.320411
0.232322
0.152638
0.0935636
0.057144
0.0420578
0.0378381
0.038377
0.0406255
0.046772
0.05847
0.0935907
1.13047
0.909544
0.824495
0.570332
0.507323
0.50504
0.490543
0.419943
0.342173
0.26083
0.184242
0.124019
0.0834269
0.0605163
0.0477719
0.0419162
0.0421464
0.0460364
0.053755
0.0800892
1.29227
1.1103
1.01152
0.66898
0.550469
0.514387
0.495395
0.431682
0.361737
0.287197
0.217855
0.160726
0.116199
0.0854694
0.0649736
0.0503345
0.0473614
0.0496712
0.0556701
0.0747217
1.44159
1.29844
1.2389
0.841868
0.611886
0.526409
0.50277
0.442415
0.374772
0.308712
0.248403
0.19388
0.146832
0.111255
0.0846887
0.0642059
0.0566213
0.057554
0.060904
0.0759322
1.65727
1.57496
1.58989
1.28608
0.868118
0.633635
0.550199
0.47346
0.407034
0.351476
0.299807
0.248297
0.199848
0.15986
0.127893
0.103099
0.0881152
0.0801036
0.0799513
0.0877928
4.27099
3.81627
3.14344
2.2784
2.15705
2.30439
2.29012
2.01761
1.65842
1.35713
1.09562
0.949616
0.902252
0.91579
0.966179
1.06466
1.20609
1.36021
1.50223
1.71454
3.77995
3.37965
1.77255
1.42278
1.9486
2.26586
2.24941
1.89442
1.31517
0.890729
0.630735
0.546225
0.55941
0.604075
0.689099
0.81663
0.987569
1.18269
1.35983
1.62437
3.20104
1.78914
1.20684
1.15351
1.92898
2.26347
2.24319
1.84465
1.04612
0.575121
0.425543
0.425807
0.454578
0.517412
0.611353
0.739817
0.897083
1.10076
1.33068
1.64484
2.2756
1.36107
1.08952
0.901895
1.6127
2.21878
2.34071
2.05604
0.96727
0.274603
0.297866
0.336131
0.378195
0.42365
0.477229
0.540312
0.622609
0.749651
0.965135
1.40804
2.07279
1.79883
1.76927
1.40144
0.21917
0.382812
0.4139
0.436885
0.449621
0.460982
0.475964
0.498201
0.533268
0.586445
0.663575
0.971381
2.18366
2.13454
2.15245
2.11793
0.496721
0.522015
0.511892
0.504015
0.497911
0.498159
0.50045
0.50545
0.513312
0.524327
0.543677
0.688798
2.18463
2.15337
2.16752
2.24944
0.53775
0.516955
0.509466
0.501958
0.497104
0.494092
0.493045
0.494116
0.497208
0.503248
0.512654
0.575478
1.93842
1.83281
1.79338
1.98318
0.449607
0.356276
0.372505
0.385794
0.395537
0.401417
0.406711
0.414634
0.425956
0.43826
0.448584
0.485231
1.59581
1.27853
1.02646
0.96976
0.206832
0.496717
0.538015
0.447496
0.0536166
0.0909213
0.148946
0.201035
0.240385
0.268883
0.295745
0.322607
0.345494
0.362712
0.374984
0.411967
1.29786
0.856594
0.558045
0.264905
0.377397
0.515655
0.51051
0.353413
0.0947305
0.0350723
0.0476167
0.0758514
0.112354
0.155086
0.198563
0.234075
0.26131
0.2856
0.30748
0.354141
1.04435
0.603067
0.410668
0.28723
0.407196
0.506043
0.503106
0.36945
0.153502
0.0489154
0.0285533
0.0328101
0.0517629
0.0836484
0.121067
0.155702
0.183773
0.216903
0.248965
0.301184
0.905303
0.521927
0.411083
0.32453
0.429873
0.498551
0.496171
0.383014
0.20526
0.0790365
0.033718
0.0323569
0.036604
0.0490805
0.0699867
0.0946735
0.123352
0.161157
0.195231
0.247932
0.858923
0.532024
0.438703
0.366085
0.442954
0.492547
0.491446
0.393257
0.244236
0.116521
0.0541636
0.0374065
0.0329011
0.0344385
0.040827
0.057451
0.0842452
0.118111
0.148767
0.197948
0.873309
0.571627
0.495907
0.40933
0.453719
0.492682
0.48868
0.399455
0.272546
0.159836
0.0877009
0.0514113
0.0351873
0.0322058
0.0342054
0.0437348
0.0620747
0.0880879
0.112666
0.156774
0.923672
0.65179
0.579846
0.459107
0.466982
0.494887
0.488624
0.404921
0.299652
0.204301
0.126588
0.074461
0.0433846
0.0347583
0.0359876
0.0404675
0.0498652
0.0662309
0.0841494
0.124917
1.02226
0.776255
0.698695
0.516393
0.486346
0.500056
0.489859
0.413038
0.327213
0.241072
0.162725
0.101398
0.0621665
0.0461612
0.0414173
0.0425852
0.0464118
0.0529473
0.0650222
0.102088
1.1649
0.947835
0.849502
0.588869
0.51771
0.508708
0.493568
0.42507
0.350385
0.269075
0.192416
0.132034
0.0912439
0.0672861
0.0533967
0.0476445
0.0480129
0.052344
0.0615313
0.0903843
1.32197
1.15136
1.04871
0.697804
0.566465
0.52035
0.500444
0.438001
0.367596
0.293837
0.226846
0.171424
0.12731
0.0957575
0.0723786
0.056391
0.0539603
0.0566391
0.0640065
0.0850829
1.46292
1.32943
1.28178
0.89084
0.637592
0.537226
0.510327
0.448906
0.380288
0.316271
0.259628
0.206382
0.159251
0.122042
0.0923924
0.0712531
0.0649493
0.0663121
0.0704186
0.0860379
1.66677
1.58888
1.60945
1.33484
0.921261
0.667889
0.5708
0.48617
0.418574
0.363989
0.312607
0.260407
0.210778
0.169587
0.137038
0.112962
0.0992023
0.0913012
0.0899201
0.0972673
4.17893
3.72662
3.22334
2.38065
2.20597
2.3054
2.28787
2.02731
1.67686
1.37317
1.11518
0.97527
0.924639
0.938167
0.990046
1.08998
1.22836
1.37245
1.50685
1.71099
3.68652
3.4584
1.94586
1.48321
1.94093
2.25339
2.24143
1.90129
1.33788
0.910558
0.65012
0.570145
0.583778
0.628552
0.714955
0.845135
1.01663
1.20247
1.37185
1.61917
3.28338
1.99317
1.25371
1.1762
1.91696
2.25077
2.23819
1.85439
1.07693
0.599265
0.442329
0.443758
0.47641
0.54084
0.635782
0.764283
0.923554
1.12931
1.34664
1.63201
2.39136
1.43811
1.12382
0.922006
1.6076
2.20913
2.32745
2.04945
1.01382
0.289018
0.311097
0.347113
0.390163
0.438881
0.495245
0.56272
0.650127
0.792863
1.01614
1.42931
2.14177
1.80627
1.76932
1.41252
0.22119
0.39196
0.42303
0.442989
0.455329
0.468266
0.485291
0.510744
0.548901
0.607737
0.695226
1.02139
2.19709
2.13456
2.15907
2.1231
0.508951
0.528228
0.517881
0.509736
0.503387
0.503367
0.504973
0.509319
0.517074
0.529825
0.556056
0.726017
2.19084
2.15383
2.17862
2.25724
0.550661
0.523715
0.515588
0.507564
0.502396
0.498418
0.495731
0.4964
0.498979
0.505197
0.516194
0.592856
1.94612
1.83845
1.805
1.99509
0.461477
0.364594
0.380177
0.392087
0.401113
0.406288
0.410852
0.418295
0.428414
0.439349
0.450037
0.495298
1.60603
1.28648
1.03874
0.951951
0.229871
0.49531
0.537288
0.448653
0.0559442
0.0965063
0.155904
0.208544
0.246803
0.275643
0.302579
0.328266
0.349638
0.365388
0.378542
0.419794
1.30697
0.865321
0.573505
0.27769
0.382666
0.515418
0.511551
0.357543
0.101092
0.0390193
0.0518095
0.080487
0.11863
0.163403
0.207292
0.242544
0.268807
0.292185
0.313409
0.36059
1.06049
0.615464
0.423056
0.299423
0.413271
0.506029
0.504389
0.374509
0.161785
0.0544228
0.0325923
0.0376454
0.0578396
0.0916815
0.131083
0.164741
0.192543
0.226324
0.25702
0.307627
0.927298
0.541119
0.425748
0.33522
0.433399
0.498888
0.497337
0.387856
0.213978
0.0859909
0.039268
0.0370144
0.0414324
0.0546625
0.076233
0.102331
0.133443
0.172378
0.205332
0.255007
0.88156
0.552372
0.458658
0.378647
0.445867
0.493247
0.492811
0.397865
0.251949
0.125248
0.0618126
0.0426772
0.0366808
0.0375621
0.0450714
0.0648406
0.0942805
0.12951
0.158694
0.205618
0.896874
0.594141
0.518466