/*--------------------------------*- C++ -*----------------------------------*\
  =========                 |
  \\      /  F ield         | OpenFOAM: The Open Source CFD Toolbox
   \\    /   O peration     | Website:  https://openfoam.org
    \\  /    A nd           | Version:  9
     \\/     M anipulation  |
\*---------------------------------------------------------------------------*/
FoamFile
{
    format      ascii;
    class       volScalarField;
    location    "0.0075";
    object      rho.C4;
}
// * * * * * * * * * * * * * * * * * * * * * * * * * * * * * * * * * * * * * //

dimensions      [1 -3 0 0 0 0 0];

internalField   nonuniform List<scalar> 
9720
(
4.20124
3.75357
3.40134
2.50662
2.2622
2.30988
2.29685
2.04647
1.70647
1.40105
1.1472
1.01034
0.956396
0.970747
1.02509
1.12856
1.2668
1.40781
1.54027
1.74066
3.73375
3.60719
2.16856
1.53863
1.90711
2.22822
2.24242
1.91575
1.36759
0.938023
0.677428
0.599699
0.614093
0.662308
0.753587
0.890489
1.06767
1.25306
1.41958
1.65902
3.42641
2.19732
1.31131
1.19145
1.85728
2.22281
2.24085
1.86978
1.10992
0.629597
0.46592
0.470066
0.508763
0.578267
0.677304
0.810979
0.97841
1.19101
1.41315
1.69046
2.51366
1.53202
1.18089
0.981733
1.49847
2.19939
2.33134
2.06775
1.04897
0.306142
0.329436
0.369117
0.418134
0.472908
0.533492
0.603967
0.695259
0.843854
1.07226
1.49427
2.22223
1.84351
1.79626
1.48941
0.241395
0.410461
0.444675
0.466892
0.482858
0.499018
0.519528
0.548386
0.59032
0.653934
0.747639
1.08773
2.24799
2.15944
2.16905
2.14041
0.533732
0.548961
0.540899
0.533591
0.532316
0.53409
0.538301
0.545386
0.555886
0.571174
0.600253
0.783491
2.22921
2.17213
2.18628
2.27746
0.57884
0.546158
0.540229
0.53418
0.530514
0.528639
0.529095
0.531159
0.534925
0.542526
0.555338
0.641524
1.9797
1.85042
1.80768
2.00757
0.489066
0.381726
0.399377
0.412545
0.423231
0.43228
0.440374
0.449073
0.458873
0.470623
0.483764
0.537704
1.64485
1.30729
1.0501
0.945944
0.243633
0.507742
0.551415
0.462768
0.0598752
0.101418
0.163703
0.220827
0.264422
0.298398
0.32703
0.351982
0.374842
0.394312
0.410595
0.457663
1.34979
0.893673
0.596711
0.293856
0.391846
0.520594
0.517484
0.366485
0.109121
0.0430431
0.0570393
0.0896215
0.132723
0.180217
0.22524
0.263638
0.294338
0.321775
0.343518
0.392849
1.10938
0.650867
0.449141
0.317874
0.424282
0.512647
0.511822
0.384564
0.171918
0.0607789
0.0382936
0.0443837
0.0651667
0.101287
0.145162
0.184245
0.217476
0.253689
0.283987
0.336803
0.979208
0.582358
0.456086
0.35762
0.444632
0.506092
0.506603
0.397944
0.226769
0.097062
0.0467128
0.0410634
0.0452503
0.0600321
0.0866434
0.119242
0.154848
0.195901
0.229757
0.282054
0.924779
0.595801
0.497941
0.406815
0.459982
0.50595
0.503632
0.409063
0.268114
0.141249
0.0712565
0.0473768
0.0417982
0.0431254
0.0534822
0.0773216
0.110562
0.149013
0.179982
0.230247
0.938579
0.640529
0.564964
0.460728
0.475606
0.507946
0.503946
0.418427
0.29948
0.188161
0.110032
0.0663869
0.0453328
0.0431219
0.0464617
0.0586726
0.0821345
0.111936
0.139249
0.188516
0.993188
0.726396
0.655445
0.516581
0.496119
0.513072
0.505656
0.426989
0.32612
0.231737
0.15408
0.0961679
0.0597905
0.0481713
0.0492171
0.0549321
0.0650411
0.083009
0.106151
0.154839
1.09909
0.857881
0.776882
0.582433
0.525034
0.521626
0.509183
0.436621
0.350131
0.267829
0.192569
0.130051
0.0863933
0.0643311
0.0570487
0.0580855
0.0623041
0.0721014
0.0889308
0.132529
1.24215
1.03595
0.934133
0.667902
0.566515
0.534143
0.515327
0.44773
0.371435
0.296988
0.225282
0.165472
0.120121
0.0906783
0.0717976
0.0647226
0.0658895
0.0739637
0.0879378
0.120166
1.38777
1.22745
1.14005
0.804254
0.629469
0.552048
0.525757
0.460813
0.390385
0.323862
0.261102
0.205528
0.157794
0.121463
0.0941633
0.0777272
0.0775296
0.0827458
0.0914311
0.112273
1.51964
1.39665
1.36361
1.02079
0.72202
0.582572
0.540931
0.475097
0.407671
0.345762
0.290282
0.237855
0.18855
0.149771
0.118974
0.0985224
0.093005
0.0943066
0.0971281
0.112955
1.71237
1.63146
1.64856
1.43748
1.05252
0.76607
0.632487
0.532201
0.458041
0.396375
0.342335
0.289816
0.240478
0.200937
0.168339
0.144551
0.129312
0.118101
0.116877
0.125504
4.1786
3.71868
3.2472
2.38634
2.19583
2.28449
2.27761
2.02318
1.67694
1.37277
1.11524
0.97713
0.924196
0.936156
0.985545
1.08425
1.22367
1.37091
1.50713
1.71178
3.69371
3.46628
1.96857
1.46627
1.9111
2.22971
2.23497
1.90135
1.34151
0.91146
0.650391
0.57202
0.585252
0.628628
0.712749
0.841329
1.01288
1.20201
1.37407
1.62375
3.28835
1.99911
1.2494
1.15442
1.88704
2.23432
2.23761
1.85765
1.08222
0.600049
0.443018
0.445131
0.479318
0.54419
0.637149
0.763858
0.921222
1.12526
1.34677
1.64057
2.40238
1.4535
1.13218
0.930724
1.57331
2.18761
2.31854
2.05391
1.04226
0.291491
0.313891
0.350768
0.394579
0.443122
0.499434
0.565156
0.649149
0.783321
0.998745
1.42128
2.15621
1.82265
1.78
1.42445
0.240489
0.40178
0.433233
0.453365
0.465734
0.478453
0.494906
0.519444
0.556405
0.613332
0.696807
1.01269
2.21368
2.14651
2.16335
2.12926
0.520951
0.539766
0.52947
0.521411
0.51493
0.514895
0.516498
0.521096
0.529135
0.541588
0.565214
0.725953
2.20344
2.15894
2.17885
2.26035
0.565083
0.536256
0.527934
0.519755
0.514185
0.510032
0.506927
0.507665
0.510199
0.516209
0.526812
0.600089
1.95696
1.84093
1.80298
1.99793
0.476818
0.37277
0.388691
0.400862
0.40975
0.415059
0.419697
0.427
0.437048
0.448119
0.458991
0.503434
1.61794
1.29055
1.03594
0.962418
0.237992
0.494813
0.536831
0.447771
0.0591431
0.0967759
0.157558
0.211844
0.251709
0.281542
0.308976
0.334505
0.355953
0.372318
0.385799
0.427215
1.32015
0.872319
0.574843
0.282571
0.385311
0.514985
0.510627
0.358582
0.104257
0.039813
0.0528355
0.0824935
0.121759
0.167447
0.211618
0.247207
0.274065
0.298031
0.319569
0.366785
1.07197
0.622421
0.428672
0.304857
0.415881
0.505814
0.503694
0.375499
0.164752
0.0557556
0.0335661
0.0387799
0.0593059
0.0935115
0.133508
0.1682
0.196833
0.230997
0.261792
0.312513
0.93893
0.55055
0.432085
0.340867
0.435286
0.498852
0.497046
0.388326
0.21644
0.0884273
0.040659
0.0374873
0.0417467
0.0550426
0.0775574
0.104833
0.136751
0.175954
0.208905
0.258955
0.889628
0.563011
0.466067
0.384184
0.447491
0.493466
0.492381
0.397891
0.254689
0.128611
0.0637553
0.0432025
0.0373408
0.0383503
0.0462991
0.0666215
0.0965269
0.131869
0.161361
0.209059
0.903064
0.604386
0.526281
0.430904
0.459708
0.493691
0.488813
0.40362
0.283289
0.173858
0.100013
0.0593275
0.039754
0.0371964
0.0400941
0.0511565
0.0719254
0.0990082
0.123968
0.169256
0.954269
0.685153
0.611311
0.482658
0.475466
0.496
0.488556
0.409309
0.309514
0.217144
0.140486
0.0845805
0.0506927
0.0411879
0.0423649
0.0474401
0.056801
0.0737063
0.0943879
0.138538
1.05446
0.810163
0.728434
0.54324
0.498901
0.501523
0.48989
0.417859
0.334363
0.251698
0.175596
0.113909
0.0736201
0.0550843
0.0489207
0.0497896
0.053667
0.0621727
0.0772796
0.116987
1.19522
0.982702
0.879007
0.620913
0.534223
0.51085
0.493761
0.428602
0.35482
0.278405
0.205301
0.146954
0.104882
0.0784331
0.0615811
0.0554215
0.0564578
0.0631874
0.0746292
0.10457
1.34249
1.17459
1.07963
0.744401
0.589225
0.524777
0.501612
0.439994
0.371037
0.303067
0.240149
0.186047
0.140529
0.106816
0.0817391
0.0666331
0.0658966
0.0695537
0.0770088
0.0972961
1.47513
1.34413
1.30012
0.949964
0.670751
0.548767
0.513714
0.451553
0.385517
0.324758
0.270026
0.218024
0.170364
0.13312
0.104271
0.0850231
0.0789129
0.0798034
0.0826
0.0979787
1.66888
1.58442
1.59505
1.36769
0.978656
0.70843
0.590524
0.498574
0.429262
0.372372
0.319876
0.268426
0.220358
0.181483
0.15074
0.127897
0.113186
0.103542
0.102131
0.110163
4.26714
3.81741
3.17539
2.29287
2.14799
2.2888
2.28063
2.01572
1.66576
1.36521
1.10197
0.957756
0.904602
0.915483
0.961848
1.0567
1.19655
1.35175
1.49465
1.70772
3.77617
3.39863
1.79435
1.42001
1.91902
2.245
2.2378
1.89001
1.32366
0.899538
0.637988
0.554838
0.567288
0.608497
0.688162
0.810867
0.978282
1.17499
1.35325
1.61882
3.19688
1.80031
1.2088
1.14378
1.89552
2.24494
2.23247
1.83902
1.05301
0.582322
0.43293
0.433351
0.462801
0.524697
0.614857
0.738736
0.891244
1.09039
1.319
1.63869
2.28214
1.37279
1.09823
0.899192
1.58231
2.19895
2.32276
2.04516
1.00232
0.281838
0.305024
0.342781
0.38386
0.428319
0.481431
0.543419
0.623233
0.745154
0.952079
1.39282
2.08997
1.81814
1.78411
1.41114
0.222515
0.391262
0.420739
0.442989
0.455758
0.467236
0.482218
0.504563
0.539423
0.592201
0.667641
0.965541
2.19877
2.14727
2.15528
2.12703
0.514979
0.530101
0.519902
0.512088
0.50623
0.506559
0.50881
0.513983
0.522095
0.53331
0.551856
0.691784
2.1983
2.16385
2.16875
2.25513
0.558426
0.525629
0.517416
0.50957
0.504528
0.501647
0.500138
0.5012
0.504391
0.51051
0.520087
0.582184
1.95243
1.84243
1.79979
1.992
0.468667
0.364196
0.379851
0.392818
0.401713
0.406851
0.412011
0.420111
0.431458
0.443491
0.454107
0.491688
1.6087
1.29136
1.04212
0.986599
0.216372
0.498255
0.539226
0.44894
0.0549805
0.0944169
0.153186
0.204748
0.24378
0.272801
0.300269
0.326884
0.348646
0.365845
0.379057
0.41772
1.30722
0.864887
0.564088
0.26945
0.378975
0.517284
0.511235
0.353453
0.0963409
0.0361534
0.0487479
0.0775909
0.115331
0.15927
0.202666
0.236747
0.263449
0.288482
0.311323
0.358827
1.04999
0.609367
0.418751
0.290492
0.407861
0.507138
0.503235
0.370079
0.155257
0.0500015
0.0298685
0.0346675
0.0542356
0.0862629
0.123135
0.157457
0.186102
0.220187
0.252489
0.304335
0.907753
0.52602
0.414993
0.326399
0.429763
0.499199
0.496134
0.383762
0.206798
0.080936
0.0357144
0.0332082
0.0372697
0.049569
0.070737
0.0962612
0.126119
0.164306
0.197772
0.25013
0.861086
0.536965
0.441818
0.366789
0.442405
0.493082
0.491427
0.393643
0.246186
0.119693
0.0568663
0.0380719
0.0335297
0.035103
0.0419975
0.0593739
0.086462
0.119885
0.150373
0.200133
0.875124
0.576794
0.499154
0.409684
0.453206
0.493254
0.488509
0.399899
0.275494
0.164045
0.0904562
0.0521509
0.0359251
0.0336854
0.0356573
0.0448825
0.0630614
0.0891603
0.114083
0.159325
0.924122
0.655707
0.583381
0.459682
0.466745
0.495521
0.488562
0.406014
0.303069
0.208136
0.129028
0.0757944
0.0450042
0.0364203
0.0373761
0.0413983
0.0505716
0.0670097
0.0857127
0.127779
1.0202
0.777706
0.701773
0.517938
0.486742
0.500636
0.489781
0.41484
0.329835
0.243704
0.165072
0.103949
0.0651221
0.048128
0.0427208
0.0436523
0.0472509
0.0539954
0.0669004
0.105006
1.16028
0.945794
0.851035
0.592453
0.519104
0.509197
0.493465
0.426587
0.351774
0.271429
0.195718
0.136149
0.0946161
0.0693264
0.0547478
0.0487548
0.0490985
0.0538176
0.0633288
0.0929355
1.31464
1.14412
1.04915
0.704882
0.569009
0.520994
0.500475
0.438882
0.368797
0.297137
0.231319
0.175387
0.129736
0.097252
0.0738086
0.0581737
0.055895
0.0585909
0.0659454
0.0870519
1.45386
1.3192
1.27888
0.902217
0.642394
0.538905
0.51081
0.449988
0.382308
0.319877
0.263175
0.208945
0.160856
0.123343
0.0944904
0.0740458
0.0673665
0.0685868
0.0723652
0.0878947
1.6588
1.57748
1.59925
1.34388
0.934047
0.675286
0.574487
0.489272
0.422022
0.367087
0.314761
0.26213
0.212474
0.171687
0.139801
0.115806
0.101583
0.0932737
0.0916675
0.0991841
4.3551
3.91221
3.07669
2.20561
2.11385
2.28817
2.27767
2.00619
1.64663
1.34985
1.0865
0.93625
0.887854
0.90105
0.947602
1.03995
1.17816
1.33875
1.48709
1.70523
3.87528
3.24037
1.64285
1.38308
1.91549
2.24725
2.23871
1.88469
1.30804
0.881846
0.625279
0.53437
0.546406
0.588212
0.667254
0.788287
0.950807
1.15034
1.33505
1.61159
3.082
1.63077
1.19104
1.12891
1.8772
2.2467
2.23326
1.832
1.03901
0.561115
0.41633
0.417265
0.441688
0.499077
0.587107
0.710947
0.864199
1.05871
1.2879
1.62893
2.15844
1.32322
1.09543
0.903491
1.52028
2.20417
2.32828
2.04028
0.94166
0.264865
0.287596
0.326767
0.367473
0.409224
0.458722
0.515944
0.590608
0.701069
0.89386
1.34936
2.02968
1.82643
1.80706
1.46009
0.248571
0.378332
0.407829
0.432534
0.446547
0.456087
0.468392
0.486744
0.51684
0.563316
0.629163
0.904608
2.18386
2.14591
2.15436
2.11268
0.501732
0.519336
0.510757
0.503644
0.497403
0.497425
0.499016
0.503118
0.510121
0.519017
0.532206
0.648407
2.18793
2.15925
2.1596
2.24859
0.544102
0.515248
0.508467
0.501708
0.496072
0.493437
0.491454
0.491757
0.493824
0.498414
0.505845
0.555139
1.93922
1.83249
1.78479
1.98035
0.45583
0.352484
0.369082
0.382659
0.392163
0.397611
0.402569
0.409696
0.419543
0.430872
0.441462
0.472573
1.5956
1.27971
1.02305
0.948562
0.22093
0.495387
0.537417
0.446104
0.0505694
0.0862045
0.141807
0.192418
0.232836
0.263386
0.289948
0.314862
0.336611
0.356415
0.370031
0.402758
1.30075
0.858164
0.550511
0.258453
0.372838
0.51393
0.508428
0.349674
0.0930134
0.0327889
0.0436149
0.0706318
0.107914
0.149486
0.19082
0.225399
0.252579
0.279284
0.301562
0.344939
1.04449
0.606455
0.407888
0.279771
0.401586
0.50469
0.501253
0.367242
0.151204
0.0461769
0.0264212
0.0307911
0.0483384
0.0779517
0.112211
0.145628
0.176431
0.210117
0.240865
0.292109
0.891145
0.511174
0.403092
0.317856
0.425487
0.496969
0.494726
0.381021
0.203198
0.0763748
0.031723
0.0294284
0.0326885
0.0435375
0.0626303
0.0884058
0.118318
0.154044
0.186388
0.239754
0.839944
0.520017
0.425967
0.357098
0.439093
0.490156
0.489808
0.391168
0.242859
0.115293
0.0509703
0.0333617
0.0304175
0.0319953
0.0388795
0.054806
0.0791574
0.109545
0.139083
0.191146
0.853996
0.558302
0.479797
0.396809
0.448193
0.489896
0.486797
0.397671
0.272137
0.15732
0.0826577
0.0457746
0.0325039
0.0320613
0.0334809
0.0408914
0.0563447
0.0793185
0.104148
0.151623
0.899759
0.633281
0.56123
0.443246
0.46008
0.491604
0.485782
0.403587
0.297683
0.199491
0.119721
0.0672684
0.0410203
0.0340543
0.0346485
0.0374327
0.0449531
0.0600716
0.0789737
0.120626
0.990306
0.749133
0.676028
0.497332
0.476847
0.495913
0.486556
0.411355
0.322389
0.235819
0.155432
0.0953898
0.0592311
0.0433439
0.0384423
0.0389142
0.0414266
0.0480104
0.0605912
0.0967237
1.12723
0.906545
0.82079
0.566986
0.504746
0.503712
0.489433
0.42176
0.344643
0.264076
0.187122
0.126858
0.0857586
0.0616086
0.048464
0.0427562
0.0431151
0.0474417
0.055342
0.082967
1.29042
1.10714
1.00755
0.666103
0.548538
0.51369
0.495067
0.433757
0.364381
0.290513
0.22099
0.163725
0.11864
0.0871229
0.0660968
0.0517867
0.0488021
0.0509695
0.0570181
0.0769855
1.44078
1.29543
1.23752
0.841529
0.611573
0.526613
0.503401
0.444647
0.377466
0.312058
0.251545
0.196894
0.149391
0.112816
0.0863506
0.0662515
0.0584031
0.0591102
0.0625004
0.0780831
1.65854
1.57492
1.59028
1.29234
0.875107
0.638302
0.553814
0.476801
0.41039
0.354638
0.302628
0.250682
0.201552
0.161277
0.129743
0.105027
0.0902633
0.0822166
0.0818705
0.0899729
4.41295
3.986
3.00523
2.1449
2.0951
2.28804
2.28124
2.00399
1.63586
1.33813
1.07557
0.918985
0.878334
0.895955
0.945607
1.03849
1.1769
1.34211
1.49275
1.70841
3.95078
3.11741
1.55979
1.35886
1.93319
2.25419
2.24442
1.88591
1.2978
0.869298
0.617552
0.518087
0.529621
0.574645
0.657628
0.779722
0.939994
1.14091
1.3277
1.6077
3.01683
1.53988
1.17374
1.12263
1.90261
2.25585
2.23839
1.83303
1.02824
0.547729
0.407424
0.405099
0.426439
0.479936
0.56598
0.68886
0.842515
1.03569
1.26383
1.61806
2.0971
1.29407
1.07006
0.888689
1.53634
2.20383
2.33094
2.04164
0.958126
0.255749
0.27762
0.316728
0.35721
0.396981
0.443799
0.497925
0.567216
0.668696
0.848123
1.30835
2.00194
1.81371
1.78534
1.43924
0.208764
0.370494
0.39978
0.425509
0.440936
0.44972
0.460806
0.476743
0.503027
0.544706
0.603079
0.85878
2.1739
2.13947
2.15249
2.10597
0.495618
0.514314
0.504973
0.497605
0.491579
0.490923
0.492091
0.495189
0.501152
0.508333
0.518075
0.617553
2.17994
2.15348
2.15822
2.24158
0.537819
0.510399
0.502964
0.496194
0.491169
0.488444
0.4857
0.485579
0.486547
0.489368
0.494847
0.535267
1.92794
1.82359
1.776
1.972
0.450571
0.346154
0.36307
0.376742
0.386509
0.391727
0.396029
0.402589
0.411645
0.422356
0.432303
0.458345
1.5829
1.26453
1.0033
0.929344
0.213101
0.491835
0.534246
0.441496
0.0489982
0.0824371
0.135269
0.186112
0.227539
0.257545
0.283023
0.306428
0.328119
0.349337
0.36277
0.391201
1.29325
0.847764
0.537511
0.251395
0.370633
0.511827
0.506105
0.34725
0.0917396
0.0306395
0.0418571
0.0680884
0.104044
0.143591
0.182578
0.219121
0.248783
0.273712
0.29377
0.333484
1.03868
0.600736
0.397992
0.273405
0.398839
0.502681
0.499903
0.364944
0.147603
0.0445623
0.0250768
0.0286513
0.0443489
0.0720116
0.107434
0.143765
0.173689
0.203784
0.232279
0.282291
0.884734
0.504253
0.397344
0.312661
0.423257
0.495141
0.494077
0.377698
0.199304
0.0747692
0.0297901
0.0274459
0.0300762
0.0414944
0.0616871
0.0871917
0.115295
0.147781
0.179586
0.233164
0.833565
0.512452
0.418524
0.352381
0.438014
0.488442
0.488699
0.387947
0.240492
0.113467
0.047498
0.0307735
0.0308255
0.0325635
0.0390895
0.0534116
0.0749221
0.104415
0.13514
0.186572
0.846666
0.549619
0.470619
0.391335
0.446784
0.487945
0.48558
0.396658
0.270432
0.154002
0.0774863
0.0437432
0.0332734
0.0327179
0.0333287
0.0386223
0.0525023
0.0768087
0.101827
0.148288
0.890759
0.623477
0.551519
0.436874
0.45797
0.489544
0.48478
0.40312
0.295219
0.193393
0.115113
0.065827
0.0411057
0.0337871
0.0335964
0.0359971
0.0443459
0.0601085
0.0785071
0.118057
0.977824
0.737302
0.664967
0.489339
0.473632
0.49339
0.485416
0.409388
0.317306
0.230281
0.152674
0.0932164
0.0574122
0.0408476
0.0368149
0.0382113
0.0419425
0.0485885
0.0594989
0.0925241
1.11093
0.888875
0.808181
0.556361
0.499231
0.500595
0.487452
0.417716
0.338821
0.26047
0.183897
0.123042
0.0811345
0.05715
0.0471834
0.0429344
0.043165
0.0453735
0.0514453
0.0771472
1.27637
1.08513
0.987278
0.65038
0.540259
0.509773
0.491694
0.428964
0.361362
0.286863
0.21532
0.15698
0.11266
0.0832612
0.0647551
0.0513332
0.0462803
0.0475092
0.0525738
0.072325
1.4342
1.28079
1.20998
0.811392
0.597906
0.520586
0.49859
0.440543
0.375336
0.307209
0.243629
0.189124
0.143426
0.108308
0.0837567
0.0636843
0.0535443
0.0540108
0.057595
0.0737557
1.66035
1.57162
1.57776
1.25558
0.840892
0.618355
0.541588
0.470136
0.404339
0.345973
0.292987
0.242546
0.19449
0.155048
0.12446
0.098806
0.0829026
0.0764326
0.0769682
0.0857323
4.41496
3.98388
2.98597
2.13291
2.09661
2.29415
2.28503
2.00565
1.63582
1.33692
1.07484
0.914975
0.875056
0.895206
0.947663
1.04234
1.18211
1.34859
1.49926
1.71432
3.95706
3.10604
1.55007
1.3532
1.94563
2.26442
2.24973
1.88785
1.29741
0.869144
0.619436
0.516628
0.526427
0.572089
0.657353
0.781224
0.943896
1.14769
1.33488
1.61413
3.02523
1.52907
1.16642
1.11743
1.92487
2.26785
2.24431
1.83482
1.02714
0.547249
0.409131
0.405628
0.42649
0.479327
0.565205
0.688607
0.843209
1.03924
1.27259
1.62746
2.09626
1.28608
1.05818
0.876921
1.59424
2.20992
2.33461
2.04627
0.948067
0.255209
0.277658
0.317212
0.357574
0.396591
0.442865
0.496488
0.566517
0.668627
0.851474
1.31748
1.99657
1.80462
1.77323
1.3923
0.204921
0.367203
0.396776
0.423004
0.438162
0.446836
0.457601
0.473936
0.500873
0.543113
0.601725
0.861191
2.1705
2.13477
2.14972
2.10698
0.491424
0.510966
0.502154
0.494809
0.488134
0.487472
0.488837
0.492301
0.498809
0.506587
0.516713
0.616893
2.17557
2.14938
2.15614
2.24016
0.534149
0.507799
0.500947
0.494398
0.488734
0.485743
0.48331
0.483394
0.484578
0.487912
0.493807
0.534505
1.92422
1.82075
1.77466
1.9677
0.44651
0.346734
0.363144
0.375764
0.385012
0.391946
0.397033
0.4027
0.411078
0.421724
0.431571
0.45728
1.57873
1.26387
1.00705
0.953206
0.197876
0.493196
0.535082
0.442244
0.0477899
0.0844226
0.137538
0.188158
0.228957
0.258442
0.283917
0.306601
0.327668
0.34934
0.362961
0.390623
1.29071
0.847205
0.538677
0.249953
0.371668
0.515914
0.509784
0.347775
0.0890805
0.0303054
0.0421525
0.0690173
0.104909
0.143929
0.182897
0.219125
0.24815
0.273099
0.293401
0.332612
1.03673
0.600401
0.396993
0.272222
0.401065
0.507073
0.502944
0.365382
0.144755
0.0438072
0.0249575
0.0287012
0.0444055
0.0723662
0.107732
0.143298
0.172715
0.202847
0.231436
0.280921
0.885541
0.505188
0.398075
0.311975
0.42653
0.499661
0.496703
0.379741
0.1969
0.0736303
0.0296787
0.026928
0.0296559
0.0410301
0.0609452
0.0859902
0.113707
0.146424
0.178369
0.231303
0.835221
0.513372
0.420193
0.352865
0.441488
0.492896
0.491581
0.390421
0.238761
0.112035
0.0472939
0.0304937
0.0300154
0.0315837
0.038066
0.0520847
0.0738206
0.103627
0.133574
0.184516
0.84856
0.550909
0.473075
0.393249
0.450783
0.492207
0.488744
0.396922
0.268805
0.152684
0.0772931
0.0435074
0.03235
0.0317034
0.0324015
0.0381669
0.0527092
0.0759453
0.100306
0.146427
0.892781
0.625322
0.554188
0.439759
0.4618
0.493749
0.487602
0.402098
0.294394
0.192974
0.11439
0.0652607
0.0403112
0.0329195
0.0330559
0.0359424
0.0438875
0.0587306
0.0768906
0.116364
0.979691
0.739392
0.668524
0.493386
0.477515
0.497467
0.488091
0.409239
0.318171
0.229429
0.151442
0.0923175
0.056406
0.0405423
0.0367688
0.0378152
0.0406973
0.0468171
0.0577998
0.0910916
1.11255
0.890801
0.811135
0.559055
0.503287
0.504517
0.490254
0.419176
0.33943
0.258739
0.182677
0.122109
0.0806428
0.0573844
0.0465823
0.0416348
0.0417875
0.0444117
0.050607
0.0755535
1.2765
1.08607
0.99196
0.653854
0.544364
0.513519
0.49473
0.430698
0.359311
0.2846
0.214312
0.156636
0.112074
0.0821633
0.0634335
0.0498361
0.0453568
0.0468614
0.0519622
0.0710742
1.4329
1.28044
1.2117
0.814935
0.601748
0.524055
0.501596
0.441272
0.372894
0.305697
0.243298
0.188563
0.142074
0.107213
0.0828287
0.0626618
0.0527419
0.0533033
0.0567674
0.0727919
1.65854
1.56969
1.57257
1.25108
0.840133
0.619452
0.543515
0.469643
0.403642
0.346179
0.29269
0.241645
0.193766
0.154909
0.124135
0.0982967
0.0818396
0.0752353
0.0760355
0.0853289
4.36098
3.91341
3.04292
2.18242
2.11721
2.2991
2.28842
2.00946
1.64173
1.34363
1.08165
0.926968
0.885249
0.902386
0.953209
1.04923
1.18998
1.35303
1.50182
1.71704
3.88601
3.2255
1.62438
1.37512
1.95301
2.26868
2.25199
1.89078
1.30358
0.878031
0.623675
0.527715
0.539789
0.585208
0.668939
0.793898
0.960654
1.16302
1.34793
1.62298
3.09638
1.61536
1.17751
1.13289
1.93444
2.27016
2.24555
1.83907
1.03413
0.558995
0.414672
0.41343
0.436719
0.494401
0.5845
0.711023
0.867357
1.06682
1.30201
1.64193
2.15895
1.30718
1.06768
0.884232
1.60776
2.21407
2.33862
2.05195
0.950959
0.261423
0.284532
0.324042
0.364864
0.406631
0.456355
0.513624
0.589329
0.70146
0.899785
1.36326
2.01722
1.7989
1.7708
1.39356
0.208773
0.370925
0.401639
0.427048
0.441283
0.450758
0.463354
0.482197
0.512687
0.559325
0.625429
0.907164
2.17208
2.13291
2.14952
2.11014
0.491158
0.5132
0.504251
0.496803
0.49042
0.490541
0.492402
0.496902
0.504335
0.513473
0.526731
0.644324
2.17674
2.15012
2.15886
2.24209
0.534017
0.509119
0.502487
0.496131
0.490736
0.487875
0.487064
0.487902
0.490493
0.495121
0.502162
0.550602
1.92643
1.82249
1.77784
1.97302
0.446752
0.350329
0.366409
0.379121
0.389069
0.39579
0.401563
0.408714
0.418262
0.429665
0.440099
0.469843
1.58206
1.2646
1.00596
0.923357
0.217597
0.497981
0.539977
0.448216
0.0484991
0.0881326
0.143888
0.194584
0.23442
0.26388
0.28949
0.313971
0.335846
0.355971
0.369228
0.400272
1.29056
0.848642
0.544715
0.257854
0.376703
0.517546
0.512134
0.350635
0.0894141
0.0320216
0.0437788
0.0717031
0.108563
0.149123
0.190169
0.225098
0.252394
0.27869
0.300275
0.342339
1.03724
0.599891
0.403146
0.280522
0.405351
0.507671
0.504822
0.367806
0.146745
0.0446037
0.0255908
0.0299017
0.0473934
0.077187
0.111906
0.145637
0.176106
0.208748
0.239061
0.289845
0.890929
0.510778
0.404427
0.319958
0.429571
0.499838
0.498143
0.381794
0.198617
0.0737551
0.0304945
0.0283993
0.0317091
0.0429481
0.0625261
0.0880393
0.116618
0.151833
0.184379
0.237397
0.842448
0.5201
0.428233
0.36105
0.443528
0.493143
0.4927
0.392392
0.239515
0.111888
0.049299
0.0323746
0.0297174
0.0313795
0.038111
0.0531785
0.0772195
0.107907
0.137096
0.188675
0.85646
0.558315
0.482205
0.402015
0.452757
0.492884
0.489788
0.399112
0.269575
0.153944
0.0805828
0.0450003
0.0319819
0.0311106
0.0323017
0.0398266
0.0558368
0.0783131
0.102653
0.149232
0.902515
0.634085
0.563762
0.448975
0.464352
0.494573
0.48857
0.404532
0.295882
0.196537
0.117302
0.0664154
0.0401799
0.0328204
0.0336044
0.0370615
0.0446837
0.059201
0.0774491
0.117997
0.993652
0.75159
0.679565
0.502689
0.48087
0.49875
0.489171
0.411336
0.321325
0.233044
0.153146
0.093895
0.0573607
0.0422312
0.0380067
0.0385561
0.0408213
0.0470051
0.0587725
0.0941117
1.13053
0.909863
0.825273
0.571189
0.50826
0.5061
0.491702
0.421038
0.343149
0.261635
0.184852
0.12446
0.0837489
0.0607703
0.0479854
0.0421119
0.0423511
0.0462715
0.0540441
0.0805597
1.29232
1.11064
1.01242
0.669959
0.551476
0.515465
0.496566
0.43281
0.362768
0.288082
0.218579
0.161306
0.116655
0.0858294
0.0652638
0.0505711
0.0475967
0.0499346
0.0559833
0.075183
1.44164
1.29876
1.23986
0.843042
0.612991
0.527511
0.503958
0.443572
0.375841
0.309667
0.249236
0.194587
0.14741
0.111724
0.085069
0.0645133
0.0569117
0.0578716
0.0612603
0.0764202
1.6573
1.57519
1.59078
1.2876
0.869587
0.634934
0.551493
0.474702
0.408203
0.352577
0.30083
0.249215
0.200645
0.160545
0.128485
0.103618
0.0885959
0.0805754
0.0804512
0.0884028
4.27102
3.81629
3.14345
2.2784
2.15705
2.3044
2.29012
2.01762
1.65843
1.35713
1.09563
0.949628
0.902271
0.915822
0.966221
1.06471
1.20614
1.36025
1.50227
1.71458
3.77998
3.37966
1.77256
1.42278
1.9486
2.26586
2.24942
1.89442
1.31518
0.890748
0.630773
0.546289
0.559513
0.604232
0.689299
0.816862
0.987827
1.18295
1.36006
1.62454
3.20105
1.78914
1.20684
1.15351
1.92898
2.26347
2.24319
1.84465
1.04614
0.575229
0.425701
0.426035
0.454884
0.517825
0.611871
0.740435
0.897799
1.10156
1.3315
1.64552
2.2756
1.36107
1.08952
0.901895
1.6127
2.21878
2.34071
2.05604
0.967315
0.274846
0.29819
0.33654
0.378691
0.424238
0.477904
0.541073
0.623468
0.750645
0.966327
1.40944
2.0728
1.79883
1.76927
1.40144
0.219495
0.383478
0.414628
0.437659
0.450421
0.461804
0.476811
0.499084
0.534208
0.587467
0.664709
0.972891
2.18367
2.13454
2.15245
2.11793
0.497767
0.523066
0.512927
0.505038
0.498924
0.499174
0.501469
0.506479
0.514357
0.525393
0.54478
0.690152
2.18463
2.15337
2.16752
2.24944
0.539062
0.518153
0.510649
0.503125
0.498259
0.495239
0.494187
0.49526
0.49836
0.504418
0.513847
0.576807
1.93842
1.83281
1.79338
1.98318
0.450849
0.357203
0.373479
0.386804
0.39657
0.402455
0.407759
0.415706
0.427064
0.439401
0.449752
0.486495
1.59581
1.27853
1.02648
0.969782
0.207079
0.49758
0.539098
0.448518
0.0537604
0.0911698
0.149365
0.201599
0.241054
0.269635
0.296587
0.323538
0.346489
0.363748
0.376054
0.413153
1.29787
0.856611
0.558136
0.265099
0.377942
0.516514
0.511486
0.354165
0.0949628
0.0351675
0.0477486
0.0760656
0.112684
0.155568
0.199191
0.234808
0.262112
0.286474
0.308429
0.355262
1.04436
0.603101
0.4108
0.287493
0.407791
0.506889
0.504067
0.370236
0.153873
0.0490424
0.0286307
0.0329059
0.0519275
0.0839197
0.121457
0.156198
0.18436
0.217611
0.249804
0.302228
0.905314
0.521985
0.411277
0.324864
0.430506
0.499388
0.497119
0.383829
0.205743
0.0792356
0.0338107
0.0324563
0.0367213
0.0492372
0.0702099
0.09498
0.123769
0.161737
0.195951
0.248857
0.858941
0.532115
0.438961
0.366491
0.443609
0.493376
0.492385
0.394092
0.244799
0.116815
0.0543163
0.0375214
0.0330033
0.0345458
0.0409579
0.0576474
0.0845606
0.118572
0.149348
0.198726
0.873339
0.571765
0.496252
0.409808
0.454392
0.493513
0.489613
0.400298
0.273173
0.160244
0.0879489
0.0515633
0.0352926
0.0323064
0.034321
0.0438987
0.0623211
0.0884392
0.113117
0.15742
0.923714
0.651977
0.580286
0.459658
0.467674
0.495722
0.489556
0.405774
0.300347
0.204826
0.126938
0.0746727
0.0435142
0.0348712
0.0361187
0.0406247
0.050062
0.0664953
0.084493
0.125464
1.02231
0.776476
0.699223
0.517012
0.487064
0.5009
0.490793
0.413911
0.327978
0.241687
0.163161
0.101686
0.0623569
0.0463195
0.0415715
0.0427486
0.0465928
0.0531602
0.065297
0.102566
1.16495
0.948088
0.850123
0.589564
0.518471
0.509567
0.49451
0.425973
0.351202
0.26975
0.19293
0.132415
0.091536
0.0675215
0.0535932
0.0478249
0.0482008
0.0525609
0.0618053
0.0908352
1.32202
1.15162
1.04942
0.698604
0.56729
0.521227
0.501402
0.438933
0.36845
0.294573
0.22746
0.171936
0.127725
0.09609
0.072642
0.0566059
0.0541784
0.0568881
0.0643103
0.085531
1.46296
1.32967
1.28254
0.891805
0.638507
0.53813
0.511305
0.449862
0.381172
0.31707
0.260346
0.207006
0.159769
0.122464
0.0927305
0.0715323
0.0652262
0.0666218
0.0707699
0.0865101
1.66681
1.58905
1.61011
1.33604
0.922482
0.668983
0.571886
0.487208
0.419558
0.364929
0.313488
0.2612
0.211467
0.170183
0.137561
0.113438
0.0996619
0.0917606
0.0904007
0.0978474
4.17904
3.7267
3.2234
2.38069
2.20601
2.30544
2.2879
2.02734
1.67688
1.37319
1.1152
0.975291
0.924664
0.938199
0.990085
1.09002
1.22841
1.3725
1.50691
1.71105
3.6866
3.45846
1.94589
1.48323
1.94095
2.25341
2.24146
1.90131
1.3379
0.91058
0.650151
0.570192
0.58385
0.628658
0.715085
0.845285
1.01679
1.20263
1.372
1.61928
3.28344
1.99319
1.25373
1.1762
1.91697
2.25079
2.23821
1.8544
1.07695
0.599337
0.442435
0.443913
0.476621
0.541122
0.636124
0.764687
0.924014
1.12981
1.34713
1.63241
2.3914
1.43813
1.12383
0.922006
1.6076
2.20913
2.32745
2.04945
1.01384
0.289183
0.31132
0.347393
0.390502
0.439284
0.495706
0.56324
0.650711
0.793542
1.01694
1.43018
2.1418
1.80629
1.76933
1.41252
0.221416
0.392427
0.423533
0.443517
0.455873
0.468825
0.485869
0.511351
0.549549
0.608445
0.696016
1.02243
2.19712
2.13459
2.15909
2.1231
0.509727
0.528966
0.5186
0.510441
0.504083
0.504062
0.505671
0.510024
0.517791
0.530559
0.556825
0.726982
2.19087
2.15386
2.17864
2.25724
0.551647
0.52457
0.516421
0.508379
0.503199
0.499211
0.496518
0.497189
0.499775
0.506008
0.517024
0.5938
1.94614
1.83846
1.80501
1.99509
0.462423
0.36527
0.380877
0.392806
0.40184
0.407013
0.411585
0.419045
0.429188
0.440144
0.450852
0.496198
1.60605
1.2865
1.03876
0.951974
0.230078
0.495943
0.538085
0.44941
0.0560545
0.0966967
0.156213
0.208952
0.247282
0.276183
0.303186
0.32893
0.350342
0.366117
0.379299
0.420646
1.30699
0.86534
0.573571
0.277831
0.38305
0.516016
0.512235
0.358079
0.101267
0.0390944
0.0519103
0.0806477
0.11888
0.163766
0.207754
0.243075
0.269385
0.292815
0.314095
0.361405
1.06051
0.615493
0.423152
0.299612
0.413687
0.506613
0.505058
0.375066
0.162058
0.0545209
0.0326548
0.0377256
0.0579713
0.09189
0.131378
0.16511
0.192979
0.226855
0.257645
0.308396
0.927318
0.541165
0.425888
0.335458
0.433836
0.499464
0.497994
0.38843
0.214327
0.086142
0.0393453
0.0370963
0.0415257
0.0547847
0.0764041
0.102567
0.133772
0.172831
0.205882
0.255698
0.881583
0.552442
0.458846
0.378935
0.446319
0.493817
0.49346
0.398449
0.252352
0.125469
0.0619367
0.0427695
0.0367603
0.0376445
0.0451746
0.0650018
0.0945398
0.129878