/*--------------------------------*- C++ -*----------------------------------*\
  =========                 |
  \\      /  F ield         | OpenFOAM: The Open Source CFD Toolbox
   \\    /   O peration     | Website:  https://openfoam.org
    \\  /    A nd           | Version:  9
     \\/     M anipulation  |
\*---------------------------------------------------------------------------*/
FoamFile
{
    format      ascii;
    class       volScalarField;
    location    "0.0075";
    object      rho.Air;
}
// * * * * * * * * * * * * * * * * * * * * * * * * * * * * * * * * * * * * * //

dimensions      [1 -3 0 0 0 0 0];

internalField   nonuniform List<scalar> 
9720
(
0.00408178
0.00357811
0.00317658
0.00231772
0.00208948
0.00216049
0.00215883
0.00192463
0.00163997
0.00132362
0.00102518
0.00081848
0.000640391
0.000537917
0.000545668
0.000590896
0.000685577
0.000835252
0.00100815
0.0013552
0.00354737
0.00328509
0.00203025
0.00147338
0.00181872
0.00210567
0.00212869
0.00184568
0.0013374
0.000759989
0.000417931
0.000253412
0.000152403
0.000130226
0.000135888
0.000154864
0.000194507
0.000262818
0.000355325
0.000590269
0.00318446
0.00204415
0.00127391
0.00117333
0.00181795
0.00217247
0.00219057
0.00184158
0.00102948
0.000290185
0.000126795
7.14069e-05
4.54395e-05
4.06881e-05
4.19237e-05
4.63782e-05
5.59957e-05
7.48594e-05
0.000107331
0.000194645
0.00232241
0.00146113
0.00115086
0.000854282
0.00127425
0.00189103
0.00201437
0.00178456
0.000847413
3.184e-05
1.89933e-05
1.41879e-05
1.16667e-05
1.14464e-05
1.17872e-05
1.29125e-05
1.52223e-05
1.99444e-05
2.92847e-05
6.14741e-05
0.0020616
0.00177293
0.00177377
0.00127597
3.6286e-05
7.70449e-06
7.48653e-06
7.2374e-06
7.17373e-06
7.24819e-06
7.49343e-06
7.94979e-06
8.72366e-06
1.00339e-05
1.21214e-05
2.24745e-05
0.00211081
0.00205172
0.00213505
0.00183279
1.47708e-05
8.7144e-06
8.0734e-06
7.62987e-06
7.32116e-06
7.16855e-06
7.1904e-06
7.28552e-06
7.49894e-06
7.87653e-06
8.52626e-06
1.2505e-05
0.00210256
0.00207399
0.00216467
0.00195664
1.44415e-05
8.17019e-06
7.66201e-06
7.27657e-06
7.01603e-06
6.80433e-06
6.70364e-06
6.72568e-06
6.81408e-06
7.02884e-06
7.36836e-06
9.24351e-06
0.00186801
0.00179462
0.00181059
0.00171738
1.1168e-05
5.4181e-06
5.36415e-06
5.33939e-06
5.34747e-06
5.35461e-06
5.37526e-06
5.43916e-06
5.56942e-06
5.79754e-06
6.09289e-06
7.26039e-06
0.00158375
0.00128539
0.00098248
0.000747513
3.10473e-05
1.64918e-05
1.63252e-05
1.24631e-05
1.21227e-06
1.45403e-06
2.15182e-06
2.79851e-06
3.27025e-06
3.60733e-06
3.88231e-06
4.14296e-06
4.42772e-06
4.72834e-06
5.01482e-06
5.91877e-06
0.00127764
0.000732769
0.000286276
2.88468e-05
7.84025e-06
8.84388e-06
8.25423e-06
5.55739e-06
1.55429e-06
5.59231e-07
7.41288e-07
1.13011e-06
1.61161e-06
2.12957e-06
2.62835e-06
3.07287e-06
3.44881e-06
3.8088e-06
4.11325e-06
4.93782e-06
0.000989342
0.000401491
0.000121938
1.77449e-05
7.46031e-06
8.00001e-06
7.56143e-06
5.3969e-06
2.26251e-06
7.70497e-07
4.5426e-07
5.2455e-07
7.63584e-07
1.18109e-06
1.69144e-06
2.14786e-06
2.53597e-06
2.96887e-06
3.34651e-06
4.16176e-06
0.000786793
0.000242127
6.73502e-05
1.33515e-05
7.09051e-06
7.44595e-06
7.06116e-06
5.26659e-06
2.88153e-06
1.18807e-06
5.39393e-07
4.71964e-07
5.24318e-07
7.01049e-07
1.01041e-06
1.38046e-06
1.78141e-06
2.26027e-06
2.67368e-06
3.46124e-06
0.000609343
0.000146491
4.37044e-05
1.09687e-05
6.92464e-06
7.10045e-06
6.75725e-06
5.21667e-06
3.31349e-06
1.67119e-06
8.01364e-07
5.38942e-07
4.83527e-07
5.00439e-07
6.18358e-07
8.83158e-07
1.25329e-06
1.70228e-06
2.08303e-06
2.82536e-06
0.00050787
0.000119321
3.73489e-05
1.07138e-05
6.9865e-06
6.91143e-06
6.53521e-06
5.19063e-06
3.59671e-06
2.16761e-06
1.22766e-06
7.4241e-07
5.17552e-07
4.98141e-07
5.36161e-07
6.73556e-07
9.36175e-07
1.28435e-06
1.61323e-06
2.31767e-06
0.000515551
0.000123617
3.80977e-05
1.10182e-05
7.21437e-06
6.93233e-06
6.44434e-06
5.2078e-06
3.83353e-06
2.63714e-06
1.72791e-06
1.06649e-06
6.61725e-07
5.49196e-07
5.64663e-07
6.39933e-07
7.64477e-07
9.73719e-07
1.23464e-06
1.90581e-06
0.000559368
0.000139975
4.16471e-05
1.20429e-05
7.64952e-06
7.0319e-06
6.47135e-06
5.27797e-06
4.08448e-06
3.06376e-06
2.18022e-06
1.43849e-06
9.30495e-07
7.07107e-07
6.55575e-07
6.77305e-07
7.47901e-07
8.96145e-07
1.10539e-06
1.66196e-06
0.000652973
0.000176474
4.98986e-05
1.41332e-05
8.3949e-06
7.25652e-06
6.57769e-06
5.42379e-06
4.3638e-06
3.44034e-06
2.57015e-06
1.82917e-06
1.28095e-06
9.6938e-07
8.07604e-07
7.67353e-07
7.95771e-07
9.25516e-07
1.1239e-06
1.59593e-06
0.000804124
0.000242387
6.67243e-05
1.8304e-05
9.66809e-06
7.65547e-06
6.81872e-06
5.66906e-06
4.66903e-06
3.80786e-06
3.0034e-06
2.28998e-06
1.70658e-06
1.30308e-06
1.03194e-06
9.37909e-07
9.52298e-07
1.04947e-06
1.19239e-06
1.60024e-06
0.000980386
0.000332477
9.62745e-05
2.66709e-05
1.16972e-05
8.31449e-06
7.18478e-06
5.9754e-06
4.9673e-06
4.11897e-06
3.37497e-06
2.69339e-06
2.0907e-06
1.63633e-06
1.28633e-06
1.15615e-06
1.16507e-06
1.21442e-06
1.29212e-06
1.64503e-06
0.00132941
0.000563262
0.000178374
5.67318e-05
2.18417e-05
1.2423e-05
9.19911e-06
7.20939e-06
5.92745e-06
4.98065e-06
4.21764e-06
3.52249e-06
2.89273e-06
2.38132e-06
1.94422e-06
1.67113e-06
1.62646e-06
1.63165e-06
1.66948e-06
1.98742e-06
0.00418371
0.00380108
0.00340662
0.00240416
0.00214536
0.00223164
0.00222874
0.00201235
0.00167931
0.00124146
0.000867225
0.000627787
0.000461441
0.000367773
0.000372438
0.000407562
0.000488038
0.000629059
0.000806391
0.00117253
0.00377479
0.00380575
0.00230025
0.00179408
0.00191973
0.00229607
0.00241607
0.0020333
0.00131892
0.000531907
0.000234756
0.000127774
7.54116e-05
7.07938e-05
7.48942e-05
8.74633e-05
0.000113656
0.000161933
0.000233267
0.000421762
0.00345344
0.00232846
0.00171525
0.00204438
0.00331851
0.00354433
0.00341757
0.00289822
0.000878369
0.00010539
4.62671e-05
2.76874e-05
1.95491e-05
1.92646e-05
2.02788e-05
2.33502e-05
2.93668e-05
4.07844e-05
6.13334e-05
0.000119397
0.00243605
0.00177193
0.00186396
0.00331052
0.00971485
0.0103079
0.00978581
0.00917365
0.00124097
3.70765e-06
4.74122e-06
4.9899e-06
5.1084e-06
5.35978e-06
5.85613e-06
6.75984e-06
8.30875e-06
1.10684e-05
1.64582e-05
3.58541e-05
0.00213501
0.00188017
0.00308332
0.00882298
1.64735e-05
2.37839e-06
2.82326e-06
3.22343e-06
3.58342e-06
3.95279e-06
4.38498e-06
4.89209e-06
5.54096e-06
6.47337e-06
7.7895e-06
1.39985e-05
0.00218386
0.00223681
0.00351738
0.011214
2.54833e-06
3.04905e-06
3.43505e-06
3.77997e-06
4.08317e-06
4.35683e-06
4.62551e-06
4.90838e-06
5.2198e-06
5.59186e-06
6.07811e-06
8.68211e-06
0.00216519
0.00235567
0.00347383
0.0108216
3.13855e-06
3.36059e-06
3.68874e-06
3.96917e-06
4.22876e-06
4.45487e-06
4.64603e-06
4.84308e-06
5.05904e-06
5.33114e-06
5.63621e-06
6.97857e-06
0.00195102
0.00199897
0.00297477
0.0104659
2.93646e-06
2.51285e-06
2.82574e-06
3.12226e-06
3.39941e-06
3.64896e-06
3.87112e-06
4.09578e-06
4.34104e-06
4.61871e-06
4.88702e-06
5.76577e-06
0.0016249
0.00127653
0.000842017
0.00116683
8.2155e-06
1.93678e-06
2.37758e-06
2.17764e-06
3.56563e-07
6.96083e-07
1.21447e-06
1.73192e-06
2.16179e-06
2.51622e-06
2.85943e-06
3.20866e-06
3.54199e-06
3.84673e-06
4.10784e-06
4.85354e-06
0.00119239
0.000500285
9.78775e-05
2.40758e-06
1.79779e-06
2.40774e-06
2.63435e-06
1.99232e-06
6.43845e-07
3.13525e-07
4.30085e-07
7.045e-07
1.07545e-06
1.51995e-06
1.98153e-06
2.4023e-06
2.76417e-06
3.11402e-06
3.4307e-06
4.17899e-06
0.000824995
0.000212683
4.00189e-05
3.66898e-06
2.27344e-06
2.77971e-06
2.96687e-06
2.30341e-06
1.07454e-06
4.20926e-07
3.02769e-07
3.47365e-07
5.35957e-07
8.70813e-07
1.28433e-06
1.67423e-06
2.02337e-06
2.44985e-06
2.84036e-06
3.59225e-06
0.000590756
0.000113404
2.33583e-05
4.06225e-06
2.67345e-06
3.11819e-06
3.25636e-06
2.59338e-06
1.51282e-06
6.64983e-07
3.48338e-07
3.62708e-07
4.12576e-07
5.4119e-07
7.70637e-07
1.06724e-06
1.43002e-06
1.89071e-06
2.28972e-06
3.01386e-06
0.000425469
6.62367e-05
1.67419e-05
4.25079e-06
3.02062e-06
3.41619e-06
3.5231e-06
2.87434e-06
1.89852e-06
9.91254e-07
5.23839e-07
4.16174e-07
3.92268e-07
4.03915e-07
4.8694e-07
7.05487e-07
1.03462e-06
1.43718e-06
1.78881e-06
2.47204e-06
0.000332194
6.11729e-05
1.64486e-05
4.52112e-06
3.36816e-06
3.68635e-06
3.75808e-06
3.12162e-06
2.2242e-06
1.38703e-06
8.30339e-07
5.44224e-07
4.10088e-07
4.00865e-07
4.40817e-07
5.71306e-07
7.99056e-07
1.10101e-06
1.39266e-06
2.03763e-06
0.000335912
6.45758e-05
1.72647e-05
4.97712e-06
3.76919e-06
3.95624e-06
3.96537e-06
3.34356e-06
2.53718e-06
1.80325e-06
1.2047e-06
7.62328e-07
5.03006e-07
4.48395e-07
4.69717e-07
5.41708e-07
6.55628e-07
8.4648e-07
1.08179e-06
1.70721e-06
0.000367322
7.52464e-05
1.9802e-05
5.77544e-06
4.22835e-06
4.23786e-06
4.17142e-06
3.56855e-06
2.85757e-06
2.18816e-06
1.56816e-06
1.04255e-06
7.12957e-07
5.86333e-07
5.51673e-07
5.69891e-07
6.36438e-07
7.75458e-07
9.75339e-07
1.51121e-06
0.00044237
9.83952e-05
2.49093e-05
7.13415e-06
4.81534e-06
4.54572e-06
4.39475e-06
3.8101e-06
3.16737e-06
2.53039e-06
1.90136e-06
1.38074e-06
1.01514e-06
8.04368e-07
6.78401e-07
6.50157e-07
6.7858e-07
8e-07
9.89152e-07
1.44726e-06
0.000578555
0.000142408
3.48043e-05
9.49535e-06
5.66644e-06
4.91375e-06
4.67239e-06
4.08023e-06
3.46062e-06
2.86431e-06
2.29856e-06
1.80206e-06
1.38451e-06
1.0817e-06
8.69069e-07
8.08877e-07
8.22386e-07
9.07374e-07
1.04387e-06
1.44597e-06
0.0007546
0.000208121
5.28971e-05
1.42386e-05
6.88683e-06
5.37817e-06
4.97858e-06
4.3433e-06
3.71626e-06
3.15545e-06
2.65229e-06
2.16913e-06
1.72045e-06
1.3636e-06
1.09242e-06
1.01651e-06
1.0251e-06
1.06832e-06
1.14288e-06
1.48251e-06
0.00111786
0.000384047
0.000105111
3.19418e-05
1.2789e-05
7.90541e-06
6.32258e-06
5.21821e-06
4.4447e-06
3.86256e-06
3.35795e-06
2.86579e-06
2.3963e-06
2.00565e-06
1.68869e-06
1.50029e-06
1.47806e-06
1.48317e-06
1.51455e-06
1.8121e-06
0.00441934
0.00444116
0.00414976
0.00280807
0.00236569
0.0024049
0.00240788
0.00222621
0.00160633
0.000871615
0.000436085
0.000231934
0.000144855
0.000107403
0.000111445
0.000127095
0.000163517
0.000239999
0.000359927
0.000676501
0.00440428
0.00549486
0.00332483
0.00242921
0.00255802
0.00352889
0.00377775
0.00336604
0.000765641
0.000123279
4.73049e-05
2.23541e-05
1.46815e-05
1.53785e-05
1.75679e-05
2.18937e-05
3.01748e-05
4.671e-05
7.48757e-05
0.000156809
0.0042693
0.00341802
0.00339801
0.00502008
0.00580701
0.00630999
0.00686845
0.00491064
0.000168804
9.45908e-06
5.29962e-06
3.93403e-06
4.02474e-06
4.48811e-06
5.29017e-06
6.52177e-06
8.46058e-06
1.18473e-05
1.81692e-05
3.74611e-05
0.00291088
0.00243352
0.0047279
0.0198313
0.010438
0.0111857
0.024262
0.000826438
1.41018e-05
1.07742e-06
1.47996e-06
1.88637e-06
2.26723e-06
2.63714e-06
3.05844e-06
3.64771e-06
4.40689e-06
5.48969e-06
7.39043e-06
1.37173e-05
0.00239254
0.00277941
0.00473063
0.000452145
9.21711e-07
2.49043e-06
2.75734e-06
2.97429e-06
3.14361e-06
3.31306e-06
3.52331e-06
3.78026e-06
4.14107e-06
4.69432e-06
5.40853e-06
8.16273e-06
0.00234789
0.00354135
0.00689898
0.0262102
2.80305e-06
3.75119e-06
3.7794e-06
3.83646e-06
3.92608e-06
4.0387e-06
4.17271e-06
4.31279e-06
4.47877e-06
4.69338e-06
4.96592e-06
6.46103e-06
0.00234025
0.00382087
0.00731728
0.0270723
3.57477e-06
4.18474e-06
4.18699e-06
4.21001e-06
4.26958e-06
4.35785e-06
4.44911e-06
4.5492e-06
4.67553e-06
4.83708e-06
5.02844e-06
5.88409e-06
0.00216999
0.00346501
0.00525663
0.000608114
3.37763e-06
3.14422e-06
3.27793e-06
3.41799e-06
3.54239e-06
3.65901e-06
3.78777e-06
3.95532e-06
4.16099e-06
4.38033e-06
4.58247e-06
5.19224e-06
0.00161139
0.000814249
0.000168842
1.15141e-05
8.1942e-07
2.32733e-06
2.9479e-06
2.75434e-06
4.46845e-07
8.85741e-07
1.43414e-06
1.90794e-06
2.27934e-06
2.5835e-06
2.89625e-06
3.21773e-06
3.49601e-06
3.73909e-06
3.94604e-06
4.54634e-06
0.000866799
0.000121428
8.73361e-06
7.49171e-07
2.02292e-06
3.06391e-06
3.40418e-06
2.56979e-06
7.89808e-07
3.49291e-07
4.70825e-07
7.57576e-07
1.14707e-06
1.61021e-06
2.06913e-06
2.43873e-06
2.74671e-06
3.06212e-06
3.36984e-06
4.05583e-06
0.000425637
4.37463e-05
4.47099e-06
1.09589e-06
2.22401e-06
3.06241e-06
3.3769e-06
2.67199e-06
1.23113e-06
4.46603e-07
3.09615e-07
3.59169e-07
5.73625e-07
9.20909e-07
1.31063e-06
1.68211e-06
2.01859e-06
2.45069e-06
2.86791e-06
3.58614e-06
0.000220103
1.97232e-05
3.05181e-06
1.43198e-06
2.38205e-06
3.08584e-06
3.39053e-06
2.78195e-06
1.62015e-06
6.88139e-07
3.53275e-07
3.73207e-07
4.23395e-07
5.46033e-07
7.6942e-07
1.0604e-06
1.43145e-06
1.92808e-06
2.3534e-06
3.06464e-06
0.000129596
1.17636e-05
3.12353e-06
1.7414e-06
2.50175e-06
3.13742e-06
3.42944e-06
2.88753e-06
1.9311e-06
1.01269e-06
5.36816e-07
4.17444e-07
3.98781e-07
4.15266e-07
4.92309e-07
7.03825e-07
1.04798e-06
1.47335e-06
1.85178e-06
2.54184e-06
8.9881e-05
1.22171e-05
3.50414e-06
2.03454e-06
2.62013e-06
3.21298e-06
3.49067e-06
2.98039e-06
2.183e-06
1.40329e-06
8.36279e-07
5.26661e-07
4.15921e-07
4.13417e-07
4.5028e-07
5.82849e-07
8.14317e-07
1.13314e-06
1.44026e-06
2.10181e-06
9.25428e-05
1.39279e-05
4.14154e-06
2.3551e-06
2.77116e-06
3.3142e-06
3.5616e-06
3.08066e-06
2.43795e-06
1.79777e-06
1.17891e-06
7.28139e-07
4.93919e-07
4.5479e-07
4.79234e-07
5.51239e-07
6.77902e-07
8.80931e-07
1.11594e-06
1.7715e-06
0.000105491
1.74706e-05
5.11985e-06
2.80852e-06
2.96276e-06
3.42679e-06
3.64254e-06
3.21346e-06
2.69828e-06
2.11865e-06
1.50727e-06
9.92468e-07
6.9203e-07
5.91128e-07
5.61006e-07
5.81375e-07
6.50701e-07
7.79865e-07
9.79324e-07
1.57638e-06
0.00013682
2.44019e-05
6.67488e-06
3.41673e-06
3.23862e-06
3.56367e-06
3.74901e-06
3.37996e-06
2.92633e-06
2.38118e-06
1.80599e-06
1.32631e-06
1.00212e-06
8.11445e-07
6.97617e-07
6.63391e-07
6.86004e-07
7.94544e-07
9.89186e-07
1.50425e-06
0.000204265
3.85277e-05
9.42427e-06
4.26452e-06
3.67818e-06
3.74967e-06
3.89248e-06
3.56424e-06
3.12764e-06
2.64616e-06
2.17748e-06
1.75429e-06
1.38002e-06
1.09558e-06
8.87674e-07
8.10619e-07
8.19129e-07
8.99236e-07
1.05589e-06
1.51066e-06
0.00031351
6.28719e-05
1.46635e-05
5.80426e-06
4.2799e-06
3.9815e-06
4.06205e-06
3.74177e-06
3.305e-06
2.89645e-06
2.518e-06
2.1161e-06
1.71365e-06
1.36998e-06
1.0965e-06
1.02021e-06
1.03057e-06
1.08423e-06
1.1796e-06
1.5505e-06
0.000612559
0.000134536
3.11879e-05
1.13001e-05
6.67213e-06
5.26865e-06
4.82698e-06
4.29509e-06
3.82963e-06
3.46915e-06
3.11919e-06
2.72899e-06
2.32141e-06
1.96627e-06
1.6877e-06
1.53705e-06
1.53467e-06
1.54617e-06
1.57969e-06
1.88386e-06
0.00396743
0.00422557
0.00451273
0.00322324
0.00268593
0.00245758
0.00225603
0.00206891
0.00134114
0.000329546
0.000101111
3.67449e-05
1.6935e-05
1.33143e-05
1.43614e-05
1.72894e-05
2.39519e-05
3.97247e-05
7.01752e-05
0.00018713
0.0041821
0.0106914
0.0139305
0.00999827
0.00827309
0.0080573
0.00716421
0.00564654
0.000177957
2.06474e-05
9.52273e-06
4.43646e-06
3.35943e-06
3.62215e-06
4.29668e-06
5.35316e-06
6.97373e-06
9.94372e-06
1.52806e-05
3.25433e-05
0.00454187
0.0143185
0.0144437
0.00870105
0.00849487
0.00929722
0.00973264
0.00647581
1.34254e-05
1.44816e-06
1.71843e-06
2.01205e-06
2.39852e-06
2.95909e-06
3.60852e-06
4.34419e-06
5.17455e-06
6.24442e-06
7.81974e-06
1.18541e-05
0.00328337
0.0106884
0.00918196
0.000358173
0.000893196
0.00248188
0.0281522
0.00036591
7.16143e-07
1.32673e-06
1.78297e-06
2.24925e-06
2.65475e-06
2.99323e-06
3.3509e-06
3.80988e-06
4.4234e-06
5.24997e-06
6.53085e-06
9.34144e-06
0.00264983
0.00873646
0.00929775
0.000721409
1.78022e-06
3.40457e-06
3.67762e-06
3.88186e-06
4.01148e-06
4.11744e-06
4.26109e-06
4.45923e-06
4.75213e-06
5.21238e-06
5.85267e-06
7.93435e-06
0.00231423
0.0080058
0.00976688
0.0132682
4.17575e-06
5.15653e-06
5.11046e-06
5.04147e-06
5.03088e-06
5.04952e-06
5.09786e-06
5.16882e-06
5.2659e-06
5.39735e-06
5.5824e-06
6.8196e-06
0.00209037
0.00689152
0.00960305
0.0292916
5.20374e-06
5.66872e-06
5.61381e-06
5.5442e-06
5.48853e-06
5.46348e-06
5.46039e-06
5.47088e-06
5.51308e-06
5.59943e-06
5.72377e-06
6.40342e-06
0.00189229
0.00531455
0.00655443
0.000486584
4.7977e-06
4.15772e-06
4.31818e-06
4.45659e-06
4.5401e-06
4.57847e-06
4.6329e-06
4.73537e-06
4.88676e-06
5.06079e-06
5.22967e-06
5.73163e-06
0.00142438
0.000211221
1.1e-05
5.19918e-07
1.3922e-06
3.33402e-06
4.16659e-06
3.82795e-06
5.44981e-07
1.07672e-06
1.7791e-06
2.38634e-06
2.85303e-06
3.20963e-06
3.53645e-06
3.84904e-06
4.11596e-06
4.35958e-06
4.54938e-06
5.0657e-06
0.000401798
2.89026e-05
1.30882e-06
1.02092e-06
2.65245e-06
4.03101e-06
4.43848e-06
3.31279e-06
9.70282e-07
4.05322e-07
5.49995e-07
9.04129e-07
1.40041e-06
1.95755e-06
2.49728e-06
2.91906e-06
3.23501e-06
3.56835e-06
3.87823e-06
4.5361e-06
0.000120669
1.17395e-05
1.49908e-06
1.36681e-06
2.86216e-06
3.99183e-06
4.39161e-06
3.45066e-06
1.54296e-06
5.28493e-07
3.44432e-07
4.02398e-07
6.51074e-07
1.07009e-06
1.53009e-06
1.95631e-06
2.35861e-06
2.83903e-06
3.28703e-06
4.04069e-06
4.01124e-05
5.0151e-06
1.68042e-06
1.71377e-06
3.01744e-06
3.93096e-06
4.34139e-06
3.56116e-06
2.04581e-06
8.27915e-07
3.93118e-07
4.12384e-07
4.67416e-07
6.0824e-07
8.59362e-07
1.21639e-06
1.66267e-06
2.22044e-06
2.70138e-06
3.48423e-06
1.57168e-05
2.8118e-06
1.93439e-06
2.01554e-06
3.1179e-06
3.92292e-06
4.29681e-06
3.62208e-06
2.40972e-06
1.2318e-06
5.99522e-07
4.56706e-07
4.51829e-07
4.75746e-07
5.71078e-07
8.09153e-07
1.19175e-06
1.66873e-06
2.10622e-06
2.90729e-06
1.06878e-05
2.92556e-06
2.31942e-06
2.28253e-06
3.19815e-06
3.93851e-06
4.28583e-06
3.6645e-06
2.67821e-06
1.68044e-06
9.50783e-07
5.73669e-07
4.72897e-07
4.80556e-07
5.23517e-07
6.58504e-07
9.06129e-07
1.25547e-06
1.62836e-06
2.42137e-06
1.13958e-05
3.37878e-06
2.78796e-06
2.5637e-06
3.30761e-06
3.98055e-06
4.29451e-06
3.71991e-06
2.92705e-06
2.12379e-06
1.35061e-06
7.9146e-07
5.58177e-07
5.23999e-07
5.48296e-07
6.15802e-07
7.48254e-07
9.86822e-07
1.28798e-06
2.04792e-06
1.36794e-05
4.16424e-06
3.33239e-06
2.9115e-06
3.45786e-06
4.04667e-06
4.31671e-06
3.80991e-06
3.17684e-06
2.48705e-06
1.72389e-06
1.1016e-06
7.66235e-07
6.53091e-07
6.21991e-07
6.40393e-07
7.06117e-07
8.51346e-07
1.07841e-06
1.77054e-06
1.9082e-05
5.41436e-06
3.95911e-06
3.3724e-06
3.68173e-06
4.1388e-06
4.36623e-06
3.93809e-06
3.40254e-06
2.7634e-06
2.0645e-06
1.47916e-06
1.09169e-06
8.78943e-07
7.60568e-07
7.17598e-07
7.4285e-07
8.59609e-07
1.05661e-06
1.62879e-06
3.23337e-05
7.814e-06
4.76199e-06
3.97812e-06
4.03437e-06
4.26247e-06
4.45686e-06
4.0912e-06
3.61039e-06
3.03879e-06
2.45513e-06
1.94078e-06
1.50163e-06
1.18321e-06
9.71978e-07
8.70092e-07
8.74682e-07
9.49301e-07
1.10369e-06
1.61996e-06
5.89132e-05
1.23247e-05
5.98884e-06
4.91844e-06
4.54475e-06
4.42008e-06
4.57478e-06
4.2404e-06
3.76815e-06
3.28289e-06
2.81216e-06
2.33939e-06
1.87201e-06
1.49148e-06
1.21452e-06
1.07711e-06
1.07998e-06
1.12528e-06
1.22599e-06
1.66231e-06
0.000166237
2.74609e-05
9.31984e-06
7.18122e-06
6.20444e-06
5.42659e-06
5.16676e-06
4.68893e-06
4.20674e-06
3.81363e-06
3.43107e-06
2.99518e-06
2.53477e-06
2.14421e-06
1.83638e-06
1.62388e-06
1.61759e-06
1.63094e-06
1.67516e-06
2.0351e-06
0.0016147
0.00160615
0.0014596
0.00115954
0.00100183
0.000877326
0.000792504
0.000727152
0.000566974
0.000130894
3.91447e-05
1.21602e-05
4.73533e-06
4.06028e-06
4.38005e-06
5.17507e-06
6.70937e-06
1.01801e-05
1.76311e-05
5.62704e-05
0.00162201
0.00267497
0.00263574
0.00252896
0.00246664
0.00259778
0.00247752
0.00191199
5.51296e-05
9.82644e-06
5.53935e-06
3.02882e-06
2.76613e-06
3.00427e-06
3.48599e-06
4.18111e-06
5.03228e-06
6.2263e-06
7.98256e-06
1.31467e-05
0.00149878
0.00266807
0.00467684
0.00507388
0.00675346
0.00695343
0.00731287
0.00497966
2.31699e-06
1.44978e-06
1.64719e-06
1.95252e-06
2.38982e-06
3.00271e-06
3.78328e-06
4.60309e-06
5.42302e-06
6.33711e-06
7.41501e-06
9.36515e-06
0.00121213
0.00240277
0.00488254
0.00148991
0.00224804
3.38109e-09
0.0218189
0.00041277
7.2547e-07
1.55812e-06
2.11812e-06
2.693e-06
3.17689e-06
3.56693e-06
3.9142e-06
4.31819e-06
4.87132e-06
5.65562e-06
6.94504e-06
9.55933e-06
0.00102948
0.0024917
0.00572042
9.59306e-05
2.08383e-06
4.01726e-06
4.34136e-06
4.59717e-06
4.75824e-06
4.8612e-06
4.99893e-06
5.1875e-06
5.4668e-06
5.91151e-06
6.5465e-06
8.58115e-06
0.000875809
0.00265991
0.00704004
0.00031629
5.29418e-06
6.10947e-06
6.03973e-06
5.95975e-06
5.9468e-06
5.96053e-06
5.99284e-06
6.04439e-06
6.12224e-06
6.2266e-06
6.3693e-06
7.50275e-06
0.000783409
0.00248766
0.00744178
0.0241588
6.5614e-06
6.73052e-06
6.63747e-06
6.54801e-06
6.49118e-06
6.46008e-06
6.42575e-06
6.41851e-06
6.43245e-06
6.48202e-06
6.57111e-06
7.15931e-06
0.000714612
0.00188237
0.00499856
0.000303137
6.0111e-06
4.89398e-06
5.07888e-06
5.23382e-06
5.33816e-06
5.38882e-06
5.44044e-06
5.53317e-06
5.67357e-06
5.8449e-06
6.0113e-06
6.46475e-06
0.000623188
7.61883e-05
4.41539e-06
5.60209e-07
1.65133e-06
4.10103e-06
5.0781e-06
4.59981e-06
6.25595e-07
1.22542e-06
2.02209e-06
2.76308e-06
3.3473e-06
3.76078e-06
4.11295e-06
4.44097e-06
4.74916e-06
5.05385e-06
5.25917e-06
5.73942e-06
0.000160982
1.37053e-05
1.25246e-06
1.24315e-06
3.20959e-06
4.84434e-06
5.28978e-06
3.91534e-06
1.11936e-06
4.40939e-07
6.25996e-07
1.05094e-06
1.62468e-06
2.24181e-06
2.83547e-06
3.37542e-06
3.8021e-06
4.16479e-06
4.46759e-06
5.11596e-06
4.81875e-05
6.84986e-06
1.45784e-06
1.6777e-06
3.4673e-06
4.79437e-06
5.24223e-06
4.08165e-06
1.76389e-06
5.97192e-07
3.84724e-07
4.41748e-07
6.9773e-07
1.15981e-06
1.74374e-06
2.32367e-06
2.79433e-06
3.27534e-06
3.73158e-06
4.55717e-06
1.47792e-05
3.61339e-06
1.73441e-06
2.12243e-06
3.66478e-06
4.73326e-06
5.19277e-06
4.20058e-06
2.36571e-06
9.5652e-07
4.32253e-07
4.42756e-07
5.0062e-07
6.90316e-07
1.02464e-06
1.45762e-06
1.94281e-06
2.50924e-06
3.05027e-06
3.96662e-06
4.83492e-06
2.45332e-06
2.07237e-06
2.49773e-06
3.79007e-06
4.71596e-06
5.1463e-06
4.29104e-06
2.83621e-06
1.43073e-06
6.42336e-07
4.92728e-07
5.17795e-07
5.73055e-07
6.92297e-07
9.43164e-07
1.32878e-06
1.86499e-06
2.40948e-06
3.33841e-06
3.4959e-06
2.55913e-06
2.51448e-06
2.81599e-06
3.87318e-06
4.72724e-06
5.1194e-06
4.36989e-06
3.17014e-06
1.93243e-06
1.02663e-06
6.46985e-07
5.67235e-07
5.81577e-07
6.1092e-07
7.20513e-07
9.82149e-07
1.43268e-06
1.89112e-06
2.78918e-06
3.71671e-06
2.89113e-06
3.07683e-06
3.10198e-06
3.98354e-06
4.76171e-06
5.12229e-06
4.43636e-06
3.44689e-06
2.41708e-06
1.51915e-06
9.19897e-07
6.64601e-07
6.09178e-07
6.18934e-07
6.86384e-07
8.60789e-07
1.16794e-06
1.52145e-06
2.34501e-06
4.31708e-06
3.41064e-06
3.67645e-06
3.42208e-06
4.13497e-06
4.8175e-06
5.13237e-06
4.5107e-06
3.69908e-06
2.86316e-06
2.00467e-06
1.27946e-06
8.73061e-07
7.10233e-07
6.90948e-07
7.30626e-07
8.3147e-07
9.90694e-07
1.22354e-06
1.95178e-06
5.51333e-06
4.06292e-06
4.30056e-06
3.85524e-06
4.35612e-06
4.89619e-06
5.1577e-06
4.61764e-06
3.9489e-06
3.22133e-06
2.40377e-06
1.68766e-06
1.19508e-06
9.37189e-07
8.59059e-07
8.3701e-07
8.62671e-07
9.56837e-07
1.13009e-06
1.7434e-06
8.38905e-06
5.01994e-06
4.99104e-06
4.44235e-06
4.70435e-06
5.001e-06
5.21773e-06
4.76473e-06
4.21461e-06
3.53619e-06
2.80933e-06
2.16146e-06
1.64279e-06
1.30913e-06
1.11448e-06
9.86025e-07
9.59266e-07
1.01396e-06
1.16355e-06
1.7516e-06
1.48335e-05
6.4894e-06
5.84423e-06
5.38174e-06
5.20552e-06
5.12779e-06
5.30868e-06
4.91986e-06
4.38997e-06
3.78494e-06
3.17464e-06
2.60312e-06
2.08008e-06
1.66876e-06
1.38474e-06
1.17088e-06
1.13227e-06
1.1692e-06
1.28679e-06
1.80971e-06
5.01266e-05
1.10193e-05
7.44809e-06
7.46689e-06
6.80479e-06
6.03738e-06
5.82237e-06
5.33773e-06
4.79323e-06
4.30024e-06
3.83553e-06
3.34607e-06
2.82555e-06
2.38448e-06
2.02682e-06
1.70494e-06
1.67672e-06
1.70921e-06
1.78453e-06
2.21219e-06
0.00159829
0.00160787
0.00146899
0.00115885
0.000995262
0.000869349
0.00078565
0.000721251
0.000526429
0.000116828
3.58565e-05
1.15116e-05
4.5745e-06
4.03314e-06
4.35676e-06
5.17156e-06
6.74433e-06
1.02741e-05
1.7854e-05
5.74514e-05
0.00160093
0.00265371
0.00263644
0.00257453
0.00243999
0.00255256
0.00244478
0.00190442
4.91806e-05
8.77168e-06
5.19707e-06
2.94641e-06
2.77443e-06
3.02156e-06
3.51961e-06
4.24106e-06
5.11807e-06
6.33356e-06
8.1126e-06
1.33445e-05
0.00149013
0.00265951
0.00468775
0.00506211
0.00695526
0.00691529
0.00720646
0.00495081
2.76317e-06
1.4653e-06
1.66828e-06
1.98214e-06
2.42666e-06
3.06047e-06
3.871e-06
4.72803e-06
5.5727e-06
6.49431e-06
7.59331e-06
9.57544e-06
0.00121448
0.00240886
0.00493911
0.00158038
0.00615337
0.000144912
0.0170858
0.000217639
7.47583e-07
1.58223e-06
2.17485e-06
2.78345e-06
3.29214e-06
3.69584e-06
4.05683e-06
4.47468e-06
5.05466e-06
5.85891e-06
7.2034e-06
9.85853e-06
0.00103641
0.0025676
0.00581063
1.50447e-06
2.2557e-06
4.11217e-06
4.45173e-06
4.72447e-06
4.89488e-06
5.00516e-06
5.14914e-06
5.35124e-06
5.64882e-06
6.11635e-06
6.7804e-06
8.89936e-06
0.000882767
0.00272401
0.00717798
0.00302006
5.68091e-06
6.27724e-06
6.21445e-06
6.13837e-06
6.12677e-06
6.14277e-06
6.18541e-06
6.25027e-06
6.34258e-06
6.46112e-06
6.61489e-06
7.79634e-06
0.000788386
0.00251455
0.00750021
0.0272448
7.09421e-06
6.95045e-06
6.86056e-06
6.77395e-06
6.70851e-06
6.67365e-06
6.65222e-06
6.65547e-06
6.67721e-06
6.74029e-06
6.84033e-06
7.45423e-06
0.000718075
0.00190631
0.00503341
0.000737824
6.51501e-06
5.1078e-06
5.28809e-06
5.43018e-06
5.53069e-06
5.60842e-06
5.67808e-06
5.76697e-06
5.90656e-06
6.0872e-06
6.26183e-06
6.73156e-06
0.00059361
6.75492e-05
4.533e-06
5.18283e-07
1.65895e-06
4.68548e-06
5.77046e-06
5.21135e-06
7.00881e-07
1.31335e-06
2.13951e-06
2.90833e-06
3.50883e-06
3.93113e-06
4.29673e-06
4.62787e-06
4.94383e-06
5.27506e-06
5.49575e-06
5.9849e-06
0.000141693
1.1967e-05
1.29458e-06
1.29876e-06
3.42102e-06
5.18549e-06
5.65759e-06
4.15715e-06
1.14943e-06
4.60474e-07
6.63048e-07
1.11728e-06
1.7115e-06
2.34061e-06
2.9555e-06
3.5179e-06
3.9614e-06
4.34358e-06
4.66184e-06
5.3267e-06
4.279e-05
6.31615e-06
1.49223e-06
1.7758e-06
3.6964e-06
5.12087e-06
5.57874e-06
4.32208e-06
1.82365e-06
6.20364e-07
4.04608e-07
4.64449e-07
7.33412e-07
1.22098e-06
1.83125e-06
2.42923e-06
2.91214e-06
3.40822e-06
3.88041e-06
4.73376e-06
1.36372e-05
3.51106e-06
1.78881e-06
2.25879e-06
3.90951e-06
5.05042e-06
5.50521e-06
4.45779e-06
2.46192e-06
9.94561e-07
4.52768e-07
4.62669e-07
5.21247e-07
7.20106e-07
1.07108e-06
1.5174e-06
2.01098e-06
2.59611e-06
3.16047e-06
4.11199e-06
4.61819e-06
2.51749e-06
2.16632e-06
2.66587e-06
4.03564e-06
5.01335e-06
5.45073e-06
4.54924e-06
2.96306e-06
1.48767e-06
6.72961e-07
5.12978e-07
5.36013e-07
5.86395e-07
7.08939e-07
9.65306e-07
1.36891e-06
1.93243e-06
2.49013e-06
3.45528e-06
3.45937e-06
2.63541e-06
2.65223e-06
3.00939e-06
4.12342e-06
5.02178e-06
5.41636e-06
4.59935e-06
3.31183e-06
2.012e-06
1.07758e-06
6.76968e-07
5.82107e-07
5.92945e-07
6.20814e-07
7.42887e-07
1.03002e-06
1.48482e-06
1.95429e-06
2.88217e-06
3.69195e-06
2.98014e-06
3.24689e-06
3.31542e-06
4.23492e-06
5.05264e-06
5.40992e-06
4.64814e-06
3.60793e-06
2.5279e-06
1.58678e-06
9.62561e-07
6.82877e-07
6.20729e-07
6.35417e-07
7.15901e-07
8.9142e-07
1.19531e-06
1.55956e-06
2.4138e-06
4.29528e-06
3.52772e-06
3.88564e-06
3.65283e-06
4.39128e-06
5.10475e-06
5.41493e-06
4.72993e-06
3.88698e-06
2.9865e-06
2.08637e-06
1.33359e-06
8.95705e-07
7.34344e-07
7.19641e-07
7.55287e-07
8.43583e-07
9.99944e-07
1.24264e-06
1.99843e-06
5.45589e-06
4.20118e-06
4.53609e-06
4.09312e-06
4.62111e-06
5.18131e-06
5.43912e-06
4.85569e-06
4.14069e-06
3.34714e-06
2.49969e-06
1.7542e-06
1.23834e-06
9.79569e-07
8.82151e-07
8.47758e-07
8.72884e-07
9.80206e-07
1.16417e-06
1.79196e-06
8.11684e-06
5.1352e-06
5.24719e-06
4.71165e-06
4.98165e-06
5.28508e-06
5.50085e-06
5.00899e-06
4.38282e-06
3.6664e-06
2.92072e-06
2.25023e-06
1.70237e-06
1.34537e-06
1.13508e-06
9.98079e-07
9.82604e-07
1.04636e-06
1.20644e-06
1.80451e-06
1.40779e-05
6.55919e-06
6.08383e-06
5.6999e-06
5.49977e-06
5.41022e-06
5.59188e-06
5.15676e-06
4.55817e-06
3.93242e-06
3.30635e-06
2.704e-06
2.14601e-06
1.72041e-06
1.42155e-06
1.19592e-06
1.16446e-06
1.2082e-06
1.33374e-06
1.87752e-06
4.65225e-05
1.09151e-05
7.6758e-06
7.79803e-06
7.13754e-06
6.33185e-06
6.10352e-06
5.56946e-06
4.99221e-06
4.48396e-06
3.98941e-06
3.46964e-06
2.92849e-06
2.47627e-06
2.09322e-06
1.75211e-06
1.72145e-06
1.75695e-06
1.84542e-06
2.30765e-06
0.00395905
0.00424564
0.00453518
0.00321864
0.00262374
0.00241315
0.00222593
0.00203767
0.00119383
0.000276588
8.6206e-05
3.2126e-05
1.39393e-05
1.16946e-05
1.27827e-05
1.58059e-05
2.2662e-05
3.87093e-05
6.95707e-05
0.000189134
0.00415653
0.010713
0.0142023
0.0101441
0.00812223
0.00773008
0.00691796
0.00549843
0.00013979
1.58595e-05
7.95526e-06
3.95762e-06
3.32984e-06
3.6295e-06
4.31181e-06
5.38571e-06
7.04645e-06
1.0014e-05
1.52445e-05
3.19062e-05
0.00450893
0.0140101
0.0142917
0.00883446
0.00981739
0.0093471
0.00950424
0.00647561
9.68345e-06
1.55609e-06
1.77175e-06
2.07183e-06
2.49979e-06
3.126e-06
3.88006e-06
4.6804e-06
5.55002e-06
6.63857e-06
8.22232e-06
1.20736e-05
0.00326896
0.0106467
0.00908337
0.00108249
0.00566721
8.2444e-10
0.0187994
0.000173245
7.58637e-07
1.48852e-06
2.01452e-06
2.54493e-06
3.00082e-06
3.37782e-06
3.7397e-06
4.20073e-06
4.8351e-06
5.71978e-06
7.10417e-06
9.97735e-06
0.00267186
0.00920275
0.00878831
1.31636e-06
2.22268e-06
3.83586e-06
4.15809e-06
4.39771e-06
4.54407e-06
4.65277e-06
4.80107e-06
4.99978e-06
5.29967e-06
5.78183e-06
6.46479e-06
8.66077e-06
0.00232449
0.00839587
0.0101397
0.0067927
5.51755e-06
5.83873e-06
5.781e-06
5.70763e-06
5.69998e-06
5.71867e-06
5.76916e-06
5.84222e-06
5.94105e-06
6.0657e-06
6.24192e-06
7.52988e-06
0.00209641
0.00711905
0.00982072
0.0309569
6.90078e-06
6.46285e-06
6.38793e-06
6.3075e-06
6.24624e-06
6.21984e-06
6.22325e-06
6.23729e-06
6.28066e-06
6.36077e-06
6.47277e-06
7.15027e-06
0.00190302
0.00548863
0.00657494
0.000192979
6.36058e-06
4.79626e-06
4.95998e-06
5.09145e-06
5.18847e-06
5.25607e-06
5.32931e-06
5.43772e-06
5.59029e-06
5.77105e-06
5.94544e-06
6.45518e-06
0.00122523
0.000141839
7.78111e-06
6.35695e-07
1.86781e-06
4.58648e-06
5.66662e-06
5.15159e-06
6.86644e-07
1.2805e-06
2.08951e-06
2.79607e-06
3.33164e-06
3.72481e-06
4.07752e-06
4.42121e-06
4.72192e-06
4.99688e-06
5.19724e-06
5.72519e-06
0.000285386
1.78628e-05
1.31401e-06
1.2296e-06
3.15294e-06
4.77526e-06
5.25133e-06
3.88726e-06
1.07948e-06
4.59694e-07
6.44411e-07
1.07772e-06
1.6464e-06
2.26524e-06
2.87589e-06
3.36999e-06
3.73808e-06
4.10701e-06
4.43539e-06
5.1302e-06
8.45286e-05
8.40242e-06
1.55047e-06
1.63221e-06
3.38622e-06
4.70735e-06
5.17756e-06
4.03199e-06