/*--------------------------------*- C++ -*----------------------------------*\
  =========                 |
  \\      /  F ield         | OpenFOAM: The Open Source CFD Toolbox
   \\    /   O peration     | Website:  https://openfoam.org
    \\  /    A nd           | Version:  9
     \\/     M anipulation  |
\*---------------------------------------------------------------------------*/
FoamFile
{
    format      ascii;
    class       volScalarField;
    location    "0.0075";
    object      rhoE;
}
// * * * * * * * * * * * * * * * * * * * * * * * * * * * * * * * * * * * * * //

dimensions      [1 -1 -2 0 0 0 0];

internalField   nonuniform List<scalar> 
9720
(
7.85386e+06
6.77283e+06
6.20637e+06
4.77973e+06
4.49234e+06
4.45016e+06
4.41317e+06
4.0265e+06
3.49997e+06
2.88716e+06
2.35541e+06
2.09809e+06
1.99248e+06
2.07945e+06
2.2359e+06
2.50121e+06
2.81482e+06
3.17788e+06
3.51728e+06
4.14139e+06
6.72357e+06
6.32301e+06
3.88643e+06
3.04584e+06
3.79665e+06
4.28789e+06
4.30259e+06
3.79547e+06
2.84184e+06
1.92466e+06
1.38847e+06
1.28406e+06
1.36367e+06
1.52657e+06
1.79945e+06
2.15266e+06
2.56567e+06
3.00126e+06
3.40462e+06
4.06566e+06
6.22682e+06
3.89965e+06
2.59247e+06
2.40303e+06
3.61757e+06
4.26122e+06
4.28826e+06
3.67497e+06
2.22094e+06
1.21664e+06
953762
1.08692e+06
1.29056e+06
1.57773e+06
1.94916e+06
2.38038e+06
2.86319e+06
3.43575e+06
3.96435e+06
4.56514e+06
4.75913e+06
3.01202e+06
2.3718e+06
2.02924e+06
2.97845e+06
4.189e+06
4.42638e+06
3.9755e+06
2.11579e+06
829199
994665
1.20141e+06
1.41181e+06
1.62811e+06
1.85039e+06
2.09435e+06
2.40129e+06
2.86676e+06
3.55552e+06
4.55767e+06
4.38194e+06
3.65237e+06
3.48075e+06
2.9256e+06
731922
1.51427e+06
1.66027e+06
1.75896e+06
1.83357e+06
1.90416e+06
1.98296e+06
2.08472e+06
2.23683e+06
2.42076e+06
2.74026e+06
3.6801e+06
4.31299e+06
4.14219e+06
4.15054e+06
4.07036e+06
1.93885e+06
2.03007e+06
2.00329e+06
1.97682e+06
1.97025e+06
1.97453e+06
1.98664e+06
2.00629e+06
2.04798e+06
2.09542e+06
2.20769e+06
2.7958e+06
4.26802e+06
4.15259e+06
4.1735e+06
4.31528e+06
2.1217e+06
2.0433e+06
2.02496e+06
2.00332e+06
1.99203e+06
1.98844e+06
1.99252e+06
2.00182e+06
2.02079e+06
2.05003e+06
2.10083e+06
2.39457e+06
3.88497e+06
3.66004e+06
3.54435e+06
3.84424e+06
1.82027e+06
1.4608e+06
1.53781e+06
1.60085e+06
1.64372e+06
1.67565e+06
1.70891e+06
1.73859e+06
1.77616e+06
1.82898e+06
1.87597e+06
2.0699e+06
3.3663e+06
2.71268e+06
2.08946e+06
1.89723e+06
758386
1.77129e+06
1.94565e+06
1.65899e+06
229738
386169
633816
861828
1.04827e+06
1.17772e+06
1.29301e+06
1.40562e+06
1.49206e+06
1.57137e+06
1.65057e+06
1.82371e+06
2.76827e+06
1.82436e+06
1.14489e+06
789185
1.39743e+06
1.85656e+06
1.86873e+06
1.35157e+06
417386
157925
202634
327515
511538
711991
886538
1.0454e+06
1.18015e+06
1.28245e+06
1.39312e+06
1.59496e+06
2.27055e+06
1.33004e+06
916052
945383
1.53402e+06
1.83247e+06
1.85472e+06
1.42193e+06
652859
233234
137989
156194
244085
396765
564253
717895
869552
1.01256e+06
1.14659e+06
1.36814e+06
2.02037e+06
1.23727e+06
1.05372e+06
1.1441e+06
1.62317e+06
1.80928e+06
1.83839e+06
1.48644e+06
852431
366160
174244
146568
161566
225606
331695
454689
611236
770774
906477
1.12958e+06
1.91716e+06
1.31705e+06
1.25258e+06
1.34055e+06
1.69336e+06
1.80934e+06
1.83182e+06
1.53142e+06
1.01888e+06
539774
275720
174737
147178
160596
210710
298961
433119
575026
702923
923245
2.00277e+06
1.47514e+06
1.51977e+06
1.54315e+06
1.76029e+06
1.81543e+06
1.83874e+06
1.5626e+06
1.1343e+06
726930
430156
251003
170060
167880
187473
229950
318938
433325
549477
758979
2.1628e+06
1.73534e+06
1.85984e+06
1.7463e+06
1.83692e+06
1.83148e+06
1.84734e+06
1.59819e+06
1.24343e+06
887138
590409
364722
230367
190830
203543
221659
259503
335317
431000
630840
2.43005e+06
2.07639e+06
2.25325e+06
1.97021e+06
1.93664e+06
1.85697e+06
1.86349e+06
1.63123e+06
1.3496e+06
1.03316e+06
737065
487225
324097
246349
227902
233287
256290
303863
369850
547000
2.75229e+06
2.48952e+06
2.70431e+06
2.25018e+06
2.08253e+06
1.9039e+06
1.89103e+06
1.67198e+06
1.42825e+06
1.15991e+06
883355
638797
458429
342386
280558
261833
278099
315685
363820
494361
3.11785e+06
2.92412e+06
3.25629e+06
2.67023e+06
2.26151e+06
1.95739e+06
1.93001e+06
1.72706e+06
1.50524e+06
1.25941e+06
1.02017e+06
790427
596345
457548
366913
315330
324633
342721
372667
464782
3.453e+06
3.32833e+06
3.79169e+06
3.31724e+06
2.56875e+06
2.06985e+06
1.98796e+06
1.77622e+06
1.58511e+06
1.36697e+06
1.14854e+06
924697
727165
576318
464229
390724
372084
377119
395515
471044
4.05849e+06
3.97754e+06
4.41712e+06
4.30172e+06
3.46387e+06
2.64107e+06
2.29294e+06
1.97553e+06
1.76459e+06
1.56485e+06
1.36268e+06
1.14464e+06
952226
791501
663898
574449
514488
475598
480794
522098
7.81712e+06
6.70575e+06
5.92643e+06
4.60214e+06
4.40724e+06
4.44873e+06
4.41855e+06
4.01952e+06
3.46959e+06
2.84974e+06
2.30428e+06
2.03668e+06
1.92859e+06
2.00891e+06
2.15392e+06
2.40595e+06
2.71939e+06
3.09573e+06
3.44147e+06
4.07222e+06
6.64788e+06
6.05664e+06
3.61113e+06
2.96454e+06
3.84856e+06
4.34933e+06
4.34365e+06
3.81622e+06
2.81646e+06
1.88867e+06
1.34862e+06
1.23144e+06
1.30403e+06
1.45658e+06
1.71274e+06
2.04756e+06
2.45091e+06
2.88715e+06
3.29694e+06
3.98059e+06
5.9678e+06
3.62638e+06
2.51345e+06
2.37119e+06
3.73775e+06
4.36279e+06
4.35603e+06
3.714e+06
2.19388e+06
1.17703e+06
916361
1.04377e+06
1.237e+06
1.50832e+06
1.85992e+06
2.27301e+06
2.73167e+06
3.28179e+06
3.80918e+06
4.45043e+06
4.5881e+06
2.91571e+06
2.31569e+06
1.96621e+06
3.17591e+06
4.26853e+06
4.48926e+06
4.01875e+06
2.1388e+06
814503
973315
1.16954e+06
1.36576e+06
1.5608e+06
1.76858e+06
1.99664e+06
2.28042e+06
2.70359e+06
3.36577e+06
4.38144e+06
4.29335e+06
3.65095e+06
3.50057e+06
2.86998e+06
752182
1.52881e+06
1.66329e+06
1.75254e+06
1.81121e+06
1.868e+06
1.93129e+06
2.01589e+06
2.15002e+06
2.31461e+06
2.59912e+06
3.48145e+06
4.28454e+06
4.16369e+06
4.20388e+06
4.12123e+06
1.96391e+06
2.05793e+06
2.01567e+06
1.98219e+06
1.95309e+06
1.94795e+06
1.94839e+06
1.95626e+06
1.98631e+06
2.02238e+06
2.11364e+06
2.63462e+06
4.25638e+06
4.17653e+06
4.225e+06
4.35483e+06
2.15019e+06
2.07034e+06
2.03673e+06
2.00476e+06
1.98322e+06
1.96647e+06
1.95303e+06
1.95688e+06
1.96802e+06
1.99052e+06
2.03244e+06
2.28479e+06
3.87543e+06
3.68438e+06
3.58978e+06
3.89346e+06
1.83947e+06
1.47356e+06
1.5429e+06
1.59895e+06
1.63389e+06
1.6495e+06
1.66818e+06
1.69172e+06
1.72683e+06
1.7753e+06
1.8142e+06
1.97277e+06
3.33777e+06
2.70381e+06
2.08751e+06
1.95729e+06
768790
1.81058e+06
1.99038e+06
1.68983e+06
234000
381056
627239
847282
1.02266e+06
1.14314e+06
1.25079e+06
1.36476e+06
1.44933e+06
1.51251e+06
1.57878e+06
1.73288e+06
2.73204e+06
1.80182e+06
1.12092e+06
783891
1.43952e+06
1.92678e+06
1.93597e+06
1.39318e+06
416038
151127
196176
311912
479802
676134
852645
1.00182e+06
1.12657e+06
1.21468e+06
1.31772e+06
1.51298e+06
2.21154e+06
1.28958e+06
881890
934295
1.56577e+06
1.88581e+06
1.90651e+06
1.45463e+06
654161
219219
126156
141394
226454
372840
534502
675085
805987
940188
1.07793e+06
1.29351e+06
1.94401e+06
1.17749e+06
1.00709e+06
1.12052e+06
1.64873e+06
1.85393e+06
1.87725e+06
1.51105e+06
846338
345385
155641
137937
153081
211947
305298
408920
548544
708710
846001
1.05873e+06
1.84542e+06
1.24815e+06
1.18946e+06
1.3046e+06
1.70355e+06
1.82837e+06
1.85796e+06
1.54838e+06
1.00359e+06
506722
252440
163934
134308
142651
182848
259854
385464
523271
643343
850474
1.9283e+06
1.39627e+06
1.4374e+06
1.48632e+06
1.75568e+06
1.82374e+06
1.8442e+06
1.5625e+06
1.11451e+06
692962
402538
231888
150344
141946
160646
202093
284683
388847
493657
690011
2.08226e+06
1.64461e+06
1.76109e+06
1.67607e+06
1.81439e+06
1.82637e+06
1.84178e+06
1.58326e+06
1.21881e+06
858341
557823
332111
198845
163672
176055
193971
229154
297834
384811
571244
2.33457e+06
1.97204e+06
2.14492e+06
1.88298e+06
1.89269e+06
1.83707e+06
1.84565e+06
1.61119e+06
1.32666e+06
996475
693276
439644
282536
215070
198841
202287
220700
261777
324177
489451
2.64897e+06
2.37699e+06
2.58301e+06
2.13819e+06
2.0168e+06
1.86958e+06
1.86081e+06
1.64982e+06
1.40321e+06
1.1155e+06
825196
580715
412266
304109
243906
224855
238033
272251
315329
435914
3.01605e+06
2.80905e+06
3.12432e+06
2.52259e+06
2.17286e+06
1.90801e+06
1.88905e+06
1.69627e+06
1.46531e+06
1.20559e+06
958837
735739
548206
410793
320780
270965
277860
294732
320003
405583
3.35007e+06
3.20781e+06
3.65295e+06
3.14911e+06
2.4433e+06
1.99607e+06
1.93489e+06
1.73506e+06
1.53412e+06
1.30851e+06
1.0913e+06
870138
671270
520148
411066
340365
322401
324759
338701
410023
3.95178e+06
3.86514e+06
4.30388e+06
4.14827e+06
3.28579e+06
2.49797e+06
2.19321e+06
1.89676e+06
1.69272e+06
1.49881e+06
1.29919e+06
1.08177e+06
885785
725973
602823
514915
456230
419306
421454
460499
8.07576e+06
6.98063e+06
5.9216e+06
4.53972e+06
4.37153e+06
4.52879e+06
4.49409e+06
4.06895e+06
3.5049e+06
2.8766e+06
2.30705e+06
2.02604e+06
1.9118e+06
1.98462e+06
2.12872e+06
2.38061e+06
2.69627e+06
3.08892e+06
3.44267e+06
4.08901e+06
6.8801e+06
6.00849e+06
3.43759e+06
2.95342e+06
3.90796e+06
4.44926e+06
4.4196e+06
3.85215e+06
2.82034e+06
1.89637e+06
1.3423e+06
1.21486e+06
1.28625e+06
1.43563e+06
1.69302e+06
2.03051e+06
2.44487e+06
2.90896e+06
3.31282e+06
4.0276e+06
5.89142e+06
3.42001e+06
2.48486e+06
2.39798e+06
3.80034e+06
4.45203e+06
4.41376e+06
3.73164e+06
2.15791e+06
1.17208e+06
915389
1.03654e+06
1.23425e+06
1.51279e+06
1.87318e+06
2.29792e+06
2.76986e+06
3.33136e+06
3.9043e+06
4.60687e+06
4.45517e+06
2.82955e+06
2.28902e+06
1.93938e+06
3.23962e+06
4.37041e+06
4.56434e+06
4.0677e+06
2.08874e+06
821523
985595
1.18492e+06
1.38724e+06
1.58391e+06
1.79319e+06
2.01761e+06
2.30434e+06
2.71007e+06
3.39918e+06
4.52826e+06
4.22758e+06
3.6881e+06
3.55855e+06
2.88561e+06
712969
1.54687e+06
1.68328e+06
1.78737e+06
1.85266e+06
1.91012e+06
1.97549e+06
2.05726e+06
2.19265e+06
2.35736e+06
2.62568e+06
3.51736e+06
4.32317e+06
4.22636e+06
4.24284e+06
4.18322e+06
1.97869e+06
2.10251e+06
2.06473e+06
2.03585e+06
2.01103e+06
2.00977e+06
2.01465e+06
2.02617e+06
2.05701e+06
2.09135e+06
2.16659e+06
2.65177e+06
4.30931e+06
4.24785e+06
4.2639e+06
4.40918e+06
2.17469e+06
2.1158e+06
2.08681e+06
2.05925e+06
2.04186e+06
2.03221e+06
2.02612e+06
2.03301e+06
2.04838e+06
2.07378e+06
2.11376e+06
2.34413e+06
3.92188e+06
3.73599e+06
3.63178e+06
3.94035e+06
1.8566e+06
1.50326e+06
1.57876e+06
1.63986e+06
1.67768e+06
1.69711e+06
1.72335e+06
1.75692e+06
1.79371e+06
1.84532e+06
1.88843e+06
2.03098e+06
3.36857e+06
2.7386e+06
2.12451e+06
2.04181e+06
685034
1.89137e+06
2.07559e+06
1.75913e+06
224500
388544
637639
853528
1.03466e+06
1.17074e+06
1.2854e+06
1.39825e+06
1.4909e+06
1.56053e+06
1.63058e+06
1.78607e+06
2.7464e+06
1.81405e+06
1.1232e+06
765756
1.47154e+06
2.0172e+06
2.02174e+06
1.43598e+06
390157
137380
188023
311924
477340
673981
853003
999290
1.13898e+06
1.24576e+06
1.34954e+06
1.55266e+06
2.19263e+06
1.2766e+06
871588
919156
1.60352e+06
1.97878e+06
1.99402e+06
1.51068e+06
638545
195882
118251
135556
214755
351141
512287
667842
809488
951395
1.09164e+06
1.32217e+06
1.90481e+06
1.13872e+06
976152
1.10786e+06
1.70358e+06
1.94901e+06
1.96814e+06
1.57098e+06
844218
329463
143553
128245
139976
194224
292205
400328
534680
696888
844622
1.07819e+06
1.80583e+06
1.20517e+06
1.15856e+06
1.30098e+06
1.76572e+06
1.92315e+06
1.94994e+06
1.61133e+06
1.0196e+06
495356
232475
147596
123774
133091
170736
241842
359987
501060
634497
857416
1.88338e+06
1.35344e+06
1.4171e+06
1.48776e+06
1.81828e+06
1.92095e+06
1.94171e+06
1.63231e+06
1.1524e+06
688344
374362
211002
139716
128451
143333
180695
257724
366536
475266
678932
2.0384e+06
1.60997e+06
1.75638e+06
1.68359e+06
1.87679e+06
1.92577e+06
1.94346e+06
1.65988e+06
1.26519e+06
863078
536542
317567
186245
147653
155669
170686
210272
279219
359461
544674
2.29169e+06
1.94792e+06
2.16574e+06
1.89224e+06
1.94845e+06
1.93674e+06
1.94858e+06
1.69613e+06
1.37489e+06
1.00721e+06
691603
433443
266941
194604
176224
181297
199877
231807
287518
453362
2.60729e+06
2.3631e+06
2.62841e+06
2.1544e+06
2.07152e+06
1.96743e+06
1.96418e+06
1.73796e+06
1.46247e+06
1.14322e+06
837248
574236
394183
281400
224779
204801
212516
238707
278591
403270
2.99229e+06
2.82567e+06
3.18771e+06
2.5242e+06
2.2278e+06
2.00251e+06
1.99195e+06
1.79007e+06
1.53162e+06
1.24939e+06
980622
734795
537223
394459
303296
245710
243713
260932
290067
379070
3.33663e+06
3.22358e+06
3.77066e+06
3.18052e+06
2.48395e+06
2.07193e+06
2.03385e+06
1.83235e+06
1.60432e+06
1.35341e+06
1.11683e+06
879997
671082
508819
390829
309309
289115
296345
312799
384701
3.96061e+06
3.92073e+06
4.48791e+06
4.31474e+06
3.34466e+06
2.53304e+06
2.2666e+06
1.97594e+06
1.76206e+06
1.55227e+06
1.34365e+06
1.11385e+06
900442
724139
586101
486934
429565
395425
395405
432699
8.33324e+06
7.24177e+06
5.83353e+06
4.4497e+06
4.33274e+06
4.57133e+06
4.52728e+06
4.08745e+06
3.49768e+06
2.8621e+06
2.28482e+06
1.99743e+06
1.89563e+06
1.96532e+06
2.11332e+06
2.36695e+06
2.68395e+06
3.09286e+06
3.45626e+06
4.11053e+06
7.14217e+06
5.74924e+06
3.25968e+06
2.93314e+06
3.91572e+06
4.49159e+06
4.45795e+06
3.87182e+06
2.80703e+06
1.86867e+06
1.31506e+06
1.1806e+06
1.25685e+06
1.40411e+06
1.66623e+06
2.01389e+06
2.43464e+06
2.92424e+06
3.34356e+06
4.07724e+06
5.7523e+06
3.20868e+06
2.48762e+06
2.38131e+06
3.78776e+06
4.48636e+06
4.45407e+06
3.74469e+06
2.13677e+06
1.14079e+06
889932
1.00649e+06
1.20175e+06
1.48525e+06
1.85724e+06
2.30214e+06
2.80577e+06
3.38316e+06
3.99295e+06
4.76377e+06
4.28325e+06
2.77764e+06
2.30724e+06
1.96179e+06
3.15619e+06
4.40286e+06
4.61132e+06
4.08331e+06
1.97154e+06
798149
967373
1.17117e+06
1.37985e+06
1.58216e+06
1.79143e+06
2.00708e+06
2.29273e+06
2.67928e+06
3.37799e+06
4.63394e+06
4.13574e+06
3.71909e+06
3.62859e+06
3.00931e+06
923290
1.57781e+06
1.71575e+06
1.83076e+06
1.90149e+06
1.95147e+06
2.01139e+06
2.08062e+06
2.2044e+06
2.36083e+06
2.60429e+06
3.4879e+06
4.33751e+06
4.26483e+06
4.27761e+06
4.19948e+06
2.05313e+06
2.17637e+06
2.13646e+06
2.10414e+06
2.07419e+06
2.06986e+06
2.0715e+06
2.07858e+06
2.10375e+06
2.1309e+06
2.18713e+06
2.61731e+06
4.3255e+06
4.26925e+06
4.28451e+06
4.42407e+06
2.25771e+06
2.18953e+06
2.15921e+06
2.13152e+06
2.10812e+06
2.09918e+06
2.0901e+06
2.09166e+06
2.10265e+06
2.12323e+06
2.15596e+06
2.35253e+06
3.93018e+06
3.74377e+06
3.62935e+06
3.94797e+06
1.92142e+06
1.53418e+06
1.61901e+06
1.67966e+06
1.71754e+06
1.73739e+06
1.76513e+06
1.80209e+06
1.83404e+06
1.87661e+06
1.92324e+06
2.04794e+06
3.37051e+06
2.72919e+06
2.09153e+06
1.97108e+06
775555
1.97926e+06
2.17539e+06
1.8342e+06
213044
372843
617032
833702
1.02461e+06
1.18349e+06
1.31123e+06
1.40957e+06
1.50282e+06
1.58494e+06
1.663e+06
1.80664e+06
2.75137e+06
1.81433e+06
1.10992e+06
764415
1.52336e+06
2.10863e+06
2.11603e+06
1.48815e+06
397469
126453
170631
297140
470356
664104
838837
984402
1.1278e+06
1.26481e+06
1.37188e+06
1.56184e+06
2.18623e+06
1.27235e+06
862890
925582
1.65834e+06
2.0704e+06
2.08621e+06
1.57986e+06
649877
180954
108071
131085
203117
326376
476724
634344
799718
963438
1.09179e+06
1.3221e+06
1.88709e+06
1.11514e+06
960765
1.12039e+06
1.76944e+06
2.03879e+06
2.06054e+06
1.63875e+06
866043
321269
136631
122726
126784
171844
264198
387223
534002
687501
826305
1.07362e+06
1.78374e+06
1.18634e+06
1.14581e+06
1.31999e+06
1.83747e+06
2.00884e+06
2.04056e+06
1.67497e+06
1.04871e+06
502827
219264
132582
114627
124412
164145
237817
345266
471410
607062
853376
1.85068e+06
1.32851e+06
1.4135e+06
1.51206e+06
1.88531e+06
2.00421e+06
2.03223e+06
1.69556e+06
1.1986e+06
697344
350712
186650
130078
125712
137672
169819
234306
332717
449942
673098
1.99454e+06
1.5813e+06
1.76125e+06
1.70733e+06
1.94276e+06
2.00748e+06
2.02854e+06
1.72645e+06
1.31624e+06
869053
509986
290586
178272
142594
144836
154131
187773
257767
344015
531915
2.24469e+06
1.91772e+06
2.1772e+06
1.90912e+06
2.00581e+06
2.01665e+06
2.03192e+06
1.76891e+06
1.40731e+06
1.01251e+06
673695
423765
262503
183020
158854
161573
179572
214945
269691
428355
2.55934e+06
2.32594e+06
2.65395e+06
2.17245e+06
2.11961e+06
2.04415e+06
2.04567e+06
1.8069e+06
1.49515e+06
1.1533e+06
839916
574417
377524
257511
201916
184770
195885
220220
252296
371233
2.973e+06
2.81931e+06
3.20736e+06
2.51239e+06
2.26825e+06
2.07516e+06
2.07044e+06
1.85461e+06
1.57806e+06
1.28476e+06
997832
724965
509808
365163
283092
230597
224755
236827
261028
348820
3.3397e+06
3.24264e+06
3.82615e+06
3.14821e+06
2.49824e+06
2.12849e+06
2.10641e+06
1.90075e+06
1.65702e+06
1.38598e+06
1.11982e+06
863397
649751
488233
376558
291967
263084
267794
285568
360003
3.99027e+06
3.98389e+06
4.64137e+06
4.39704e+06
3.33568e+06
2.53482e+06
2.30599e+06
2.02652e+06
1.80135e+06
1.57026e+06
1.34793e+06
1.11117e+06
896300
715670
570119
459905
397516
365684
373081
412940
8.47397e+06
7.40736e+06
5.72128e+06
4.35328e+06
4.30562e+06
4.59065e+06
4.54787e+06
4.09556e+06
3.48629e+06
2.8423e+06
2.26201e+06
1.96678e+06
1.88489e+06
1.95413e+06
2.11225e+06
2.37184e+06
2.69e+06
3.10929e+06
3.47906e+06
4.12712e+06
7.30966e+06
5.50892e+06
3.13903e+06
2.90117e+06
3.96083e+06
4.52348e+06
4.4812e+06
3.88528e+06
2.7919e+06
1.84565e+06
1.29355e+06
1.14852e+06
1.23132e+06
1.38045e+06
1.64908e+06
2.00218e+06
2.42193e+06
2.9207e+06
3.34889e+06
4.08898e+06
5.65307e+06
3.07376e+06
2.47183e+06
2.37612e+06
3.86096e+06
4.5246e+06
4.48076e+06
3.76192e+06
2.11572e+06
1.11384e+06
873085
978564
1.16449e+06
1.44579e+06
1.82017e+06
2.26893e+06
2.78643e+06
3.37057e+06
3.99082e+06
4.80336e+06
4.18713e+06
2.73795e+06
2.25459e+06
1.94619e+06
3.20918e+06
4.44133e+06
4.63761e+06
4.11815e+06
2.01226e+06
778356
948510
1.15065e+06
1.35977e+06
1.56253e+06
1.76816e+06
1.97557e+06
2.24851e+06
2.60807e+06
3.28242e+06
4.59311e+06
4.08595e+06
3.69403e+06
3.58895e+06
2.97601e+06
760735
1.57548e+06
1.71604e+06
1.83642e+06
1.91361e+06
1.96087e+06
2.01772e+06
2.0785e+06
2.18945e+06
2.33447e+06
2.55262e+06
3.39113e+06
4.33263e+06
4.26697e+06
4.29024e+06
4.21262e+06
2.09914e+06
2.19817e+06
2.15597e+06
2.12125e+06
2.09153e+06
2.08367e+06
2.08379e+06
2.08725e+06
2.10715e+06
2.12821e+06
2.17107e+06
2.5478e+06
4.32459e+06
4.27271e+06
4.30113e+06
4.43739e+06
2.30817e+06
2.2209e+06
2.18542e+06
2.15487e+06
2.13432e+06
2.12373e+06
2.1102e+06
2.10838e+06
2.11303e+06
2.12692e+06
2.15243e+06
2.31783e+06
3.92232e+06
3.73856e+06
3.62507e+06
3.95651e+06
1.96152e+06
1.53714e+06
1.63072e+06
1.69358e+06
1.73004e+06
1.74457e+06
1.76801e+06
1.80703e+06
1.84063e+06
1.87607e+06
1.9191e+06
2.02446e+06
3.35597e+06
2.7015e+06
2.04945e+06
1.93787e+06
763248
2.05098e+06
2.25733e+06
1.89517e+06
209565
367405
600728
818559
1.01336e+06
1.17799e+06
1.31263e+06
1.40555e+06
1.49483e+06
1.57781e+06
1.65717e+06
1.7881e+06
2.73942e+06
1.79498e+06
1.08908e+06
762158
1.56044e+06
2.16407e+06
2.17214e+06
1.51897e+06
404419
121678
162130
287980
466224
657448
823774
970876
1.11909e+06
1.25951e+06
1.3655e+06
1.54087e+06
2.1755e+06
1.25817e+06
849759
929683
1.69529e+06
2.1228e+06
2.14133e+06
1.61559e+06
657163
175114
101318
128460
195977
306951
456603
624216
793596
960850
1.08097e+06
1.301e+06
1.88145e+06
1.10473e+06
956443
1.12904e+06
1.8092e+06
2.08836e+06
2.11569e+06
1.67147e+06
874985
317983
134164
122872
119950
162655
256931
388616
539734
683035
808311
1.05851e+06
1.78059e+06
1.18049e+06
1.14172e+06
1.33371e+06
1.88229e+06
2.05638e+06
2.09259e+06
1.70593e+06
1.06134e+06
509388
213938
125352
116256
127633
168871
242322
338922
453839
591544
844060
1.84028e+06
1.31881e+06
1.4146e+06
1.5296e+06
1.92858e+06
2.04928e+06
2.08184e+06
1.73235e+06
1.21905e+06
707294
337241
177572
133756
131770
141850
165675
219616
320473
442555
670247
1.97782e+06
1.56881e+06
1.76822e+06
1.72712e+06
1.98487e+06
2.05114e+06
2.07727e+06
1.76385e+06
1.34316e+06
873801
497918
282709
182451
146275
142838
147788
182888
257746
350405
531905
2.22388e+06
1.90464e+06
2.18591e+06
1.92576e+06
2.04355e+06
2.05797e+06
2.0787e+06
1.80394e+06
1.42531e+06
1.0148e+06
667451
422185
265548
179249
152615
157198
180760
221451
273037
416973
2.53336e+06
2.30649e+06
2.67098e+06
2.18889e+06
2.15039e+06
2.08201e+06
2.08788e+06
1.83606e+06
1.50821e+06
1.15897e+06
837688
577829
372272
243581
196547
185334
200070
216884
241784
350417
2.95459e+06
2.80094e+06
3.21352e+06
2.51586e+06
2.29367e+06
2.10977e+06
2.1071e+06
1.87657e+06
1.59777e+06
1.29751e+06
1.00215e+06
723284
494339
351548
279368
233916
220372
228904
245745
333864
3.33655e+06
3.24488e+06
3.82573e+06
3.12081e+06
2.50656e+06
2.15482e+06
2.13679e+06
1.92709e+06
1.68198e+06
1.39876e+06
1.11723e+06
848500
632140
475246
375228
291371
250231
250989
270276
349654
4.00552e+06
4.00404e+06
4.68902e+06
4.39037e+06
3.29996e+06
2.52083e+06
2.31141e+06
2.04509e+06
1.81512e+06
1.56783e+06
1.33379e+06
1.09612e+06
881183
702918
560879
443304
372886
348905
361776
405132
8.47795e+06
7.40019e+06
5.68236e+06
4.33062e+06
4.31162e+06
4.60691e+06
4.55681e+06
4.1e+06
3.48693e+06
2.84082e+06
2.25854e+06
1.95636e+06
1.88076e+06
1.95472e+06
2.11801e+06
2.38139e+06
2.70354e+06
3.12448e+06
3.49326e+06
4.14025e+06
7.3246e+06
5.48499e+06
3.11878e+06
2.89055e+06
3.98996e+06
4.54659e+06
4.49285e+06
3.89042e+06
2.79222e+06
1.84735e+06
1.29536e+06
1.14323e+06
1.22787e+06
1.3792e+06
1.65124e+06
2.00743e+06
2.43189e+06
2.9359e+06
3.36277e+06
4.10192e+06
5.67056e+06
3.05567e+06
2.45734e+06
2.37085e+06
3.90736e+06
4.55176e+06
4.49433e+06
3.76725e+06
2.11518e+06
1.11358e+06
877006
979257
1.1629e+06
1.44334e+06
1.81737e+06
2.26678e+06
2.78703e+06
3.37915e+06
4.01305e+06
4.82819e+06
4.18489e+06
2.72213e+06
2.22943e+06
1.92097e+06
3.31412e+06
4.48124e+06
4.64795e+06
4.1336e+06
1.9912e+06
777742
948737
1.15152e+06
1.36004e+06
1.56064e+06
1.76429e+06
1.96918e+06
2.24508e+06
2.60746e+06
3.29482e+06
4.62265e+06
4.07365e+06
3.67416e+06
3.56504e+06
2.88093e+06
735311
1.55974e+06
1.70153e+06
1.82449e+06
1.90107e+06
1.94807e+06
2.00395e+06
2.06598e+06
2.17998e+06
2.32773e+06
2.54723e+06
3.40027e+06
4.32809e+06
4.26047e+06
4.28675e+06
4.22798e+06
2.08364e+06
2.18096e+06
2.1415e+06
2.1083e+06
2.07646e+06
2.06912e+06
2.0703e+06
2.07562e+06
2.09794e+06
2.12179e+06
2.16662e+06
2.54727e+06
4.31467e+06
4.26266e+06
4.29626e+06
4.43552e+06
2.3075e+06
2.20793e+06
2.17534e+06
2.14606e+06
2.12368e+06
2.11244e+06
2.10026e+06
2.09928e+06
2.10462e+06
2.12113e+06
2.14871e+06
2.31618e+06
3.91513e+06
3.73312e+06
3.62239e+06
3.94942e+06
1.95627e+06
1.53786e+06
1.631e+06
1.68829e+06
1.72136e+06
1.74338e+06
1.77132e+06
1.80646e+06
1.83684e+06
1.87248e+06
1.91531e+06
2.01932e+06
3.3491e+06
2.703e+06
2.0599e+06
1.99856e+06
678758
2.08058e+06
2.28608e+06
1.9195e+06
208564
377049
612768
828917
1.01996e+06
1.18238e+06
1.3171e+06
1.40679e+06
1.49226e+06
1.5762e+06
1.6568e+06
1.78493e+06
2.73302e+06
1.79374e+06
1.09224e+06
757966
1.5676e+06
2.18589e+06
2.19371e+06
1.52708e+06
391162
120211
164073
292183
470682
659777
826130
972223
1.11688e+06
1.25713e+06
1.36349e+06
1.53635e+06
2.172e+06
1.25712e+06
848227
927118
1.70862e+06
2.14664e+06
2.16132e+06
1.62175e+06
644820
171651
100742
128921
196175
308541
459319
624452
791585
956822
1.07593e+06
1.29428e+06
1.88477e+06
1.10886e+06
958737
1.12939e+06
1.82786e+06
2.11315e+06
2.13358e+06
1.68531e+06
866517
313512
133613
120584
118577
161925
256090
385276
532982
675650
802977
1.05159e+06
1.78485e+06
1.18402e+06
1.14761e+06
1.33933e+06
1.90308e+06
2.08104e+06
2.1113e+06
1.72446e+06
1.05752e+06
503638
212107
124156
113835
124704
165195
236538
333414
450948
587626
838142
1.84383e+06
1.32383e+06
1.42445e+06
1.5408e+06
1.95147e+06
2.07326e+06
2.10245e+06
1.7428e+06
1.2155e+06
700405
335281
176428
130504
127896
137571
163322
220867
318210
439965
664296
1.98342e+06
1.57629e+06
1.78078e+06
1.74324e+06
2.00787e+06
2.07483e+06
2.0969e+06
1.76679e+06
1.34109e+06
871584
494899
280900
179403
142064
139292
147429
181459
254580
344780
524576
2.23003e+06
1.91397e+06
2.20348e+06
1.947e+06
2.06683e+06
2.08117e+06
2.09743e+06
1.80844e+06
1.43073e+06
1.01416e+06
663705
419471
260574
176625
152170
155562
176356
215262
265394
410003
2.53866e+06
2.31573e+06
2.6889e+06
2.20685e+06
2.17466e+06
2.10471e+06
2.10682e+06
1.8474e+06
1.51819e+06
1.15698e+06
834766
573448
368050
244288
194525
180878
194943
213650
236611
343305
2.95592e+06
2.80816e+06
3.23812e+06
2.53679e+06
2.31845e+06
2.13182e+06
2.12669e+06
1.89134e+06
1.59625e+06
1.2912e+06
997755
719722
492133
348286
276058
228529
217409
223978
242269
328603
3.33484e+06
3.25026e+06
3.84373e+06
3.14513e+06
2.53075e+06
2.17585e+06
2.15638e+06
1.93842e+06
1.67599e+06
1.3935e+06
1.11608e+06
847597
629436
473252
371333
286245
245380
247474
266559
344951
4.0017e+06
4.00328e+06
4.68584e+06
4.39189e+06
3.31039e+06
2.53429e+06
2.32714e+06
2.05068e+06
1.81601e+06
1.57188e+06
1.33538e+06
1.0948e+06
880744
703404
559266
440301
368461
344288
357705
402906
8.3473e+06
7.23908e+06
5.76365e+06
4.40652e+06
4.34636e+06
4.60247e+06
4.54852e+06
4.09617e+06
3.48708e+06
2.848e+06
2.26769e+06
1.97345e+06
1.89124e+06
1.96917e+06
2.12587e+06
2.38726e+06
2.711e+06
3.12611e+06
3.49063e+06
4.13879e+06
7.16756e+06
5.7151e+06
3.22418e+06
2.92008e+06
4.00077e+06
4.53894e+06
4.48251e+06
3.88654e+06
2.79642e+06
1.85916e+06
1.30433e+06
1.16355e+06
1.24642e+06
1.40056e+06
1.67115e+06
2.02513e+06
2.45372e+06
2.94611e+06
3.36675e+06
4.09896e+06
5.77998e+06
3.17889e+06
2.46216e+06
2.40232e+06
3.91517e+06
4.54053e+06
4.47865e+06
3.76316e+06
2.12277e+06
1.13076e+06
883246
995052
1.18699e+06
1.47279e+06
1.85106e+06
2.30368e+06
2.817e+06
3.40821e+06
4.03139e+06
4.79705e+06
4.28198e+06
2.74449e+06
2.24782e+06
1.93725e+06
3.33896e+06
4.48363e+06
4.65058e+06
4.13597e+06
1.99374e+06
788962
958060
1.16323e+06
1.3736e+06
1.57886e+06
1.79035e+06
2.00653e+06
2.29779e+06
2.69349e+06
3.41258e+06
4.68841e+06
4.10781e+06
3.66078e+06
3.55112e+06
2.8781e+06
742805
1.55235e+06
1.69662e+06
1.81603e+06
1.88883e+06
1.93925e+06
2.00104e+06
2.07237e+06
2.1989e+06
2.35667e+06
2.60283e+06
3.51036e+06
4.31894e+06
4.24607e+06
4.27721e+06
4.2238e+06
2.06888e+06
2.15743e+06
2.11894e+06
2.08685e+06
2.05703e+06
2.05373e+06
2.05685e+06
2.06623e+06
2.09338e+06
2.12184e+06
2.17852e+06
2.61673e+06
4.30396e+06
4.25162e+06
4.28507e+06
4.42635e+06
2.27935e+06
2.17173e+06
2.14302e+06
2.11708e+06
2.09614e+06
2.08716e+06
2.0833e+06
2.08698e+06
2.09987e+06
2.12103e+06
2.15257e+06
2.34702e+06
3.90847e+06
3.72803e+06
3.61762e+06
3.95391e+06
1.93422e+06
1.52716e+06
1.61185e+06
1.66946e+06
1.70934e+06
1.73341e+06
1.76393e+06
1.80213e+06
1.83444e+06
1.87822e+06
1.92422e+06
2.0428e+06
3.34596e+06
2.69936e+06
2.0507e+06
1.92018e+06
766390
2.07208e+06
2.28032e+06
1.9217e+06
212853
382995
633298
850367
1.03642e+06
1.18981e+06
1.31386e+06
1.41162e+06
1.50482e+06
1.58577e+06
1.66163e+06
1.79904e+06
2.72489e+06
1.79032e+06
1.09876e+06
773691
1.55923e+06
2.14974e+06
2.1598e+06
1.51363e+06
380616
125179
172964
302879
475292
666333
841938
988784
1.13083e+06
1.26495e+06
1.36866e+06
1.55256e+06
2.17238e+06
1.25781e+06
857470
942051
1.69627e+06
2.10866e+06
2.12887e+06
1.60121e+06
639872
176153
104521
127438
200415
326221
480133
639105
802629
960684
1.0865e+06
1.31561e+06
1.89143e+06
1.12122e+06
971113
1.1443e+06
1.8099e+06
2.07627e+06
2.10213e+06
1.6631e+06
858858
312558
131114
119706
125333
172588
267597
389057
528907
679903
821227
1.06862e+06
1.79059e+06
1.19255e+06
1.16192e+06
1.35224e+06
1.88078e+06
2.04626e+06
2.0793e+06
1.7056e+06
1.04654e+06
488950
212387
130335
113767
123195
161641
231632
338488
467938
603426
848326
1.85565e+06
1.3357e+06
1.43436e+06
1.55136e+06
1.92998e+06
2.0416e+06
2.07061e+06
1.72946e+06
1.19852e+06
685227
344368
185007
128144
121417
131997
165391
233579
331110
448375
667077
2.00355e+06
1.59222e+06
1.78801e+06
1.75208e+06
1.9869e+06
2.04462e+06
2.06644e+06
1.75629e+06
1.32013e+06
864571
504880
288928
174527
136206
139511
152753
187389
256594
340084
522388
2.25662e+06
1.93599e+06
2.21296e+06
1.95529e+06
2.04968e+06
2.05316e+06
2.06916e+06
1.79195e+06
1.41974e+06
1.01335e+06
669561
418154
253328
177587
157569
160599
177782
211499
261724
417277
2.57168e+06
2.34972e+06
2.70103e+06
2.22081e+06
2.16288e+06
2.07917e+06
2.08083e+06
1.82617e+06
1.51184e+06
1.15749e+06
834837
564361
369677
255875
201648
183079
192854
214851
245071
360872
2.98047e+06
2.84611e+06
3.26247e+06
2.56381e+06
2.3107e+06
2.10818e+06
2.10248e+06
1.87301e+06
1.593e+06
1.28649e+06
992726
718800
506968
363173
281427
225754
219479
230836
255855
341230
3.34502e+06
3.27024e+06
3.88181e+06
3.20189e+06
2.53692e+06
2.15804e+06
2.13413e+06
1.91994e+06
1.66882e+06
1.38796e+06
1.11905e+06
861538
647604
486625
371724
284360
255403
262430
280639
352616
3.98932e+06
3.99941e+06
4.69159e+06
4.44833e+06
3.36254e+06
2.55353e+06
2.32317e+06
2.04184e+06
1.8106e+06
1.57562e+06
1.35164e+06
1.11372e+06
898004
714633
565973
454953
391755
360317
367925
406429
8.08082e+06
6.97328e+06
5.86898e+06
4.52371e+06
4.39513e+06
4.56717e+06
4.50967e+06
4.07327e+06
3.48673e+06
2.85483e+06
2.28733e+06
2.00375e+06
1.90501e+06
1.98494e+06
2.1348e+06
2.393e+06
2.71254e+06
3.10427e+06
3.45748e+06
4.10312e+06
6.88629e+06
5.9653e+06
3.40974e+06
2.9673e+06
3.97318e+06
4.49264e+06
4.43887e+06
3.86048e+06
2.79821e+06
1.86987e+06
1.31953e+06
1.19396e+06
1.27075e+06
1.42484e+06
1.68822e+06
2.03223e+06
2.45134e+06
2.90785e+06
3.31487e+06
4.02858e+06
5.89057e+06
3.39209e+06
2.482e+06
2.42318e+06
3.87792e+06
4.48778e+06
4.43379e+06
3.74222e+06
2.13838e+06
1.14895e+06
895353
1.0166e+06
1.21294e+06
1.49404e+06
1.86275e+06
2.29899e+06
2.78361e+06
3.35664e+06
3.92591e+06
4.61358e+06
4.43661e+06
2.80019e+06
2.26728e+06
1.96224e+06
3.33212e+06
4.45157e+06
4.62103e+06
4.1109e+06
2.01071e+06
805692
970124
1.17304e+06
1.38159e+06
1.58439e+06
1.79689e+06
2.02571e+06
2.32286e+06
2.75e+06
3.46285e+06
4.58625e+06
4.19201e+06
3.64608e+06
3.52397e+06
2.87112e+06
761762
1.54555e+06
1.68721e+06
1.79382e+06
1.85762e+06
1.91403e+06
1.97858e+06
2.0596e+06
2.19554e+06
2.35998e+06
2.63568e+06
3.55891e+06
4.30265e+06
4.21426e+06
4.25507e+06
4.19939e+06
2.03601e+06
2.1172e+06
2.07647e+06
2.04257e+06
2.01391e+06
2.01027e+06
2.01369e+06
2.0233e+06
2.05224e+06
2.08463e+06
2.16253e+06
2.66887e+06
4.28604e+06
4.23023e+06
4.26587e+06
4.42111e+06
2.23065e+06
2.12504e+06
2.09487e+06
2.06513e+06
2.04596e+06
2.03339e+06
2.02827e+06
2.03292e+06
2.04646e+06
2.07091e+06
2.11008e+06
2.3449e+06
3.90052e+06
3.72365e+06