/*--------------------------------*- C++ -*----------------------------------*\
  =========                 |
  \\      /  F ield         | OpenFOAM: The Open Source CFD Toolbox
   \\    /   O peration     | Website:  https://openfoam.org
    \\  /    A nd           | Version:  9
     \\/     M anipulation  |
\*---------------------------------------------------------------------------*/
FoamFile
{
    format      ascii;
    class       volVectorField;
    location    "0.0075";
    object      rhoU;
}
// * * * * * * * * * * * * * * * * * * * * * * * * * * * * * * * * * * * * * //

dimensions      [1 -2 -1 0 0 0 0];

internalField   nonuniform List<vector> 
9720
(
(-2359.34 -2363.81 91.7088)
(-1669.63 -2301.79 95.5245)
(-1354.79 -2419.4 46.5215)
(-1261.57 -2305.09 -27.2402)
(-802.364 -2565.94 -28.3019)
(-243.09 -2614.9 -25.8526)
(253.501 -2594.55 -35.0253)
(785.131 -2346.66 -22.3962)
(1164.88 -1922.49 -30.9952)
(1273.2 -1412.68 -10.1327)
(1229.55 -996.173 -12.4009)
(1200.41 -753.288 -16.795)
(1197.3 -609.093 -0.734767)
(1283.68 -547.794 13.5516)
(1395.24 -512.967 9.70379)
(1560.81 -507.813 -5.3506)
(1746.08 -512.461 -7.39167)
(1959.05 -519.999 2.51871)
(2155.44 -523.097 8.3083)
(2515.46 -554.195 4.71903)
(-2278.35 -1661.47 104.026)
(-1786.54 -1795.23 93.2821)
(-1526.23 -1533.27 6.10363)
(-1201.71 -1546.75 -32.1128)
(-800.689 -2229 -23.4365)
(-263.891 -2538.01 -23.5288)
(253.816 -2540.29 -24.354)
(824.448 -2217.07 -16.4706)
(1142.07 -1504.93 -16.4067)
(1040.25 -832.194 -6.14582)
(864.025 -463.698 0.235583)
(835.26 -344.273 -5.96435)
(902.518 -300.5 1.29624)
(1010.15 -289.003 11.5992)
(1182.05 -293.855 10.8016)
(1400.39 -304.633 1.02927)
(1648.65 -322.966 -10.3315)
(1904.99 -338.463 -1.76323)
(2134.31 -382.335 8.93516)
(2506.45 -448.539 10.4385)
(-2403.43 -1325.91 73.8483)
(-1524.29 -1503.78 27.8589)
(-1212.92 -1207.26 -11.6386)
(-984.97 -1279.98 -38.9413)
(-837.951 -2087.97 -13.8129)
(-279.925 -2509.6 -14.5079)
(287.486 -2518.16 -14.3611)
(870.037 -2118.33 -13.7169)
(1028.88 -1095.35 -3.97378)
(745.703 -434.549 -10.3504)
(632.889 -237.317 0.422975)
(727.22 -222.694 2.08275)
(856.815 -216.903 -6.68542)
(1029.84 -237.994 -15.8893)
(1253.13 -263.981 -18.4178)
(1517.18 -277.358 -15.4984)
(1812.49 -291.524 -16.1294)
(2159.49 -302.616 -27.6466)
(2479.63 -288.983 -22.7299)
(2824.23 -325.657 -13.2698)
(-2289.33 -1217.34 2.31904)
(-1529.66 -1185.95 1.38274)
(-1270.33 -967.011 3.19178)
(-1007.84 -974.47 -29.2062)
(-971.517 -1680.16 -22.953)
(-495.765 -2434.05 -13.3984)
(118.489 -2576.7 -25.5644)
(726.992 -2286.03 -16.8696)
(965.4 -1075.83 -24.6607)
(540.129 -216.103 -11.7809)
(642.463 -213.917 -9.0889)
(760.954 -241.992 -5.64281)
(885.671 -267.72 -11.178)
(1017.17 -288.667 -16.8245)
(1156.2 -299.67 -20.897)
(1310.59 -301.216 -21.5772)
(1504.58 -292.574 -13.9456)
(1798.84 -266.774 -31.5456)
(2230.24 -177.002 -28.5992)
(2834.18 -134.914 -24.1527)
(-2505.16 -780.056 -26.4454)
(-2155.01 -777.229 -19.0609)
(-2016.69 -818.59 -7.44719)
(-1662.75 -928.978 -12.1725)
(471.419 -168.854 -12.8779)
(953.108 -194.677 -8.9888)
(1038.95 -208.526 -12.6558)
(1097.75 -211.269 -15.2819)
(1142.46 -207.775 -16.2256)
(1185.77 -200.487 -18.2045)
(1235.03 -194.492 -15.3481)
(1299.05 -191.699 -19.4839)
(1393.91 -183.34 -21.6222)
(1515.23 -180.217 -22.956)
(1715.41 -146.64 -25.7301)
(2301.31 -31.1853 -31.8468)
(-2546.34 -235.27 -27.9537)
(-2466.38 -257.327 -24.4924)
(-2457.68 -275.128 -15.6712)
(-2378.81 -483.233 -10.8414)
(1235.62 -121.872 -15.7027)
(1288.82 -66.2612 -13.19)
(1272.16 -64.104 -14.1751)
(1256.14 -61.8074 -15.16)
(1253.04 -60.0299 -15.8975)
(1256.14 -59.5403 -17.6051)
(1264.2 -58.6756 -18.6935)
(1277.55 -56.4015 -19.2911)
(1302.73 -51.0217 -20.4887)
(1333.49 -45.6299 -21.0354)
(1401.26 -33.0349 -22.0676)
(1762.56 31.5583 -25.8467)
(-2523.73 249.309 -45.2313)
(-2466.61 245.425 -38.5285)
(-2463.75 280.571 -24.2591)
(-2524.02 115.433 -39.3696)
(1349.68 18.4832 -17.2769)
(1292.4 67.4842 -12.7191)
(1280.99 63.2796 -13.1678)
(1268.02 60.1319 -15.877)
(1261.06 57.3202 -17.7767)
(1258.52 55.4534 -17.4831)
(1260.74 55.6768 -16.778)
(1266.2 56.051 -17.2876)
(1276.82 57.842 -18.9415)
(1294.36 60.6404 -20.5062)
(1324.46 66.2537 -21.09)
(1503.35 103.021 -22.9156)
(-2277.96 764.193 -33.2825)
(-2150.9 803.516 -28.2155)
(-2052.81 851.906 -27.2726)
(-2223.05 705.131 -35.443)
(1150.1 153.96 -14.9081)
(911.291 189.086 -5.36021)
(957.855 191.824 -14.0618)
(995.379 190.791 -16.4176)
(1022.76 187.198 -11.087)
(1044.35 181.685 -8.01933)
(1065.14 178.325 -12.7779)
(1085.16 172.661 -19.5932)
(1108.87 169.395 -19.4396)
(1140.06 167.716 -15.6564)
(1170 164.659 -14.8182)
(1287.55 184.619 -16.2965)
(-1856.4 1131.48 -39.1933)
(-1439.06 1103.52 -27.4469)
(-1027.24 983.23 -21.6495)
(-956.252 895.554 -40.4762)
(-172.46 489.441 -14.4239)
(-116.174 1146.1 -16.9097)
(19.9762 1255.77 -16.9441)
(151.291 1062.88 -13.4212)
(97.8683 110.884 -4.42271)
(222.384 114.048 -10.3833)
(373.656 162.219 -3.6404)
(514.051 199.456 3.21315)
(627.524 223.051 0.202327)
(711.447 232.419 -12.0672)
(784.986 236.014 -21.3139)
(853.008 240.35 -18.3819)
(909.145 239.263 -8.84888)
(958.632 238.768 -7.82949)
(1005.78 235.045 -13.0852)
(1112.9 246.946 -17.2622)
(-1357.5 1229.66 -25.5418)
(-788.792 995.145 -19.6904)
(-407.186 709.016 -20.1263)
(-204.851 518.154 -16.0699)
(-186.659 890.786 -8.62112)
(-62.1627 1195.47 -13.1382)
(67.6239 1198.41 -11.2867)
(185.769 854.667 -3.79148)
(117.415 243.366 -7.41662)
(71.5734 74.8832 -3.79365)
(110.858 76.7854 3.30751)
(186.616 108.797 -0.874232)
(292.747 153.114 -11.2803)
(410.629 196.019 -15.8736)
(518.878 227.568 -11.9499)
(617.05 247.702 -0.854818)
(698.84 260.996 -0.601304)
(765.36 267.831 -9.9527)
(830.274 272.027 -17.0956)
(953.245 287.252 -16.3651)
(-960.596 1191.18 -29.4178)
(-444.837 832.364 -14.1277)
(-228.482 611.952 -9.20158)
(-206.346 614.881 -10.4631)
(-198.699 971.848 -12.7687)
(-59.6148 1180.03 -14.1425)
(63.45 1189.04 -12.2466)
(186.553 899.035 -11.5958)
(163.642 390.364 -6.322)
(83.4327 125.561 4.97231)
(63.3971 66.1452 -0.0715109)
(82.1073 64.764 -7.14961)
(130.593 92.0064 -7.75313)
(215.48 136.579 -3.47605)
(314.725 181.409 3.17051)
(407.445 216.306 2.96085)
(496.077 243.647 -7.39634)
(585.656 264.829 -16.0537)
(666.033 282.296 -14.8799)
(800.499 306.638 -11.8298)
(-725.777 1161.07 -33.2838)
(-331.5 808.978 -20.0689)
(-218.608 707.47 -6.78558)
(-235.297 729.514 -8.74237)
(-199.654 1025.71 -14.715)
(-57.169 1165.96 -15.0989)
(59.6131 1178.91 -14.9095)
(184.919 937.408 -15.1776)
(195.763 518.181 0.9113)
(119.077 206.852 1.43732)
(69.3432 90.6268 -6.1158)
(68.2775 69.9013 -5.55144)
(81.9284 70.1885 -0.53378)
(116.933 90.1145 2.65721)
(175.111 125.3 2.11051)
(246.475 162.88 -4.04609)
(334.911 202.599 -11.2692)
(430.761 239.921 -14.8286)
(512.596 267.723 -11.9014)
(646.213 303.179 -9.71208)
(-586.859 1157.17 -17.4176)
(-291.574 875.062 -14.0214)
(-211.729 835.028 -13.7003)
(-258.821 848.531 -14.6166)
(-195.539 1068.27 -16.0746)
(-55.5197 1166.31 -16.046)
(56.6892 1174.42 -15.8513)
(180.957 965.984 -10.8571)
(216.831 621.829 0.428184)
(160.16 311.119 -9.95399)
(100.802 146.791 -6.90891)
(73.0748 88.9233 0.295707)
(69.1767 70.6322 2.82556)
(78.8447 70.5914 2.94795)
(105.433 85.4945 -0.784652)
(153.448 117.865 -4.54815)
(225.87 162.331 -8.68976)
(308.116 206.059 -9.37889)
(381.627 240.169 -4.87387)
(510.349 286.17 -5.25738)
(-530.281 1241.16 -2.25666)
(-285.48 978.33 -3.12396)
(-230.854 997.15 -21.1553)
(-277.757 973.797 -19.4824)
(-188.164 1109.63 -17.5949)
(-54.8722 1170.25 -17.8775)
(54.5625 1177.93 -15.7054)
(175.465 987.44 -8.69547)
(225.752 697.319 -9.97243)
(199.422 424.289 -15.7982)
(145.858 234.935 -3.83564)
(98.4454 130.557 2.65956)
(72.9139 84.3405 3.02343)
(76.0245 77.8874 0.263455)
(89.0634 79.9622 -3.27568)
(112.312 96.552 -3.68865)
(158.635 130.72 -3.74157)
(220.687 171.064 -0.249801)
(283.594 207.681 1.83231)
(403.067 262.091 -2.43586)
(-499.764 1354.32 -5.12483)
(-292.499 1142.36 -1.37427)
(-257.307 1202.23 -22.7859)
(-285.489 1101.83 -24.3122)
(-182.491 1157.89 -14.7262)
(-54.114 1180.56 -18.5677)
(53.9533 1182.87 -16.6256)
(171.181 1009.74 -12.1356)
(229.316 766.269 -19.3873)
(227.692 526.168 -13.8303)
(188.516 332.329 2.14932)
(136.715 193.861 2.58546)
(93.6836 116.3 -0.906736)
(80.6904 92.3459 -3.3295)
(90.1029 91.6535 -4.74838)
(102.475 97.1249 -3.48129)
(123.784 110.251 -0.111906)
(163.384 136.42 3.58346)
(211.84 171.902 1.86795)
(320.668 234.988 -3.60449)
(-498.073 1520.63 -19.7018)
(-302.908 1354.7 -8.19258)
(-269.721 1444.48 -18.7898)
(-285.748 1244.6 -24.6404)
(-180.191 1220.94 -20.7407)
(-52.3354 1197.32 -19.3238)
(53.8603 1192.25 -18.4313)
(166.161 1031.77 -16.3033)
(233.155 830.69 -17.9901)
(245.905 617.332 -3.02481)
(221.113 422.527 2.83091)
(173.715 266.803 -2.92275)
(128.131 168.675 -4.60265)
(103.692 121.581 -4.75029)
(99.1228 106.546 -4.37433)
(104.699 105.759 -0.574266)
(117.425 111.412 3.3344)
(141.294 126.742 3.23528)
(174.008 153.175 -0.705426)
(266.497 215.074 -5.70093)
(-508.26 1710.58 -23.4168)
(-318.829 1605.42 -19.6206)
(-281.113 1722.61 -18.1806)
(-278.212 1423.03 -15.2927)
(-172.865 1312.72 -21.9191)
(-47.2703 1226.09 -20.6717)
(56.007 1208.16 -20.2494)
(162.742 1057.83 -15.7954)
(232.05 881.948 -9.47927)
(257.374 694.813 -1.08525)
(246.967 509.062 -5.88776)
(211.243 354.184 -10.3365)
(171.79 242.435 -9.00011)
(141.286 172.14 -4.91106)
(119.711 134.833 -1.56548)
(113.172 121.912 2.19963)
(122.157 123.563 3.03561)
(141.803 135.415 -0.299315)
(167.142 155.236 -3.65307)
(234.187 202.053 -3.9952)
(-517.145 1925.78 -15.9546)
(-326.592 1863.33 -14.0292)
(-290.133 2058.57 -27.7155)
(-255.29 1690.08 -34.906)
(-170.23 1431.14 -23.1404)
(-42.4604 1261.07 -21.2734)
(58.5169 1231.81 -21.0428)
(161.07 1090.99 -15.2395)
(231.189 929.976 -7.25971)
(264.003 759.372 -8.51619)
(266.751 596.024 -13.7555)
(245.356 447.18 -13.718)
(212.868 323.808 -8.90794)
(181.689 235.909 -0.567527)
(151.694 180.527 2.00304)
(132.829 149.121 1.4614)
(139.899 147.09 -1.17396)
(152.294 151.329 -4.96319)
(168.287 163.177 -4.30513)
(214.241 195.036 -0.685304)
(-518.124 2120.28 -10.7114)
(-370.922 2093.1 -6.73656)
(-283.403 2382.77 -18.1146)
(-168.15 2097.87 -26.6316)
(-138.727 1625.16 -25.8861)
(-30.3748 1329.92 -22.5344)
(63.926 1266.64 -21.0658)
(159.122 1122.46 -16.4697)
(227.482 978.242 -11.9612)
(267.784 823.182 -13.8193)
(282.916 673.265 -11.7123)
(272.474 527.134 -9.05806)
(247.36 398.25 -3.08353)
(218.811 300.898 2.11528)
(187.715 231.497 -0.34253)
(163.798 187.682 -3.12255)
(160.536 173.046 -4.74799)
(167.363 170.359 -4.36923)
(176.076 175.339 -0.604858)
(212.574 200.868 2.41836)
(-547.966 2469.28 -14.2506)
(-438.481 2457.91 -7.96072)
(-318.921 2742.12 -16.9758)
(-121.459 2693.53 -15.5063)
(-31.3206 2185.7 -27.9697)
(33.8697 1683.44 -25.688)
(100.977 1453.57 -22.3824)
(180.426 1244.14 -18.3736)
(241.459 1089.8 -16.293)
(283.278 945.119 -12.851)
(306.016 803.946 -7.87172)
(306.647 659.327 -5.58866)
(294.289 530.082 -2.48745)
(273.717 424.741 -1.55282)
(249.091 342.356 -4.65277)
(228.46 284.272 -6.71817)
(213.396 246.215 -4.37232)
(202.388 220.669 -0.374613)
(206.407 217.662 2.49399)
(229.007 228.461 2.46227)
(-2350.86 -2359.23 128.171)
(-1645.98 -2289.06 162.825)
(-1327.48 -2355.32 198.051)
(-1255.92 -2269.33 57.1402)
(-786.775 -2548.18 3.36686)
(-238.336 -2632.32 -5.71068)
(250.549 -2613.19 -11.5637)
(781.686 -2356.55 0.550174)
(1153.28 -1917.34 -4.28187)
(1254.69 -1403.81 11.0857)
(1203.48 -981.627 10.2508)
(1166.38 -736.546 5.66693)
(1160.49 -593.307 17.9801)
(1242.48 -531.834 33.157)
(1347.78 -495.128 34.2967)
(1505.9 -488.654 24.9489)
(1690.97 -496.1 22.4832)
(1911.85 -507.983 29.2925)
(2112.33 -512.119 31.741)
(2476.36 -546.033 26.5652)
(-2252.99 -1647.19 170.722)
(-1729.79 -1755.38 211.889)
(-1466.36 -1498.45 146.933)
(-1152.51 -1549.88 2.80666)
(-789.804 -2272.74 -17.4327)
(-253.96 -2588.66 -9.17172)
(255.31 -2579.67 -9.66056)
(822.441 -2243.22 -1.37927)
(1125.85 -1502.61 6.40665)
(1017.99 -823.737 11.0766)
(839.068 -454.398 14.13)
(802.555 -331.28 8.24303)
(865.627 -286.068 16.117)
(966.67 -274.124 29.6069)
(1128.33 -278.382 32.9717)
(1336.3 -288.105 30.8615)
(1580.26 -306.84 29.5813)
(1838.46 -319.634 35.3369)
(2072.32 -363.58 36.2974)
(2458.69 -433.742 34.7101)
(-2320.56 -1306.48 209.318)
(-1471.1 -1467.39 167.871)
(-1179.39 -1187.43 14.1617)
(-949.7 -1290.61 -12.388)
(-826.169 -2176.16 -8.64214)
(-273.265 -2588.21 -3.32294)
(286.541 -2578.01 -3.80609)
(868.279 -2159.21 -5.29962)
(1008.82 -1094.27 17.9689)
(721.15 -424.664 7.72232)
(608.942 -228.342 11.575)
(698.524 -214.653 13.8328)
(820.819 -209.013 10.8299)
(984.63 -225.986 8.32088)
(1195.97 -249.31 9.02088)
(1449.06 -262.691 14.7918)
(1730.88 -273.457 22.4493)
(2066.13 -282.742 20.2272)
(2387.33 -269.463 34.6823)
(2758.99 -307.137 24.5488)
(-2241.4 -1218.6 80.2634)
(-1508.08 -1152.81 26.8883)
(-1248.38 -948.747 4.78904)
(-950.417 -980.321 9.65378)
(-949.831 -1825.53 -7.48098)
(-489.889 -2512.67 3.28754)
(116.856 -2641.75 -14.6283)
(718.688 -2336.81 -4.05654)
(954.454 -1108.19 9.31796)
(527.242 -209.995 1.14667)
(625.358 -205.704 2.98398)
(737.037 -232.303 5.62218)
(852.389 -256.139 2.74272)
(970.933 -274.51 1.1848)
(1100.97 -286.329 1.09708)
(1245.85 -288.502 3.31289)
(1425.73 -280.474 19.776)
(1694.77 -258.348 8.75503)
(2110.79 -172.004 28.427)
(2728.8 -118.914 37.4287)
(-2479.23 -777.731 10.0502)
(-2164.31 -780.093 -10.9363)
(-2042.47 -819.918 -1.21469)
(-1649.43 -924.274 8.99564)
(480.703 -166.78 -1.54012)
(953.312 -192.602 -2.85816)
(1032.61 -204.174 -4.46569)
(1085.98 -206.182 -5.66017)
(1121.42 -201.55 -4.82107)
(1156.48 -193.677 -5.46128)
(1196.44 -186.929 0.817837)
(1250.45 -183.705 -0.721004)
(1334.47 -176.127 2.38354)
(1443.83 -173.944 3.77548)
(1623.18 -145.284 9.44649)
(2177.07 -36.1988 23.8062)
(-2547.04 -235.975 -2.76267)
(-2493.36 -256.093 -10.0018)
(-2507.07 -274.438 -8.1643)
(-2432.14 -481.874 -7.20161)
(1237.7 -119.314 -8.41841)
(1294.35 -65.3137 -7.85143)
(1269.6 -62.5588 -6.55965)
(1250.16 -60.1137 -5.52376)
(1233.75 -58.0517 -3.79945)
(1231.8 -56.9618 -3.60051)
(1233.15 -56.2186 -2.59452)
(1239.84 -54.3836 -1.69318)
(1258.41 -49.2733 -1.30248)
(1282.54 -44.5051 -0.375304)
(1337.83 -34.0747 2.00212)
(1659.32 22.9377 12.4679)
(-2533.03 243.277 -21.6523)
(-2496.25 244.97 -20.9327)
(-2513.22 278.801 -13.3277)
(-2573.04 112.259 -26.9851)
(1352.33 17.9773 -9.93624)
(1296.85 67.0128 -7.43399)
(1277.32 62.5391 -5.29229)
(1258.5 59.0548 -5.64234)
(1245.9 55.2921 -5.95487)
(1236.12 53.9016 -4.60159)
(1228.5 53.649 -1.87496)
(1230.71 53.9895 -0.116308)
(1237.23 54.8971 -0.287548)
(1250.93 56.6695 -0.912785)
(1275.88 60.9805 -0.590531)
(1430.05 92.3707 4.57023)
(-2286.38 756.879 -16.2455)
(-2177.99 797.855 -21.346)
(-2095.56 846.711 -19.8921)
(-2275.94 696.766 -19.9073)
(1149.57 150.265 -8.44723)
(909.88 186.188 0.556751)
(952.292 187.125 -6.41624)
(986.266 185.236 -8.39035)
(1008.82 182.294 -2.74624)
(1020.86 175.648 3.96775)
(1033.22 170.58 2.57029)
(1049.73 165.129 -3.20255)
(1072.78 161.372 -4.07862)
(1101.54 160.286 0.151506)
(1126.55 156.511 3.02733)
(1223.49 172.372 6.20695)
(-1854.07 1116.58 -18.0003)
(-1447.35 1089.76 -13.6897)
(-1040.24 971.6 -5.93604)
(-1005.54 900.165 -5.90756)
(-166.586 491.181 -3.82558)
(-112.841 1154.8 -9.16262)
(19.8222 1265.28 -8.65398)
(147.321 1065.59 -6.23623)
(96.0019 112.78 -1.62026)
(216.837 110.059 -8.02624)
(366.835 156.233 -3.43166)
(502.136 191.174 6.75378)
(608.198 212.882 8.78462)
(685.197 221.555 0.44023)
(755.217 224.007 -9.45992)
(824.135 228.773 -8.35643)
(877.769 229.267 2.44846)
(918.57 226.662 7.88598)
(958.141 223.059 4.15111)
(1054.12 231.621 2.79133)
(-1352.4 1209.9 -10.1947)
(-788.034 977.243 -13.1281)
(-403.479 691.76 -6.59615)
(-200.091 510.947 -5.60478)
(-184.719 904.49 -4.36815)
(-61.0639 1221.83 -8.88451)
(67.7109 1222.21 -7.20745)
(183.485 866.225 -0.129335)
(112.926 239.362 -4.65299)
(67.4279 70.6455 -3.90105)
(105.479 72.89 5.01975)
(175.892 101.852 3.88837)
(273.494 141.088 -4.71179)
(388.565 181.946 -10.6411)
(496.278 214.723 -7.28118)
(587.99 234.145 6.49807)
(662.905 245.055 12.2576)
(720.883 251.422 6.75831)
(782.866 255.211 -2.60717)
(901.963 269.598 0.0454956)
(-945.885 1161.18 -7.50442)
(-437.267 805.821 -5.90378)
(-221.255 588.84 -0.465804)
(-197.827 604.019 0.636794)
(-195.246 979.955 -6.36759)
(-58.4009 1198.31 -8.77058)
(63.0727 1205.37 -6.31914)
(183.071 906.247 -6.64438)
(158.001 385.704 -3.93553)
(76.8702 117.203 6.05508)
(57.1356 59.3937 3.22586)
(73.5909 57.6695 -3.89124)
(120.919 83.6222 -6.57381)
(201.482 126.804 -2.86589)
(295.551 168.966 7.86345)
(380.033 199.96 13.0501)
(457.081 223.46 6.45861)
(541.956 243.402 -3.06572)
(623.78 262.594 -2.10683)
(753.931 287.275 4.42464)
(-706.048 1118.36 -7.53807)
(-318.783 770.925 -6.3818)
(-209.209 676.763 2.70907)
(-224.178 710.659 1.83641)
(-196.717 1030.28 -6.94639)
(-56.0769 1180.25 -8.99047)
(59.3476 1188.78 -7.09309)
(180.706 940.893 -9.86181)
(188.504 508.156 5.35477)
(109.43 193.415 6.21162)
(60.7499 80.7115 -2.93142)
(63.3496 64.9951 -5.26704)
(76.743 65.6972 -0.759314)
(108.926 83.5253 4.93569)
(160.003 113.43 7.47764)
(220.601 144.769 4.38477)
(300.007 180.09 -2.99234)
(394.207 217.773 -4.5395)
(475.403 246.647 1.82677)
(603.169 280.955 5.89256)
(-569.947 1115.8 4.0818)
(-276.356 832.285 2.22058)
(-201.529 793.63 4.7518)
(-246.1 820.744 -0.659137)
(-192.066 1064.01 -6.30689)
(-54.0921 1166.06 -7.81176)
(55.5953 1177.73 -7.43536)
(177.735 964.88 -5.19878)
(207.365 605.9 9.33842)
(146.874 290.037 -2.01059)
(90.3984 133.902 -5.1125)
(67.9076 82.276 0.0759189)
(62.4572 63.7929 4.02892)
(70.0501 62.614 4.80815)
(91.5405 74.1104 2.27027)
(133.68 101.547 -0.80171)
(200.65 142.601 -2.82324)
(278.754 184.657 0.836157)
(348.452 216.316 7.26949)
(469.415 260.95 7.28845)
(-514.32 1197.4 19.0525)
(-268.52 929.921 18.0584)
(-216.378 944.48 6.76236)
(-263.549 932.326 -0.347706)
(-184.16 1096.75 -7.03322)
(-52.8813 1164.37 -7.81317)
(54.0176 1169.63 -5.86877)
(171.218 976.614 0.877822)
(216.293 677.422 2.19785)
(184.92 401.622 -8.60722)
(134.078 217.966 -1.60549)
(89.1357 119.483 6.01701)
(64.1455 74.3223 5.49175)
(64.9467 66.3163 2.04224)
(76.6933 68.6903 -1.50616)
(98.8503 84.2433 -1.40066)
(141.183 115.352 1.09079)
(198.001 151.655 7.02571)
(254.761 185.295 9.19833)
(365.901 236.476 6.47595)
(-482.859 1307.66 22.0803)
(-274.514 1086.87 25.0058)
(-240.999 1139.3 9.52267)
(-273.409 1051.77 -0.339767)
(-177.467 1134.28 -1.03275)
(-52.3266 1167.12 -6.3406)
(52.7774 1168.69 -4.11744)
(165.42 990.801 0.488495)
(219.331 744.49 -8.14256)
(215.221 504.601 -7.04436)
(174.503 310.655 8.53738)
(121.791 175.014 9.3029)
(79.8917 100.207 3.17901)
(69.0198 79.3748 -0.903416)
(77.8731 79.2156 -2.13469)
(89.4149 84.4852 0.151951)
(109.048 96.7341 4.49659)
(145.04 121.299 7.76998)
(189.029 153.379 5.84567)
(290.083 211.299 3.02598)
(-479.333 1465.74 14.8496)
(-284.753 1291.24 24.5306)
(-254.375 1375.31 16.3712)
(-274.833 1184.2 2.59165)
(-174.21 1184.83 -3.47276)
(-50.9804 1175.58 -5.46493)
(52.6923 1171.34 -3.50792)
(160.149 1010.04 -3.5723)
(223.716 810.209 -8.32169)
(233.207 591.108 5.32871)
(204.166 393.946 14.1293)
(154.491 238.839 6.71237)
(110.025 146.701 0.523665)
(89.4388 105.94 -1.28913)
(85.7127 92.7097 -0.143928)
(90.3932 91.3609 3.91985)
(101.253 95.8356 6.93356)
(121.991 109.139 6.47978)
(152.548 133.559 3.16965)
(237.772 191.454 1.87791)
(-490.963 1650.96 13.3179)
(-301.697 1537.94 22.7498)
(-264.199 1646.18 23.505)
(-268.339 1347.5 20.3761)
(-167.727 1263.38 0.762344)
(-46.1381 1196.08 -4.92708)
(53.6076 1180.5 -3.59936)
(156.812 1034.99 -3.15331)
(224.191 859.497 1.06572)
(243.248 663.733 11.7529)
(228.088 472.36 8.45964)
(189.71 320.239 -0.984802)
(151.891 216.693 -1.86593)
(123.651 152.152 0.788411)
(103.346 116.949 4.01018)
(97.2031 104.544 6.39262)
(104.514 105.999 6.61868)
(121.933 116.525 3.8873)
(143.62 133.977 2.68186)
(205.858 177.357 4.44186)
(-502.401 1867.4 20.0428)
(-309.427 1795.43 27.916)
(-272.984 1976.93 21.3665)
(-248.549 1593.47 9.36833)
(-166.158 1367.62 2.76234)
(-42.0681 1222.13 -3.68935)
(55.228 1197.93 -3.65367)
(155.008 1063.29 -0.692517)
(221.361 899.64 6.81814)
(249.809 722.849 7.23752)
(247.791 557.622 -0.531693)
(225.256 413.183 -3.0389)
(192.842 295.053 1.27886)
(160.779 211.266 7.34817)
(132.358 157.518 7.6233)
(114.089 128.206 5.4797)
(118.974 126.296 3.43011)
(129.837 129.523 1.8612)
(143.717 139.352 4.1759)
(187.012 169.57 8.06377)
(-504.397 2062.2 22.9703)
(-352.811 2023.47 29.5367)
(-265.329 2298.91 40.5461)
(-166.145 1989.41 34.8463)
(-139.848 1539.65 10.8637)
(-32.4645 1276.34 -0.472942)
(59.1404 1225.65 -2.30616)
(151.696 1088.71 0.46828)
(217.249 941.2 3.66078)
(253.452 784.832 -0.36415)
(265.443 636.791 0.689073)
(253.094 492.573 3.65194)
(225.126 366.097 8.09472)
(195.537 270.954 10.3309)
(165.773 204.416 5.97827)
(142.235 163.275 2.55058)
(138.197 149.028 2.33185)
(143.432 145.992 3.96535)
(150.662 149.833 7.98035)
(185.052 174.723 10.2512)
(-536.247 2410.07 17.8142)
(-423.276 2395.24 25.9196)
(-304.575 2677.5 26.9097)
(-112.021 2600.02 48.8779)
(-38.4581 2071.61 29.6391)
(23.5632 1588.63 11.7699)
(90.2515 1384.59 4.44332)
(168.409 1188.6 3.9731)
(227.344 1040.27 3.32049)
(267.588 901.882 3.00881)
(288.568 763.118 7.69896)
(286.626 620.335 8.8392)
(271.03 491.908 9.52512)
(249.008 388.373 8.67995)
(224.768 310.011 4.29467)
(203.939 253.992 2.39106)
(188.341 217.693 4.82544)
(178.143 194.402 8.15226)
(181 190.625 10.3069)
(201.906 201.307 10.4227)
(-2445.08 -2440.8 104.065)
(-1734.68 -2386.77 156.17)
(-1418.96 -2416.98 226.58)
(-1283.76 -2302.26 60.6385)
(-773.841 -2557.39 14.9636)
(-234.93 -2695.39 3.37178)
(254.189 -2673.24 -11.9802)
(787.99 -2399.05 -1.80275)
(1159.53 -1947.15 -3.38326)
(1258.84 -1425.85 9.09256)
(1200.11 -990.819 14.4025)
(1156.34 -739.243 9.96277)
(1147.01 -593.579 16.8195)
(1223.98 -529.859 33.1517)
(1328.81 -492.629 36.0246)
(1487.29 -484.455 26.7882)
(1672.53 -495.77 22.4669)
(1902.32 -512.45 25.6851)
(2107.82 -516.225 25.0384)
(2481.22 -554.369 20.6896)
(-2339.82 -1713.49 165.72)
(-1788.92 -1797.88 224.128)
(-1463.01 -1493.2 127.406)
(-1119.79 -1586.22 10.6968)
(-799.799 -2312.18 -0.0289051)
(-247.127 -2659.94 3.13031)
(262.659 -2639.33 -9.45816)
(829.241 -2275.74 -3.09267)
(1123.4 -1511.33 9.53029)
(1018.67 -830.377 7.72331)
(833.136 -450.918 15.0178)
(789.438 -325.592 11.1172)
(851.771 -279.547 15.6851)
(950.908 -265.167 31.7946)
(1111.77 -271.488 36.2829)
(1320.43 -281.908 32.4336)
(1570.68 -304.159 31.2302)
(1846.04 -319.831 35.5232)
(2077.41 -358.15 30.5752)
(2482.71 -433.833 27.1059)
(-2343.8 -1362.91 222.597)
(-1476.85 -1448.65 126.302)
(-1178.36 -1173.74 -2.14013)
(-953.35 -1311.89 15.1339)
(-832.731 -2218.98 10.8351)
(-269.808 -2653.73 7.62674)
(290.438 -2627.7 -5.01159)
(871.306 -2182.17 -5.60533)
(991.121 -1080.69 20.3076)
(717.045 -423.095 8.78458)
(606.472 -223.475 10.0365)
(690.759 -206.082 16.18)
(812.083 -207.377 14.8928)
(978.312 -224.17 12.8818)
(1192.21 -247.485 12.9899)
(1449.56 -262.16 16.1778)
(1737.4 -269.767 23.4746)
(2078.09 -281.385 20.8142)
(2427.4 -266.553 33.5557)
(2840.63 -306.097 18.4832)
(-2234.74 -1237.68 55.7717)
(-1507.74 -1100.02 -7.25245)
(-1246.14 -930.623 -18.2462)
(-939.024 -969.664 14.2864)
(-950.617 -1873.57 9.43488)
(-487.056 -2588.91 12.4925)
(119.717 -2699.59 -12.2321)
(720.447 -2381.78 -5.51262)
(932.152 -1086.16 10.83)
(525.478 -208.813 6.55608)
(625.386 -204.789 4.78639)
(740.058 -225.683 7.86245)
(855.357 -251.569 7.61283)
(971.426 -270.714 5.91411)
(1099.73 -284.207 5.00817)
(1240.74 -288.248 3.72373)
(1419.47 -282.878 20.5781)
(1674.53 -267.235 12.4078)
(2101.91 -185.883 30.7047)
(2791.36 -122.76 39.7284)
(-2473.51 -770.599 5.13354)
(-2195.03 -781.481 -15.505)
(-2087.08 -818.822 -6.14454)
(-1668.25 -923.28 2.96182)
(452.829 -161.005 0.104804)
(953.107 -189.711 1.39318)
(1031.57 -201.374 -0.02688)
(1092.22 -205 -2.04781)
(1130.45 -200.856 -2.16763)
(1164.68 -193.137 -4.45128)
(1204.5 -185.535 0.898129)
(1255.76 -183.221 -0.87572)
(1338.71 -177.688 1.29587)
(1445.93 -177.748 2.34982)
(1613.53 -156.37 9.09197)
(2169.38 -56.0677 24.7695)
(-2588.35 -239.816 -5.48619)
(-2543.77 -254.364 -10.315)
(-2543.44 -271.98 -8.19916)
(-2485.04 -481.061 -3.46616)
(1239.89 -118.793 -3.77997)
(1305.68 -64.8054 -2.06737)
(1282.72 -62.0859 -2.52354)
(1265.26 -59.9182 -2.37411)
(1251.03 -57.89 -1.41852)
(1250.93 -56.747 -1.341)
(1254.67 -55.9721 -0.908441)
(1263.35 -55.1544 -0.18903)
(1282.27 -51.1748 0.206933)
(1304.94 -46.8909 0.737864)
(1349.88 -39.2257 3.1303)
(1645.64 8.03897 13.5646)
(-2580.21 236.129 -15.4435)
(-2550.62 251.211 -7.99097)
(-2550.41 280.29 -5.56253)
(-2620.74 118.255 -17.262)
(1358.06 18.7181 -4.94622)
(1307.53 65.8203 -0.817072)
(1289.83 61.5658 0.646388)
(1272.91 58.6658 -0.461709)
(1262.32 54.7865 -2.28409)
(1256.36 52.9954 -2.09832)
(1252.92 52.8714 -0.438744)
(1256.58 52.7224 0.99726)
(1265.3 53.2408 0.744565)
(1280.29 54.4168 -0.117613)
(1303.77 57.3058 -0.327534)
(1442.27 82.0312 4.05985)
(-2326.84 755.239 -6.68543)
(-2217.4 799.78 -8.74813)
(-2132.04 842.954 -11.6483)
(-2315.62 701.661 -13.3436)
(1150.75 149.116 -2.6194)
(915.309 183.225 5.19248)
(959.561 184.985 -0.0701894)
(996.213 182.466 -5.51012)
(1019.94 179.445 -2.74934)
(1033.36 173.268 5.05837)
(1049.16 168.031 6.62933)
(1070.09 164.394 0.95189)
(1095.1 160.076 -3.48028)
(1125.81 159.637 -0.824914)
(1152.4 155.537 2.94219)
(1238.51 167.019 6.50702)
(-1885.14 1114.96 -11.8871)
(-1479.46 1086.97 -3.87119)
(-1077.01 968.286 1.5656)
(-1071.65 906.544 -11.7681)
(-154.341 437.528 -3.99925)
(-112.75 1191.6 -8.72286)
(20.8094 1302.9 -8.26558)
(146.693 1095.52 -5.29479)
(100.98 97.0004 -1.01754)
(219.009 106.942 -3.52953)
(368.448 151.305 -5.09427)
(499.989 184.278 5.15294)
(607.356 205.953 12.3488)
(688.809 217.782 7.69111)
(761.179 222.543 -4.41358)
(831.109 225.643 -9.50443)
(887.908 227.868 -1.45604)
(932.297 224.666 8.5386)
(972.608 222.752 6.61462)
(1067.62 229.004 4.04743)
(-1373.51 1205.61 -7.68527)
(-805.142 973.454 -6.36178)
(-416.401 685.148 -1.72223)
(-203.074 492.168 -2.14108)
(-181.025 913.402 -4.51886)
(-60.3357 1261.13 -9.05871)
(67.8487 1258 -5.86409)
(182.39 879.252 2.0326)
(106.834 222.087 -4.01622)
(62.2083 63.0433 -4.5062)
(100.65 67.2069 4.6028)
(172.744 97.4312 7.12526)
(267.951 135.493 1.1868)
(381.913 174.212 -7.98327)
(489.97 206.558 -8.95523)
(579.007 226.379 3.13496)
(659.35 238.428 13.6252)
(724.944 248.243 11.99)
(787.948 253.852 -0.327495)
(911.15 267.191 -0.321533)
(-950.911 1146.02 -2.31451)
(-436.946 793.568 0.50042)
(-221.96 577.475 0.433839)
(-198.367 586.679 -0.194887)
(-192.632 989.801 -5.38836)
(-57.6805 1237.98 -8.01154)
(63.9448 1241.02 -3.92907)
(183.354 924.23 -3.69555)
(151.59 371.431 -5.84951)
(68.8964 104.679 5.36729)
(53.1772 53.6716 5.16136)
(69.1916 53.1324 -0.764692)
(114.228 76.0497 -5.38777)
(189.268 116.106 -4.48836)
(280.197 157.162 5.80257)
(369.531 190.161 15.7352)
(449.644 216.193 13.04)
(537.159 237.967 -0.647342)
(621.555 257.506 -4.51707)
(758.323 284.614 3.51285)
(-703.351 1091.43 -3.44274)
(-312.316 742.613 -0.663641)
(-200.581 653.818 2.96239)
(-217.035 696.321 2.79235)
(-196.378 1048.66 -6.24728)
(-55.5457 1220.08 -7.21617)
(60.5058 1225.43 -4.16439)
(180.75 961.221 -9.02864)
(182.728 499.428 4.07242)
(102.069 181.725 8.17945)
(55.4771 72.6425 -0.467753)
(58.1487 58.7532 -5.1599)
(69.9623 58.5971 -2.33126)
(99.6277 74.894 4.55316)
(150.998 104.812 9.83646)
(211.399 136.369 9.14651)
(287.153 169.54 -0.630836)
(381.581 206.206 -6.96522)
(466.071 238.717 1.17009)
(603.484 276.847 8.10453)
(-567.178 1088.64 2.61808)
(-269.265 802.056 2.34093)
(-201.187 767.48 6.40304)
(-241.464 807.694 1.61775)
(-192.553 1085.54 -5.74285)
(-53.6138 1205.19 -6.17683)
(56.577 1214.79 -4.65824)
(177.978 986.756 -5.78433)
(203.468 605.129 10.8724)
(140.28 278.273 1.35347)
(81.536 122.01 -5.39488)
(60.6326 73.2316 -2.07668)
(57.1704 57.6972 3.58352)
(65.1247 57.1063 5.97077)
(84.6551 67.7382 4.32047)
(122.916 91.7502 -0.233922)
(185.327 129.196 -4.03909)
(262.736 171.014 0.124163)
(337.622 205.522 9.77158)
(465.333 254.175 9.81293)
(-509.616 1166.74 15.9632)
(-260.256 900.358 15.9648)
(-217.53 922.687 10.004)
(-260.287 918.552 1.08283)
(-185.429 1117.23 -7.59066)
(-52.3827 1204.67 -6.12934)
(54.7577 1209.42 -4.12891)
(171.611 1001.82 2.04831)
(215.326 685.441 5.47458)
(177.815 391.802 -8.68948)
(122.64 200.685 -4.56935)
(79.8922 107.163 5.23912)
(58.872 67.9742 6.56674)
(58.9767 59.461 3.56967)
(68.3026 60.9749 -0.846092)
(88.2063 73.893 -2.07528)
(126.958 101.875 0.438093)
(184.75 137.925 8.13121)
(242.157 172.775 10.4742)
(354.771 226.217 6.77612)
(-478.638 1277.84 21.0506)
(-268.935 1061.13 22.9238)
(-242.527 1124.19 8.99326)
(-274.181 1038.98 -0.0898234)
(-177.079 1153.34 -2.94909)
(-51.5671 1208.38 -5.49541)
(53.9349 1210.41 -3.21677)
(166.478 1019 3.12869)
(220.175 756.899 -6.87144)
(209.62 499.04 -9.90524)
(163.49 294.101 5.9114)
(112.453 163.538 10.6627)
(73.0054 91.7517 4.84114)
(61.9954 70.5995 -0.479869)
(68.8988 69.6114 -2.39272)
(78.9753 73.2429 0.0925213)
(99.5564 86.4482 5.63823)
(134.303 111.674 8.75339)
(174.338 141.353 5.76113)
(273.411 197.548 1.83632)
(-473.672 1437.23 17.5281)
(-279.705 1271.07 22.2456)
(-258.777 1372.66 11.0945)
(-279.37 1170.87 -1.3573)
(-173.783 1198.8 -6.13881)
(-51.1172 1216.72 -4.99908)
(53.7874 1213.47 -3.24243)
(162.571 1041.64 -2.67348)
(223.903 825.407 -10.8124)
(228.887 588.921 2.0895)
(196.353 385.235 15.1617)
(146.917 228.621 9.63379)
(100.691 135.239 0.120707)
(79.1883 94.8177 -1.93289)
(74.9578 81.9443 0.106088)
(80.2356 80.8018 5.26166)
(90.7705 85.1475 7.97044)
(107.082 95.5072 6.4298)
(134.188 116.619 1.77123)
(217.804 174.147 1.17908)
(-489.726 1622.09 16.4737)
(-301.276 1523.22 21.4737)
(-267.795 1656.06 17.9762)
(-276.125 1335.84 15.8276)
(-169.083 1274.79 -4.02801)
(-47.6679 1235.89 -5.08866)
(54.3571 1222.67 -3.80444)
(158.761 1068.85 -5.64609)
(225.584 880.412 -2.61298)
(240.6 669.07 11.1465)
(223.649 468.708 11.4241)
(181.396 309.121 -1.03731)
(140.636 203.017 -3.77935)
(111.248 138.806 0.346062)
(92.8394 106.689 5.53966)
(87.2183 93.4172 7.76594)
(92.5094 93.0143 6.74951)