/*--------------------------------*- C++ -*----------------------------------*\
  =========                 |
  \\      /  F ield         | OpenFOAM: The Open Source CFD Toolbox
   \\    /   O peration     | Website:  https://openfoam.org
    \\  /    A nd           | Version:  9
     \\/     M anipulation  |
\*---------------------------------------------------------------------------*/
FoamFile
{
    format      ascii;
    class       volScalarField;
    location    "0.0075";
    object      T;
}
// * * * * * * * * * * * * * * * * * * * * * * * * * * * * * * * * * * * * * //

dimensions      [0 0 0 1 0 0 0];

internalField   nonuniform List<scalar> 
9720
(
1105.25
1092.26
1083.26
1033.11
1003.29
1003.53
1002.36
986.409
965.258
947.541
932.076
928.338
930.08
934.85
943.54
955.356
968.061
980.263
990.45
1005.13
1091.57
1088.27
1009.09
959.556
979.735
999.018
999.8
979.481
941.133
907.68
890.07
891.962
898.165
908.986
923.67
940.533
957.921
973.174
984.585
1000.65
1084.68
1011.15
941.801
930.355
977.557
1000.25
1001.13
978.094
924.876
886.073
886.966
890.622
900.94
913.542
927.071
942.181
958.217
975.249
989.675
1005.9
1034.63
959.108
929.114
909.219
951.344
998.33
1005.99
991.614
917.758
846.247
848.015
851.636
857.366
863.874
872.107
883.755
898.89
920.438
947.063
990.526
1001.42
975.558
973.429
950.448
835.677
835.947
841.934
844.868
846.936
849.678
853.918
859.833
867.924
879.454
894.31
949.216
1000.15
995.181
997.043
995.117
856.505
859.975
858.179
856.491
855.274
855.503
856.313
857.558
859.389
862.143
867.182
904.255
998.502
995.838
997.883
1003.16
865.098
859.4
857.783
856.087
854.842
854.055
853.777
853.937
854.479
855.862
858.263
876.837
982.19
975.144
973.859
987.795
847.542
823.611
825.413
826.987
828.71
830.425
832.046
833.855
836.05
838.84
841.858
854.577
961.059
936.581
920.031
908.648
819.138
851.359
860.112
841.887
790.753
782.253
786.669
791.234
794.625
798.298
802.961
808.521
814.463
819.577
823.714
835.818
943.698
902.735
880.324
839.226
830.769
854.756
854.092
817.448
778.032
783.904
777.565
774.319
775.551
778.744
784.094
790.784
796.83
802.529
807.076
820.027
929.283
885.766
881.36
841.594
836.85
852.955
852.48
820.47
782.427
778.465
770.381
765.103
766.498
771.505
776.82
779.794
782.872
788.138
793.801
808.144
925.154
887.985
885.885
845.936
839.685
851.241
850.922
822.912
787.108
774.177
768.656
764.34
763.962
766.205
769.257
770.851
773.778
780.601
786.36
798.346
926.675
894.347
897.147
852.647
842.001
850.494
849.877
825.27
790.878
774.823
770.737
768.299
760.675
755.071
758.85
766.033
773.617
780.004
781.689
788.075
931.303
905.089
909.687
859.782
845.116
850.938
849.458
827.31
794.87
777.449
774.826
772.899
762.182
753.545
756.441
764.635
773.891
778.367
778.173
784.622
940.126
919.414
922.004
868.075
849.752
852.057
849.645
829.229
800.144
782.358
778.012
774.347
766.274
758.781
759.718
763.935
769.691
773.864
776.832
786.318
952.256
935.948
935.906
879.555
856.039
853.702
850.147
831.4
806.535
788.783
779.829
774.293
771.517
770.072
768.161
765.898
767.139
772.238
778.379
790.854
965.413
953.776
951.449
894.212
864.424
856.062
851.241
834.011
812.879
795.255
782.536
775.741
776.254
778.227
775.732
769.723
769.623
775.009
783.418
796.752
977.662
969.788
969.246
914.793
876.209
859.448
853.274
837.187
818.412
801.761
788.074
781.083
780.061
779.855
779.043
776.419
777.629
784.438
791.123
800.926
988.101
981.817
984.718
941.033
891.153
864.857
856.187
840.51
823.102
807.088
794.029
786.249
781.469
779.983
780.565
782.53
786.977
792.746
796.183
804.257
1003.12
998.394
1002.38
985.127
945.097
902.25
876.104
854.136
836.467
821.185
808.971
798.837
789.03
786.825
788.272
792.531
798.612
802.598
805.395
813.267
1105.04
1091.46
1077.53
1025.61
999.389
1002.7
1001.79
985.346
963.5
945.861
929.909
926.297
928.111
932.659
941.078
952.922
966.028
978.662
989.117
1004.05
1090.87
1083.4
997.403
953.568
980.393
999.632
999.884
978.954
939.589
906.256
887.971
889.547
895.422
905.647
919.949
936.712
954.414
970.551
982.588
999.233
1080.55
999.684
937.327
927.474
979.888
1001.2
1001.44
977.749
923.638
884.427
885.177
887.813
897.324
909.715
923.229
938.225
954.063
971.491
986.545
1003.82
1028.58
953.071
925.682
904.751
957.186
998.202
1005.71
991.026
917.829
844.689
845.682
848.174
852.54
858.107
865.665
876.942
891.829
912.79
939.859
986.013
997.634
974.536
972.832
945.261
840.275
833.345
838.901
841.415
842.823
844.884
848.398
853.743
861.336
872.311
886.364
941.665
998.73
994.864
997.087
994.693
853.971
857.756
855.528
853.53
851.639
851.274
851.644
852.495
853.983
856.347
860.641
895.43
997.525
995.498
997.862
1002.44
862.504
856.963
854.872
852.758
851.142
850.008
848.917
848.863
849.206
850.344
852.439
869.059
981.102
974.957
974.049
987.435
844.916
820.918
822.216
823.527
824.751
825.716
826.626
828.182
830.51
833.293
835.964
846.98
959.194
935.325
919.336
910.697
824.858
849.011
857.627
839.023
807.639
787.065
787.743
789.602
790.879
792.609
796.63
802.705
808.786
813.288
816.803
827.862
941.543
901.981
880.381
840.002
829.199
853.362
852.403
815.281
782.495
789.764
780.977
771.498
771.852
775.214
780.382
785.64
790.197
794.793
799.262
811.984
925.99
883.619
880.862
841.201
834.939
851.339
850.543
818.045
783.808
781.853
769.155
766.713
768.802
771.737
773.951
774.346
775.264
779.597
785.704
800.169
922.359
885.199
883.553
843.954
837.584
849.514
848.665
820.236
786.109
772.068
768.693
768.587
768.536
767.56
766.049
765.059
767.381
774.205
779.613
790.81
924.133
890.845
892.915
848.809
839.198
847.77
847.24
822.127
787.998
771.697
771.788
771.892
765.77
754.812
755.313
761.678
768.964
774.813
775.886
781.43
928.803
900.917
904.593
854.528
841.408
847.706
846.152
823.34
790.38
774.463
774.506
772.366
760.793
749.846
753.433
762.219
770.879
774.112
773.326
779.135
937.481
915.19
917.216
861.733
844.987
848.203
845.677
824.586
795.068
779.472
775.185
770.552
761.63
755.324
756.963
761.708
767.254
770.473
772.457
781.064
949.591
932.075
931.641
872.444
850.316
849.304
845.835
826.568
801.733
784.63
775.18
769.125
766.847
766.986
765.36
762.449
763.082
767.471
773.611
786.119
963.097
950.533
947.416
886.591
857.838
851.146
846.524
829.197
808.038
789.574
776.179
770.932
772.487
774.916
771.856
764.943
764.621
769.725
777.79
791.883
975.557
967.273
965.971
906.701
868.76
853.906
848.097
832.118
812.868
794.933
780.948
776.379
776.175
775.773
774.375
771.212
772.005
777.546
784.252
795.141
985.949
979.397
981.878
933.644
882.757
858.372
850.534
834.976
816.882
800.022
787.103
780.916
776.99
775.44
775.77
777.568
781.432
786.542
789.75
797.977
1000.92
996.032
999.933
980.635
937.543
893.37
868.206
846.774
828.949
813.636
801.72
792.312
783.485
781.952
783.707
788.318
794.269
797.714
799.812
807.256
1109.28
1096.58
1076.12
1018.4
996.237
1003.44
1002.42
985.42
963.392
946.353
929.798
926.642
928.905
933.805
942.456
954.655
968.143
981.035
991.403
1005.83
1095.5
1081.42
985.689
949.804
981.384
1001.07
1000.55
978.717
939.057
906.63
889.756
891.353
897.061
907.067
921.343
938.342
956.438
973.562
985.628
1001.85
1079.06
986.627
935.103
927.75
981.171
1002.37
1001.85
977.092
922.848
885.172
889.085
892.471
900.4
911.698
925.055
940.261
956.325
974.05
990.026
1007.81
1020.95
946.533
923.623
902.013
958.271
999.512
1006.67
991.246
916.479
845.945
846.566
848.781
851.831
856.159
862.821
873.455
888.463
908.717
936.446
987.012
993.487
974.869
973.957
944.517
832.056
830.039
835.255
838.676
840.25
842.075
845.302
850.347
857.808
868.39
881.543
937.544
998.52
995.464
997.331
995.122
851.96
855.208
853.064
851.157
849.411
849.248
849.723
850.796
852.379
854.576
858.044
889.494
997.871
996.291
998.091
1002.87
860.309
854.097
852.074
850.056
848.581
847.717
846.978
847.071
847.579
848.78
850.69
864.842
981.39
975.657
974.563
987.952
842.134
817.158
819.052
820.794
821.949
822.755
823.792
825.672
828.405
831.426
834.041
843.391
958.78
935.552
920.109
913.605
829.984
849.06
857.226
838.341
816.099
788.883
788.212
788.285
788.604
789.649
793.468
799.851
805.993
810.665
814.023
824.294
941.083
902.332
881.066
840.496
828.11
853.387
852.002
814.132
786.424
793.306
783.392
772.815
772.874
776.199
780.414
783.728
787.266
791.642
796.224
808.522
924.097
884.88
884.928
841.156
833.049
851.145
849.924
816.592
784.823
783.584
770.805
770.176
774.707
775.824
775.413
774.158
774.213
777.762
783.468
797.329
921.131
885.772
886.714
843.681
836.331
849.114
847.955
818.797
785.741
773.211
770.503
773.864
775.973
774.303
770.327
767.459
769.427
775.192
779.457
789.637
923.488
890.552
893.274
847.242
837.889
847.325
846.521
820.472
786.986
772.866
774.96
776.521
774.034
764.766
761.937
765.916
771.562
777.051
778.075
783.026
928.725
900.308
904.13
851.835
839.544
846.951
845.582
821.668
788.889
775.606
776.428
775.991
768.072
757.023
759.324
766.658
774.556
778.442
777.691
782.762
937.687
915.151
917.599
858.113
842.414
847.459
845.12
823.006
793.437
779.961
776.286
773.656
767.296
761.195
762.104
766.25
773.246
777.205
778.009
784.846
950.235
932.984
933.222
867.984
847.004
848.594
845.312
825.165
800.235
783.815
775.382
771.976
771.495
771.666
770.166
768.801
770.321
774.038
779.237
790.506
964.24
952.084
949.789
882.275
854.116
850.322
845.974
828.1
806.593
787.607
775.672
774.03
776.685
780.597
778.872
772.937
771.281
775.544
783.227
797.67
977.32
970.084
968.788
901.825
864.406
852.706
847.391
831.257
811.377
792.241
779.689
778.802
780.577
781.63
781.438
778.666
778.56
783.204
791.43
802.89
987.81
982.331
985.866
929.563
877.491
856.17
849.517
834.033
815.025
797.065
785.327
782.175
780.81
780.942
782.031
784.318
788.329
794.577
798.872
806.039
1002.41
998.644
1004.43
981.987
933.529
887.392
864.296
843.928
825.914
810.13
799.235
791.843
785.85
786.138
788.635
794.31
801.584
805.964
807.956
814.907
1113.87
1102.34
1073.46
1011.48
994.012
1003.76
1002.65
985.149
962.166
945.384
928.178
926.351
929.001
934.557
943.561
956.08
969.987
983.367
993.853
1007.84
1101
1076.57
974.479
947.247
981.512
1001.6
1000.99
978.664
937.511
905.014
890.062
891.562
897.488
907.868
922.522
940.095
958.401
976.268
988.73
1004.59
1075.39
973.783
934.279
927.507
980.461
1002.85
1002.24
976.913
921.055
884.376
890.791
895.724
902.539
912.638
925.911
941.873
958.788
976.699
993.235
1011.78
1011.58
942.114
923.677
904.114
954.009
1000.05
1007.3
991.135
914.395
847.981
847.351
849.314
851.306
854.266
859.632
868.977
883.723
903.466
931.134
986.707
989.468
975.799
976
949.241
823.713
827.693
832.748
836.84
838.647
839.922
842.404
846.585
853.243
862.975
874.95
931.14
998.003
995.831
997.574
994.949
848.896
853.158
851.26
849.448
847.845
847.256
847.63
848.574
849.977
851.726
854.27
881.624
997.651
996.404
998
1003.02
857.144
852.015
850.183
848.361
846.781
845.862
845.046
844.984
845.258
846.101
847.568
858.923
980.964
975.322
973.836
987.601
838.832
814.706
816.53
818.369
819.493
820.118
820.974
822.672
825.195
828.09
830.661
838.397
958.012
934.581
918.562
911.207
823.219
848.662
856.997
837.797
819.865
793.212
790.682
787.883
787.242
787.971
791.035
796.583
802.431
807.679
811.002
819.714
940.947
902.123
881.381
843.44
827.243
853.068
851.729
812.99
787.754
801.618
788.228
775.161
775.02
777.307
780.337
782.623
785.066
789.125
793.337
804.295
923.894
886.281
887.496
843.397
831.987
850.917
849.762
815.971
785.802
787.574
775.362
771.831
776.577
778.166
776.328
773.323
773.476
776.564
781.2
793.862
920.408
886.96
890.907
845.822
835.853
848.836
847.877
818.319
786.622
774.623
771.569
774.956
779.047
777.958
772.655
769.717
771.18
775.199
777.971
787.158
922.813
891.44
896.347
848.079
837.578
847.149
846.377
819.944
787.315
774.071
775.621
778.599
778.143
771.799
768.025
769.958
773.111
776.345
777.613
783.962
928.339
900.963
905.602
851.078
838.682
846.197
845.338
821.051
788.664
776.05
777.536
778.043
773.644
764.955
765.789
770.57
775.581
778.334
778.677
784.729
937.277
915.325
918.178
856.046
840.919
846.522
844.512
822.2
792.129
779.747
776.39
774.867
772.573
768.019
767.317
769.764
774.692
779.645
781.102
787.361
949.976
932.997
933.714
864.489
844.705
847.486
844.549
824.062
798.029
783.043
774.095
773.679
774.977
775.09
773.169
771.808
773.73
779.467
784.353
793.2
964.39
951.769
950.557
878.166
850.939
849.059
844.974
826.693
804.305
785.907
774.454
774.708
777.951
783.42
781.796
776.897
776.772
781.889
788.803
800.951
978.563
970.929
968.969
896.397
860.184
851.03
846.061
829.766
809.806
789.912
777.563
778.206
780.987
784.133
786.526
785.124
785.392
789.288
795.879
807.192
989.606
984.528
987.158
922.892
871.762
853.562
847.743
832.461
813.288
794.078
782.024
780.678
781.645
783.344
786.514
790.112
794.484
799.532
804.071
812.426
1004.35
1001.59
1008.2
980.422
926.292
879.913
859.378
840.483
822.305
805.607
794.786
788.673
786.451
787.657
790.868
797.472
806.15
811.748
815.334
824.256
1116.58
1106.31
1070.97
1006.82
992.814
1003.99
1003.08
985.145
961.283
944.431
926.481
925.709
928.71
934.894
944.166
956.874
971.107
985.011
995.639
1009.25
1105.14
1073.14
967.865
945.013
982.852
1002.26
1001.58
978.882
936.091
903.434
889.124
890.244
896.077
907.236
922.736
940.757
959.195
977.623
990.395
1006.12
1073.55
966.611
932.823
926.713
982.245
1003.46
1002.69
977.124
918.89
882.823
890.187
895.833
901.879
911.139
924.409
941.017
958.749
977.309
994.428
1013.68
1006.71
939.735
921.732
903.027
955.434
1000.36
1007.73
991.503
911.847
848.223
847.098
849.371
851.013
853.067
857.477
865.8
879.816
899.038
926.311
985.225
987.449
974.973
974.582
947.527
826.018
826.677
831.584
835.959
838.129
839.098
841.098
844.649
850.528
859.456
870.414
925.832
997.467
995.572
997.421
994.56
848.415
852.64
850.483
848.527
847.059
846.137
846.339
847.036
848.224
849.626
851.544
875.892
997.288
996.231
997.876
1002.71
856.701
851.484
849.371
847.446
845.95
844.923
844.018
843.602
843.715
844.218
845.282
854.72
980.363
974.797
973.258
987.132
838.435
813.675
815.289
817.013
818.082
818.523
819.146
820.646
823.079
825.946
828.384
834.887
957.214
933.297
916.59
908.944
828.699
848.315
856.813
837.154
820.014
795.351
791.555
788.432
786.806
787.134
789.364
793.897
799.456
805.152
808.566
816.335
940.297
900.739
880.626
845.344
826.709
852.646
851.28
812.183
788.797
805.826
793.901
778.385
775.35
776.341
778.26
781.163
784.09
787.414
790.72
800.643
923.309
886.214
887.622
844.822
831.304
850.455
849.44
815.143
785.78
791.645
783.781
772.61
774.767
777.608
777.583
775.939
774.581
775.636
778.411
789.902
920.396
887.308
893.098
847.246
835.328
848.359
847.671
817.307
786.595
777.084
772.455
772.733
777.687
780.244
778.096
773.064
772.608
774.48
776.761
785.056
922.933
892.438
899.12
848.873
837.329
846.718
846.065
819.07
787.581
775.053
774.678
777.787
781.235
779.758
775.255
772.874
773.229
775.943
777.942
784.39
928.524
902.121
907.864
851.015
838.301
845.644
844.964
820.64
788.845
776.076
777.34
780.355
780.478
774.74
769.955
771.649
775.102
780.706
780.925
785.368
937.444
916.249
919.673
855.36
840.314
845.903
844.121
821.79
791.679
778.291
777.201
778.786
778.401
773.954
769.266
771.109
776.89
784.59
784.518
787.832
950.02
933.632
934.666
863.116
843.83
846.746
844.115
823.224
796.435
781.831
775.378
775.517
777.759
776.665
773.788
774.834
779.236
785.047
787.417
793.087
964.401
951.857
951.375
876.305
849.596
848.194
844.341
825.389
802.34
785.222
774.982
775.439
778.002
783.167
784.313
783.298
783.903
786.186
790.426
800.268
978.919
970.764
968.989
893.989
858.339
849.994
845.117
828.354
808.64
789.14
776.568
777.158
780.597
786.297
790.432
789.993
788.994
790.73
795.845
808
990.39
985.168
986.841
919.113
869.073
852.132
846.496
831.22
812.382
792.752
779.648
779.292
781.333
784.529
788.35
791.689
794.816
798.862
804.284
815.178
1005.43
1002.82
1009.36
978.37
921.311
875.493
856.399
838.528
820.379
802.922
791.202
786.455
785.692
787.227
790.455
796.464
804.97
812.799
818.518
828.791
1116.63
1106.19
1069.97
1005.9
992.891
1004.36
1003.32
985.275
961.249
944.391
926.363
925.306
928.312
934.831
944.383
957.223
971.53
985.504
996.141
1009.65
1105.65
1072.83
967.044
944.325
983.567
1002.85
1001.87
979.049
936.092
903.64
889.237
890.117
895.492
906.806
922.659
940.836
959.51
978.253
991.072
1006.62
1074.39
965.616
931.978
925.957
983.503
1004.02
1003.01
977.291
919.012
883.049
890.579
896.258
902.14
911.193
924.373
941.023
958.942
977.855
995.419
1014.48
1006.76
938.962
920.505
901.04
959.819
1000.87
1007.97
991.781
911.039
847.574
847.255
849.67
851.274
853.11
857.339
865.596
879.85
899.274
927.087
986.445
987.076
974.333
973.769
943.349
826.829
825.931
831.013
835.565
837.69
838.628
840.574
844.2
850.211
859.262
870.291
926.7
997.259
995.283
997.221
994.546
847.635
851.952
849.924
848.005
846.42
845.499
845.758
846.525
847.795
849.305
851.301
875.944
996.992
995.963
997.728
1002.61
856.051
850.917
848.928
847.043
845.412
844.361
843.457
843.163
843.302
843.894
845.046
854.574
980.049
974.618
973.233
986.967
837.618
813.192
814.746
816.28
817.413
818.364
819.257
820.607
822.86
825.7
828.135
834.59
956.947
933.363
916.914
910.087
835.436
848.177
856.546
836.943
832.449
794.979
790.075
787.579
786.319
786.64
788.954
793.374
798.841
804.797
808.374
816.044
939.887
900.419
880.799
845.567
826.808
853.031
851.574
812.303
791.27
805.967
793.901
778.142
774.428
775.351
777.409
780.455
783.294
786.601
790.036
799.978
922.854
886.272
887.703
844.885
831.595
850.975
849.651
815.144
786.86
792.643
785.149
772.624
774.301
777.143
777.065
775.134
773.507
774.535
777.314
788.763
920.668
887.616
893.595
847.344
835.794
848.983
847.839
817.642
787.053
778.347
774.229
772.97
777.052
779.519
777.391
771.724
771.242
773.506
775.832
783.961
923.302
893.062
900.306
849.272
837.853
847.36
846.311
819.343
787.569
776.008
776.342
778.655
780.746
778.855
773.895
771.619
772.316
775.275
777.096
783.296
929.033
903.037
909.39
851.692
838.976
846.351
845.297
820.308
788.637
776.965
778.351
780.839
780.225
772.753
768.304
771.109
775.59
780.14
780.103
784.34
938.051
917.303
921.041
856.17
841.001
846.624
844.508
821.192
791.595
778.954
777.839
779.109
778.111
772.296
769.062
771.346
776.617
783.187
783.442
787.102
950.65
934.649
935.885
864.043
844.554
847.474
844.5
822.858
796.694
781.8
775.649
775.702
777.355
776.273
774.141
774.635
777.868
783.168
786.129
792.173
964.965
952.679
952.308
876.876
850.355
848.917
844.775
825.467
802.408
784.807
775.297
775.706
778.169
783.406
782.905
781.098
781.425
784.651
789.437
799.155
979.231
971.34
969.965
894.651
859.088
850.695
845.628
828.551
807.925
788.581
776.974
777.689
780.605
785.36
789.151
788.229
787.815
790.38
795.539
807.2
990.483
985.466
987.354
919.691
869.74
852.779
847.02
831.201
811.539
792.421
780.153
779.547
781.255
784.244
788.182
791.106
793.884
798.156
803.84
815.051
1005.3
1002.76
1009.12
977.947
920.957
875.468
856.643
838.239
820.017
803.031
791.403
786.609
786.044
787.635
790.856
796.432
804.342
812.114
818.475
829.664
1114.04
1102.18
1071.5
1009.63
994.206
1004.47
1003.35
985.406
961.704
944.87
927.345
925.639
928.552
934.675
944.079
956.861
970.897
984.476
995.023
1008.73
1101.89
1076.17
973.035
946.134
983.954
1002.95
1001.88
979.165
936.778
904.494
889.529
890.662
896.51
907.611
922.948
940.875
959.514
977.578
989.997
1005.59
1076.89
972.535
932.869
927.336
984.005
1004.07
1003.01
977.518
919.9
884.05
890.647
895.621
902.285
912.557
926.236
942.552
959.898
978.367
995.271
1013.21
1011.89
940.763
921.233
901.91
960.841
1001.01
1008.14
992.118
911.448
847.127
847.396
849.728
851.68
854.439
859.712
869.137
884.244
904.431
932.964
989.019
988.553
973.831
973.522
943.326
827.8
826.388
831.834
836.128
837.99
839.254
841.801
846.053
852.773
862.578
874.715
932.867
997.261
995.035
997.153
994.697
847.366
852.11
850.094
848.209
846.507
846.05
846.468
847.453
848.905
850.71
853.296
881.515
996.926
995.849
997.755
1002.61
855.821
850.922
849.019
847.194
845.606
844.728
844.085
844.135
844.488
845.344
846.751
858.077
980.035
974.623
973.347
987.073
837.36
813.324
814.992
816.724
818.214
819.309
820.43
822.139
824.547
827.463
830.056
837.584
957.171
933.511
916.879
907.619
830.772
848.952
857.258
838.054
830.027
791.755
788.411
786.87
786.572
787.153
789.792
795.039
801.051
806.691
810.136
818.616
939.789
900.494
880.882
845.099
827.792
853.5
852.164
813.688
791.392
802.03
789.807
775.38
773.982
775.698
778.75
781.322
783.796
787.734
791.804
802.502
922.848
885.733
887.433
845.182
832.612
851.277
850.148
815.994
788.15
789.523
778.058
771.077
775.279
777.368
776.059
772.927
772.847
775.179
779.303
791.662
920.95
887.308
892.728
847.665
836.641
849.259
848.25
818.214
787.327
775.986
772.469
774.411
777.855
777.768
773.906
769.635
770.363
774.335
776.978
785.689
923.565
892.904
899.593
850.021
838.499
847.613
846.655
819.878
787.626
775.023
776.861
778.797
778.395
773.797
768.794
769.534
772.559
776.01
777.266
782.832
929.313
902.905
909.062
852.97
839.671
846.754
845.653
821.021
788.619
776.904
778.608
779.221
775.712
765.5
765.226
770.515
776.669
778.823
778.674
783.628
938.489
917.393
921.084
857.762
841.899
847.102
844.908
822.074
791.799
780.093
777.662
776.685
773.66
767.31
767.284
770.66
775.786
780.1
781.097
786.487
951.33
935.061
936.102
865.952
845.653
848.059
844.93
823.676
797.554
783.105
775.193
774.447
774.965
775.039
773.87
772.808
774.273
779.194
783.767
792.081
965.611
953.62
952.683
879.295
851.768
849.551
845.284
826.102
803.672
785.995
775.307
775.296
778.209
783.183
781.798
777.086
776.43
781.099
788.265
799.968
979.428
972.389
970.728
897.379
860.887
851.403
846.206
829.125
809.206
789.917
778.254
778.853
781.514
784.966
786.351
784.093
784.257
789.012
796.177
807.021
990.174
985.688
988.384
923.451
872.174
853.763
847.704
831.818
812.649
793.971
782.527
781.432
782.494
784.376
786.791
789.289
793.095
799.022
804.478
812.686
1004.4
1002.01
1008.91
980.513
925.611
879.128
858.688
839.642
821.464
805.185
795.029
789.786
787.707
788.839
791.921
797.873
806.078
812.082
815.999
825.141
1109.34
1096.27
1074.13
1016.73
996.646
1004.36
1003.02
985.619
962.77
945.596
928.83
925.997
928.483
933.823
942.877
955.277
968.753
981.555
991.854
1006.2
1095.86
1080.44
984.007
949.87
983.343
1002.32
1001.32
979.098
937.773
905.348
888.741
890.245
896.149
906.857
921.926
939.372
957.595
974.307
986.082
1002.16
1079.84
985.658
934.801
928.622
983.33
1003.47
1002.49
977.527
921.036
884.265
888.564
892.137
900.204
911.975
926.123
941.931
958.354
976.252
991.764
1008.55
1020.99
945.345
922.54
903.1
960.948
1001.07
1008.01
992.084
913.018
846.222
846.941
849.147
852.243
856.622
863.42
874.467
890.072
911.19
939.835
989.765
992.45
973.517
972.978
943.914
827.864
828.929
834.626
838.25
839.827
841.647
844.898
849.952
857.529
868.353
882.035
940.44
997.661
994.782
997.107
994.968
848.464
854.002
851.852
849.943
848.154
848.056
848.567
849.616
851.191
853.405
857.079
890.447
997.077
995.715
997.942
1002.89
856.495
852.668
850.703
848.711
847.271
846.44
845.816
845.9
846.402
847.602
849.504
864.181
980.419
975.025
974.155
987.688
837.911
815.445
817.026
818.805
820.313
821.384
822.479
824.299
827.018
830.151
832.782
842.179
957.949
934.714
918.96
911.658
833.861
849.382
857.578
838.521
824.984
789.741
787.864
787.892
788.013
788.571
791.659
797.782
804.395
809.336
812.634
822.727
940.157
901.17
881.173
842.856
828.311
853.648
852.451
814.748
787.126
795.517
786.609
773.268
772.214
774.758
779.045
782.733
786.183
790.161
794.375
806.476
923.302
884.916
885.7
843.346
833.527
851.462
850.425
816.844
786.541
785.987
772.678
769.741
773.646
775.902
775.799
774.206
773.768
776.548
781.733
795.574
921.343
886.541
889.232
845.596
837.043
849.52
848.458
819.023
787.427
773.992
770.674
773.417
776.746
775.856
771.982
767.936
769.464
775.159
779.254
788.79
923.847
891.922
896.807
848.98
838.67
847.787
847.012
820.839
788.141
773.19
775.094
778.022
776.247
768.055
763.347
766.392
771.964
777.831
778.625
782.675
929.406
902.063
907.413
853.28
840.278
847.345
846.118
822.037
789.189
775.714
777.637
777.766
770.628
757.617
759.542
767.564
776.083
779.411
778.174
782.42
938.78
917.149
920.277
859.179
843.056
847.829
845.56
823.14
792.875
780.167
777.635
775.189
768.018
761.023
762.375
767.407
774.904
778.273
778.353
784.333
951.645
935.066
935.472
868.568
847.491
848.952
845.715
824.972
799.583
784.358
776.366
772.251
770.984
771.205
770.125
769.672
771.329
774.341
778.956
789.748
965.736
954.235
951.889
882.403
854.378
850.656
846.312
827.818
806.413
788.138
776.317
773.837
776.638
781.164
779.631
773.568
771.439
775.219
782.692
797.024
978.781
972.305
970.661
901.436
864.44
852.96
847.626
831.042
811.354
792.348
779.665
779.344
782.097
783.338
782.381
777.958
777.435
782.257
791.176
802.917
989.148
984.481
987.862
928.85
877.106
856.2
849.608
833.751
814.755
796.853
785.397
783.269
782.578
782.214
782.549
783.43
786.872
793.865
799.324
806.376
1003.27
1000.26
1006.44
982.295
932.406
886.18
863.563
843.142
825.12
809.603
799.462
792.868
786.957
786.954
789.073
794.563
801.86
806.67
808.758
815.396
1104.93
1091.32
1075.38
1023.88
999.684
1003.84
1002.35
985.675
963.54
946.012
930.001
926.202
928.091
932.851
941.48
953.264
966.136
978.531
988.865
1003.84
1090.73
1082.17
995.213
954.556
982.282
1001
1000.26
978.973
939.242
906.719
887.889
889.182
894.991
905.481
920.123
936.979
954.514
970.231
981.99
998.616
1081.15
999.455
937.601
929.539
981.784
1002.13
1001.53
977.548
923.279
885.499
885.07
887.525
896.913
909.532
923.587
938.937
954.916
972.298
986.591
1003.03
1028.93
951.887
924.61
904.404
960.077
999.802
1006.65
991.219
916.743
844.361
845.286
847.653
851.975
857.713
865.791
877.904
893.646
915.888
943.492
987.763
996.983
973.481
972.14
944.601
835.858
831.461
837.205
839.858
841.349
843.581
847.355
853.042
861.09
872.686
887.718
944.665
997.861
994.248
996.872
994.751
851.121
855.649
853.573
851.64
849.813
849.682
850.081
850.96
852.49
855.007
859.871
897.318
996.833
995.232
997.881
1002.78
859.122
854.523
852.582
850.575
849.11
848.066
847.136
847.123
847.522
848.776
851.002
868.876
980.299
974.813
974.354
987.753
840.857
818.009
819.744
821.315
822.772
823.758
824.673
826.298
828.736
831.612
834.326
845.846
958.277
935.048
919.679
910.529
827.262
848.899
857.362
838.819
820.731
785.608
786.108
787.788
788.829
790.41
794.384
800.677
806.955
811.454
814.985
826.269
940.292
901.121
880.586
840.244
828.823
853.376
852.489
815.141
783.073
790.321
780.447
769.775
769.996
773.437
778.897
784.047
788.395
792.804
797.203
810.171
924.415
883.438
882.029
841.208
834.462
851.36
850.629
817.879
783.965
781.064
767.012
765.936
768.398
771.633
773.288
773.121
773.739
777.785
783.903
798.637
921.391
885.103
884.987
843.739
837.271
849.504
848.718
820.232
786.184
770.57
766.851
768.013
769.134
768.4
765.793
764.249
766.666
773.558
778.773
789.624
923.561
890.691
893.963
848.521
838.924
847.749
847.366
822.231
787.738
770.333
770.6
771.633
766.67
755.354
755.121
761.197
768.759
774.79
775.558
780.59
928.847
901.155
905.586
854.171
841.073
847.679
846.442
823.393
789.745
773.335
773.939
771.961
759.87
748.8
752.656
762.098
771.689
774.274
773.162
778.441
938.171
916.18
918.361
861.129
844.529
848.179
845.86
824.436
794.296
778.857
774.733
769.568
759.84
754.035
756.133
762.199
768.591
771.042
772.226
780.166
950.819
933.649
932.909
871.397
849.64
849.28
845.989
826.246
801.188
784.33
774.554
767.661
764.79
765.407
764.7
762.711
763.381
767.299
773.035
785.057
964.658
952.692
948.891
885.2
856.895
851.058
846.583
828.87
807.783
789.166
775.316
769.512
771.283
774.536
771.837
764.754
764.236
769.118
777.087
791.07
977.284
969.741
967.756
904.767
867.472
853.639
848.01
831.785
812.505
794.193
779.76
775.522
776.318
776.176
774.289
770.145
770.833
776.608
783.885
794.79
987.637
981.792
984.234
931.895
880.923
857.607
850.228
834.498
816.217
799.109
786.06
780.546
777.314
775.553
775.433
776.411
780.112
785.87
789.58
797.731
1002.22
998.06
1002.4
980.888
935.769
891.132
866.752
845.463
827.666
812.523
800.915
791.91
783.334
781.616
783.316
787.964
794.094
797.641
799.699
807
1104.99
1092.01
1080.59
1030.82
1003.44
1004.95
1003.46
987.282
966.082
948.55
933.033
928.785
930.337
935.035
943.771
955.53
968.03
980.021
990.091
1004.8
1091.3
1087.12
1005.92
959.807
982.298
1000.85
1000.61
979.878
941.636
909.076
890.283
891.875
897.921
908.742
923.4
940.109
957.287
972.423
983.774
999.9
1085.78
1011.91
941.568
931.639
980.707
1001.64
1001.56
978.155
925.33
887.55
886.459
889.625
899.968
912.94
926.824
942.014
957.986
975.116
989.124
1004.72
1035.64
958.035
927.136
906.149
959.349
999.014
1005.75
990.886
917.971
844.597
846.601
850.309
856.099
862.97
871.975
884.697
900.93
923.98
950.821
991.781
1000.9
973.841
971.468
945.208
836.14
833.68
839.968
842.826
844.907
847.887
852.56
859.062
867.897
880.349
896.573
952.557
998.898
994.043
996.553
994.619
851.586
857.315
855.656
853.923
853.068
853.43
854.366
855.709
857.674
860.774
866.763
907.077
997.439
995.195
997.693
1002.57
859.811
856.508
854.974
853.319
852.23
851.466
851.48
851.723
852.425
854.033
856.71
877.248
981.074
974.548
973.602
987.499
842.085
820.743
822.736
824.442
826.199
827.875
829.575
831.519
833.869
836.808
839.929
853.635
959.674
935.331
918.798
909.662
825.168
848.962
857.635
839.133
800.344
780.085
784.207
788.572
791.888
795.632
800.517
806.309
812.269
817.32
821.516
834.173
941.914
901.258
880.044
840.174
830.926
854.81
854.195
817.466
777.535
782.669
774.943
771.521
772.957
776.416
781.905
788.506
794.466
800.133
804.768
818.247
927.292
884.654
881.131
842.365
837.146
853.044
852.659
820.609
782.478
776.589
767.696
763.32
764.93
770.04
775.114
777.686
780.561
785.811
791.643
806.454
923.722
886.867
885.707
846.322
839.997
851.297
851.089
823.13
787.155
773.202
767.818
763.411
763.534
765.64
768.136
769.262
772.095
778.906
784.708
796.762
925.593
893.072
896.656
852.576
842.177
850.407
850.042
825.482
790.742
774.055
769.964
767.879
760.559
754.654
758.188
765.148
772.57
778.965
780.505
786.662
930.727
903.973
908.876
859.275
845.033
850.839
849.66
827.429
794.662
776.983
774.443
772.474
761.353
752.607
755.505
764.102
773.638