/*--------------------------------*- C++ -*----------------------------------*\
  =========                 |
  \\      /  F ield         | OpenFOAM: The Open Source CFD Toolbox
   \\    /   O peration     | Website:  https://openfoam.org
    \\  /    A nd           | Version:  9
     \\/     M anipulation  |
\*---------------------------------------------------------------------------*/
FoamFile
{
    format      ascii;
    class       volVectorField;
    location    "0.0075";
    object      U;
}
// * * * * * * * * * * * * * * * * * * * * * * * * * * * * * * * * * * * * * //

dimensions      [0 1 -1 0 0 0 0];

internalField   nonuniform List<vector> 
9720
(
(-561.603 -562.669 21.8298)
(-444.826 -613.247 25.4499)
(-398.325 -711.331 13.6779)
(-503.313 -919.629 -10.8677)
(-354.695 -1134.3 -12.5112)
(-105.243 -1132.08 -11.1925)
(110.373 -1129.65 -15.2498)
(383.664 -1146.72 -10.9442)
(682.645 -1126.62 -18.1639)
(908.774 -1008.33 -7.23241)
(1071.81 -868.378 -10.81)
(1188.17 -745.606 -16.6237)
(1251.93 -636.886 -0.768294)
(1322.42 -564.325 13.9606)
(1361.14 -500.432 9.46666)
(1383.07 -449.986 -4.7413)
(1378.4 -404.549 -5.83516)
(1391.62 -369.384 1.78918)
(1399.45 -339.629 5.39429)
(1445.2 -318.399 2.71121)
(-610.224 -445.002 27.8618)
(-495.289 -497.699 25.8609)
(-703.825 -707.072 2.8147)
(-781.058 -1005.31 -20.8719)
(-419.86 -1168.83 -12.2895)
(-118.436 -1139.07 -10.5599)
(113.193 -1132.88 -10.861)
(430.369 -1157.33 -8.59777)
(835.122 -1100.46 -11.9972)
(1109.03 -887.214 -6.55215)
(1275.52 -684.535 0.34778)
(1392.9 -574.12 -9.94633)
(1469.83 -489.391 2.11104)
(1525.4 -436.417 17.5157)
(1568.8 -390 14.3357)
(1572.84 -342.145 1.15602)
(1544.37 -302.538 -9.67804)
(1520.45 -270.141 -1.4073)
(1503.62 -269.355 6.29482)
(1510.92 -270.384 6.29243)
(-701.466 -386.98 21.5534)
(-693.727 -684.396 12.679)
(-925.006 -920.685 -8.87593)
(-826.732 -1074.35 -32.6853)
(-451.191 -1124.26 -7.43751)
(-125.939 -1129.07 -6.52712)
(128.299 -1123.8 -6.40906)
(465.335 -1132.98 -7.33641)
(927.023 -986.917 -3.58039)
(1184.54 -690.274 -16.4415)
(1358.61 -509.443 0.907993)
(1547.46 -473.873 4.43191)
(1684.66 -426.472 -13.1448)
(1781.58 -411.721 -27.4879)
(1850.9 -389.907 -27.2035)
(1871.52 -342.136 -19.1182)
(1853.17 -298.067 -16.4914)
(1813.76 -254.167 -23.2204)
(1755.17 -204.553 -16.089)
(1671.01 -192.681 -7.8513)
(-910.785 -484.306 0.922605)
(-998.498 -774.136 0.902592)
(-1075.79 -818.917 2.70297)
(-1026.66 -992.669 -29.7517)
(-648.387 -1121.33 -15.3187)
(-225.426 -1106.77 -6.09229)
(50.8278 -1105.32 -10.9663)
(351.61 -1105.64 -8.15899)
(920.401 -1025.69 -23.5112)
(1764.99 -706.162 -38.4964)
(1951.15 -649.662 -27.6028)
(2062.7 -655.965 -15.2959)
(2119.44 -640.664 -26.7494)
(2152.27 -610.802 -35.5996)
(2168.65 -562.081 -39.1959)
(2171.38 -499.054 -35.7491)
(2165.44 -421.082 -20.0709)
(2133 -316.331 -37.4057)
(2081.11 -165.166 -26.6869)
(1897.54 -90.3277 -16.1707)
(-1127.35 -351.034 -11.9007)
(-1169.01 -421.617 -10.3398)
(-1122.76 -455.736 -4.1461)
(-1116.45 -623.761 -8.1732)
(1953.92 -699.861 -53.3757)
(2323.88 -474.663 -21.9166)
(2338.31 -469.317 -28.4836)
(2353.09 -452.869 -32.7576)
(2367.99 -430.656 -33.6309)
(2378.18 -402.096 -36.5109)
(2379.18 -374.673 -29.5669)
(2370.81 -349.859 -35.559)
(2363.24 -310.834 -36.6581)
(2318.99 -275.814 -35.1332)
(2296.26 -196.294 -34.4426)
(2117.23 -28.6907 -29.2993)
(-1132.75 -104.661 -12.4354)
(-1142.18 -119.168 -11.3424)
(-1133.11 -126.848 -7.22521)
(-1111.45 -225.781 -5.06543)
(2316.88 -228.518 -29.4437)
(2349.9 -120.814 -24.0493)
(2354.12 -118.624 -26.2309)
(2356.34 -115.942 -28.438)
(2356.17 -112.878 -29.8931)
(2354.16 -111.586 -32.9942)
(2350.75 -109.106 -34.7603)
(2344.73 -103.516 -35.4056)
(2345.79 -91.8737 -36.8936)
(2336.91 -79.9655 -36.8641)
(2336.71 -55.0883 -36.7994)
(2251.72 40.3167 -33.02)
(-1132.15 111.841 -20.2909)
(-1135.61 112.992 -17.7382)
(-1126.96 128.337 -11.0965)
(-1108.32 50.688 -17.2876)
(2333.84 31.961 -29.8751)
(2368.89 123.694 -23.3134)
(2373.76 117.261 -24.4009)
(2376.36 112.691 -29.7546)
(2379.66 108.165 -33.5452)
(2383.31 105.014 -33.1083)
(2385.45 105.347 -31.7457)
(2386.5 105.643 -32.5831)
(2389.59 108.252 -35.4494)
(2388.49 111.9 -37.8402)
(2387.65 119.438 -38.0197)
(2346.03 160.768 -35.7606)
(-1150.69 386.025 -16.8123)
(-1162.42 434.248 -15.2486)
(-1135.65 471.288 -15.0876)
(-1107.4 351.257 -17.6557)
(2354.12 315.14 -30.5152)
(2390.22 495.951 -14.0592)
(2401.35 480.903 -35.2529)
(2415.79 463.051 -39.8457)
(2419.56 442.86 -26.2289)
(2418.93 420.821 -18.5744)
(2421.76 405.447 -29.0524)
(2419.49 384.967 -43.6852)
(2419.58 369.623 -42.4176)
(2425.54 356.826 -33.31)
(2421.64 340.808 -30.6705)
(2397.62 343.789 -30.3465)
(-1128.64 687.911 -23.8285)
(-1100.82 844.149 -20.9958)
(-978.268 936.353 -20.6173)
(-1010.96 946.792 -42.792)
(-708.133 2009.68 -59.2256)
(-228.926 2258.43 -33.3212)
(36.2493 2278.76 -30.7472)
(327.157 2298.4 -29.0225)
(1636.25 1853.87 -73.943)
(2195.48 1125.93 -102.509)
(2285.5 992.229 -22.2668)
(2330.94 904.423 14.5699)
(2376.4 844.682 0.7662)
(2387.49 779.957 -40.4955)
(2403.69 722.692 -65.2648)
(2426.85 683.808 -52.2974)
(2428.83 639.205 -23.6403)
(2434.6 606.391 -19.8843)
(2453.06 573.267 -31.9144)
(2435.23 540.361 -37.7727)
(-1005.74 911.024 -18.9234)
(-882.671 1113.58 -22.0338)
(-682.442 1188.31 -33.7317)
(-697.316 1763.8 -54.7022)
(-476.628 2274.59 -22.0137)
(-119.485 2297.86 -25.2535)
(130.777 2317.58 -21.8273)
(507.326 2334.06 -10.3544)
(1077.11 2232.53 -68.0369)
(1664.83 1741.82 -88.2421)
(1946.04 1347.92 58.0613)
(2085.09 1215.61 -9.76796)
(2208.83 1155.27 -85.1118)
(2281.88 1089.29 -88.21)
(2307.14 1011.86 -53.134)
(2344.08 940.984 -3.24733)
(2377.91 888.081 -2.04603)
(2382.24 833.644 -30.9785)
(2420.76 793.127 -49.8442)
(2430.4 732.379 -41.7244)
(-865.908 1073.77 -26.518)
(-683.484 1278.91 -21.7069)
(-508.783 1362.7 -20.4901)
(-649.384 1935.07 -32.9279)
(-468.591 2291.9 -30.1122)
(-116.366 2303.38 -27.6056)
(124.065 2324.94 -23.946)
(485.521 2339.82 -30.179)
(952.817 2272.92 -36.8102)
(1374.3 2068.24 81.9039)
(1657.66 1729.51 -1.86981)
(1852.5 1461.2 -161.309)
(2006.92 1413.94 -119.149)
(2130.67 1350.49 -34.3712)
(2171.5 1251.66 21.8755)
(2214.98 1175.9 16.0959)
(2284.8 1122.17 -34.0657)
(2312.43 1045.66 -63.387)
(2349.32 995.753 -52.4862)
(2380.98 912.054 -35.1861)
(-741.209 1185.75 -33.9915)
(-569.274 1389.23 -34.4637)
(-479.413 1551.5 -14.8809)
(-658.232 2040.78 -24.4563)
(-449.3 2308.24 -33.1145)
(-113.039 2305.43 -29.8547)
(117.765 2328.92 -29.4535)
(465.094 2357.69 -38.1734)
(864.124 2287.32 4.02259)
(1228.18 2133.51 14.8248)
(1486.33 1942.53 -131.088)
(1665.04 1704.64 -135.379)
(1813.24 1553.41 -11.8136)
(1950.86 1503.43 44.3319)
(2024.31 1448.49 24.3978)
(2070.48 1368.25 -33.9887)
(2166.6 1310.65 -72.9025)
(2202.86 1226.93 -75.8315)
(2235.21 1167.43 -51.897)
(2295.55 1076.98 -34.5003)
(-634.613 1251.33 -18.8349)
(-489.425 1468.84 -23.5358)
(-425.319 1677.39 -27.5209)
(-636.504 2086.75 -35.946)
(-425.358 2323.82 -34.9674)
(-109.81 2306.79 -31.7367)
(112.651 2333.77 -31.4991)
(442.765 2363.56 -26.565)
(809.526 2321.57 1.5986)
(1135.15 2205.08 -70.5497)
(1416.41 2062.61 -97.0797)
(1544.54 1879.52 6.25019)
(1657.46 1692.33 67.6998)
(1831.12 1639.44 68.4643)
(1974.61 1601.19 -14.6954)
(1988.01 1527.01 -58.924)
(2046.71 1470.95 -78.7417)
(2071.74 1385.52 -63.0626)
(2124.64 1337.1 -27.1343)
(2221.18 1245.49 -22.8816)
(-565.003 1322.43 -2.40442)
(-445.745 1527.55 -4.87771)
(-408.739 1765.5 -37.4565)
(-603.159 2114.63 -42.3067)
(-395.873 2334.52 -37.0174)
(-108.104 2305.51 -35.2205)
(108.358 2339.31 -31.19)
(419.722 2362.01 -20.8001)
(754.566 2330.76 -33.3324)
(1061.03 2257.44 -84.0547)
(1327.24 2137.8 -34.9025)
(1484.92 1969.28 40.1158)
(1610.77 1863.2 66.792)
(1765.79 1809.06 6.11917)
(1920.17 1723.95 -70.6222)
(1917.7 1648.6 -62.9828)
(1935.16 1594.63 -45.6428)
(1975.58 1531.36 -2.23621)
(2040.91 1494.6 13.1864)
(2142.89 1393.4 -12.9502)
(-503.211 1363.66 -5.16017)
(-402.721 1572.83 -1.89213)
(-392.691 1834.79 -34.7748)
(-552.928 2134 -47.0873)
(-368.066 2335.35 -29.7013)
(-105.546 2302.62 -36.2153)
(106.787 2341.19 -32.9062)
(401.271 2366.97 -28.4473)
(703.878 2352.03 -59.5086)
(983.65 2273.09 -59.7481)
(1225.01 2159.53 13.9666)
(1423.55 2018.59 26.9212)
(1569.17 1947.98 -15.1875)
(1677.76 1920.11 -69.2289)
(1833.92 1865.48 -96.6468)
(1869 1771.42 -63.4937)
(1906.99 1698.5 -1.72399)
(1972.43 1646.91 43.2608)
(2000.05 1622.99 17.636)
(2075.91 1521.25 -23.3345)
(-453.186 1383.59 -17.9262)
(-353.13 1579.31 -9.55092)
(-347.29 1859.91 -24.1935)
(-490.856 2137.97 -42.3272)
(-343.415 2326.9 -39.5284)
(-100.404 2297.04 -37.0723)
(105.866 2343.45 -36.2279)
(380.914 2365.28 -37.3744)
(666.593 2374.95 -51.4337)
(919.178 2307.55 -11.3066)
(1149.65 2196.88 14.719)
(1337.56 2054.31 -22.5044)
(1485.32 1955.32 -53.3552)
(1614.5 1893.04 -73.9627)
(1740.63 1870.98 -76.8145)
(1805.97 1824.26 -9.90559)
(1888.56 1791.86 53.6276)
(1963.91 1761.64 44.9686)
(1961.15 1726.35 -7.95048)
(2015.97 1626.97 -43.1258)
(-409.194 1377.17 -18.8526)
(-307.799 1549.88 -18.9418)
(-301.023 1844.61 -19.4682)
(-416.751 2131.64 -22.9078)
(-305.33 2318.65 -38.7154)
(-88.5625 2297.12 -38.7292)
(108.774 2346.43 -39.3272)
(363.824 2364.88 -35.312)
(625.388 2376.9 -25.5472)
(867.6 2342.2 -3.65834)
(1097.62 2262.49 -26.1677)
(1278.37 2143.39 -62.553)
(1432.33 2021.35 -75.0399)
(1560.72 1901.56 -54.2503)
(1670.39 1881.39 -21.8439)
(1751.99 1887.3 34.0521)
(1857.84 1879.22 46.1675)
(1921.49 1834.93 -4.05585)
(1905.24 1769.54 -41.6412)
(1954.16 1686.03 -33.3379)
(-372.658 1387.73 -11.497)
(-266.098 1518.19 -11.4306)
(-254.559 1806.17 -24.3172)
(-317.574 2102.42 -43.4222)
(-270.603 2274.99 -36.7848)
(-76.9714 2286.04 -38.5639)
(111.395 2344.93 -40.0578)
(349.867 2369.78 -33.1025)
(592.83 2384.7 -18.6158)
(816.11 2347.44 -26.326)
(1022.93 2285.62 -52.7495)
(1195.47 2178.83 -66.8393)
(1351.13 2055.3 -56.5412)
(1498.39 1945.55 -4.6804)
(1613.96 1920.73 21.3114)
(1712.33 1922.36 18.8393)
(1808.36 1901.31 -15.1749)
(1844.85 1833.16 -60.1225)
(1845.3 1789.27 -47.2066)
(1913.82 1742.26 -6.12184)
(-340.964 1395.3 -7.04886)
(-265.6 1498.77 -4.82373)
(-207.879 1747.79 -13.2873)
(-164.798 2056.05 -26.1007)
(-192.255 2252.24 -35.8744)
(-52.1777 2284.54 -38.7095)
(118.279 2343.6 -38.9772)
(335.248 2364.88 -34.6995)
(558.599 2402.14 -29.3716)
(775.382 2383.56 -40.0144)
(975.885 2322.35 -40.4001)
(1147.19 2219.38 -38.1369)
(1313.98 2115.52 -16.3798)
(1463.5 2012.53 14.1479)
(1580.76 1949.45 -2.88447)
(1665.97 1908.9 -31.7592)
(1730.01 1864.82 -51.1664)
(1779.11 1810.96 -46.4461)
(1817.77 1810.17 -6.24445)
(1887.86 1783.9 21.4773)
(-320.018 1442.09 -8.32251)
(-268.782 1506.66 -4.87981)
(-193.483 1663.59 -10.2989)
(-84.5239 1874.43 -10.7909)
(-29.7741 2077.78 -26.5887)
(44.2439 2199.08 -33.5562)
(159.787 2300.15 -35.4182)
(339.351 2340.02 -34.5577)
(527.733 2381.87 -35.6101)
(715.539 2387.3 -32.4607)
(895.107 2351.56 -23.025)
(1059.64 2278.34 -19.312)
(1225.76 2207.87 -10.3606)
(1364.64 2117.58 -7.74174)
(1482.63 2037.76 -27.694)
(1583.98 1970.94 -46.579)
(1654.33 1908.75 -33.8959)
(1718.44 1873.66 -3.18076)
(1771.39 1867.98 21.4034)
(1831.18 1826.82 19.6888)
(-562.611 -564.614 30.6739)
(-442.633 -615.57 43.7865)
(-408.815 -725.352 60.9925)
(-526.302 -950.984 23.9451)
(-358.31 -1160.48 1.53332)
(-104.33 -1152.28 -2.4998)
(110.007 -1147.36 -5.07722)
(386.372 -1164.79 0.27194)
(687.741 -1143.38 -2.55342)
(914.002 -1022.63 8.07554)
(1079.14 -880.206 9.19172)
(1193.71 -753.801 5.79969)
(1255.71 -641.988 19.4553)
(1327.26 -568.123 35.4194)
(1367.6 -502.411 34.8011)
(1388.95 -450.703 23.0112)
(1381.94 -405.436 18.3744)
(1394.64 -370.56 21.3681)
(1401.61 -339.811 21.0614)
(1446.72 -318.999 15.5197)
(-609.967 -445.955 46.2206)
(-499.041 -506.424 61.1296)
(-744.897 -761.198 74.6405)
(-786.024 -1057.04 1.91418)
(-413.277 -1189.25 -9.12192)
(-113.9 -1161 -4.11347)
(114.236 -1154.24 -4.32251)
(432.561 -1179.82 -0.725424)
(839.253 -1120.11 4.77577)
(1116.91 -903.777 12.1529)
(1290.16 -698.685 21.7263)
(1403.13 -579.185 14.4115)
(1479.23 -488.849 27.5417)
(1537.98 -436.136 47.1049)
(1583.34 -390.642 46.2679)
(1588.59 -342.498 36.688)
(1560.41 -302.985 29.2097)
(1529.69 -265.953 29.4022)
(1508.32 -264.628 26.4188)
(1514.32 -267.144 21.3781)
(-705.704 -397.313 63.6554)
(-735.89 -734.034 83.9743)
(-943.974 -950.409 11.3349)
(-822.673 -1117.98 -10.731)
(-437.815 -1153.22 -4.57976)
(-122.304 -1158.4 -1.48724)
(128.058 -1152.14 -1.70098)
(467.411 -1162.34 -2.85289)
(932.196 -1011.15 16.6041)
(1201.94 -707.789 12.8708)
(1374.82 -515.531 26.133)
(1569.74 -482.372 31.0854)
(1713.13 -436.231 22.6032)
(1810.18 -415.461 15.2974)
(1877.97 -391.478 14.165)
(1897.92 -344.063 19.3738)
(1879.74 -296.975 24.38)
(1836.88 -251.371 17.9829)
(1773.25 -200.15 25.7611)
(1682.12 -187.258 14.9671)
(-933.007 -507.255 33.4105)
(-1037.56 -793.133 18.4992)
(-1102.64 -837.987 4.22995)
(-1021.16 -1053.29 10.3724)
(-603.718 -1160.31 -4.75495)
(-223.939 -1148.6 1.50281)
(50.4007 -1139.41 -6.30931)
(349.913 -1137.74 -1.97504)
(915.768 -1063.27 8.94029)
(1809.64 -720.762 3.9357)
(1993.48 -655.731 9.51214)
(2102.64 -662.723 16.0391)
(2161.85 -649.626 6.95613)
(2192.83 -619.976 2.67585)
(2206.19 -573.763 2.1984)
(2206.18 -510.886 5.86654)
(2198.02 -432.399 30.4881)
(2165.19 -330.056 11.1851)
(2114.91 -172.339 28.4824)
(1921.01 -83.7124 26.3489)
(-1149.83 -360.699 4.66111)
(-1187.47 -428.004 -6.0003)
(-1147.46 -460.63 -0.682413)
(-1157.94 -648.865 6.31518)
(2000.19 -693.97 -6.40842)
(2375.04 -479.84 -7.12071)
(2385.85 -471.744 -10.318)
(2397.76 -455.234 -12.4972)
(2410.25 -433.189 -10.3619)
(2419.56 -405.205 -11.4259)
(2419.94 -378.084 1.65416)
(2409.71 -354.012 -1.38942)
(2400.77 -316.86 4.28808)
(2356.4 -283.884 6.16176)
(2331.71 -208.701 13.57)
(2151.68 -35.7765 23.5284)
(-1150.61 -106.6 -1.24802)
(-1161.6 -119.308 -4.65961)
(-1158.89 -126.859 -3.77394)
(-1142.26 -226.312 -3.38223)
(2378.22 -229.261 -16.1759)
(2400.72 -121.141 -14.5625)
(2400.6 -118.288 -12.4032)
(2400.39 -115.422 -10.606)
(2398.7 -112.866 -7.38703)
(2395.08 -110.755 -7.00075)
(2390.27 -108.971 -5.0291)
(2382.05 -104.485 -3.25302)
(2381.01 -93.2288 -2.46439)
(2370.88 -82.2711 -0.693777)
(2369.7 -60.3565 3.54635)
(2288.29 31.6323 17.1938)
(-1149.59 110.409 -9.8267)
(-1156.25 113.469 -9.69595)
(-1153.47 127.959 -6.11691)
(-1138.34 49.6647 -11.9385)
(2395.97 31.851 -17.6043)
(2421.53 125.129 -13.8811)
(2422.66 118.616 -10.0378)
(2424.53 113.77 -10.8701)
(2426.26 107.676 -11.5965)
(2426.81 105.823 -9.0341)
(2426.62 105.972 -3.70358)
(2427.48 106.49 -0.229409)
(2428.23 107.743 -0.564352)
(2426.55 109.928 -1.77062)
(2425.15 115.91 -1.12246)
(2386.26 154.134 7.6261)
(-1168.35 386.767 -8.30148)
(-1183.1 433.401 -11.5953)
(-1162.28 469.619 -11.0329)
(-1139.15 348.745 -9.964)
(2414.17 315.566 -17.7397)
(2444.52 500.22 1.49579)
(2453.67 482.145 -16.5321)
(2464.06 462.787 -20.9622)
(2465.71 445.557 -6.71227)
(2463.21 423.817 9.5737)
(2465.48 407.041 6.13326)
(2462.07 387.297 -7.51134)
(2458.32 369.79 -9.34629)
(2461.86 358.228 0.338605)
(2458.13 341.508 6.60565)
(2434 342.915 12.348)
(-1145.96 690.134 -11.1256)
(-1121.51 844.42 -10.6077)
(-1004.17 937.906 -5.73018)
(-1044.82 935.334 -6.13836)
(-700.366 2065.04 -16.0836)
(-228.232 2335.7 -18.5324)
(36.9595 2359.16 -16.1357)
(329.367 2382.35 -13.9424)
(1625.57 1909.67 -27.4354)
(2244.22 1139.09 -83.0701)
(2332.05 993.204 -21.8158)
(2374.14 903.888 31.9324)
(2420.15 847.106 34.956)
(2437.67 788.21 1.56617)
(2448.3 726.199 -30.6677)
(2467.87 685.061 -25.0233)
(2470.1 645.172 6.89011)
(2471.29 609.805 21.2162)
(2487.69 579.144 10.7779)
(2471.62 543.088 6.54489)
(-1024.44 916.495 -7.72244)
(-903.396 1120.3 -15.0499)
(-701.96 1203.5 -11.4758)
(-708.41 1808.98 -19.8434)
(-479.81 2349.42 -11.3463)
(-118.69 2374.88 -17.2689)
(132.754 2396.26 -14.1309)
(512.349 2418.78 -0.361145)
(1084.73 2299.24 -44.6953)
(1696.32 1777.27 -98.1407)
(1999.59 1381.8 95.1607)
(2135.73 1236.71 47.2135)
(2250.08 1160.75 -38.7646)
(2324.72 1088.55 -63.6637)
(2349.44 1016.52 -34.47)
(2382.85 948.878 26.3336)
(2423.14 895.758 44.8056)
(2423.19 845.133 22.7175)
(2454.24 800.071 -8.17332)
(2463.75 736.418 0.124273)
(-882.393 1083.23 -7.00069)
(-702.553 1294.71 -9.48556)
(-516.235 1373.89 -1.08682)
(-649.257 1982.36 2.08992)
(-469.874 2358.33 -15.324)
(-115.572 2371.38 -17.3564)
(125.36 2395.75 -12.5596)
(488.155 2416.48 -17.7171)
(960.401 2344.48 -23.9218)
(1380.8 2105.29 108.766)
(1704.92 1772.3 96.2591)
(1900.99 1489.71 -100.518)
(2042.73 1412.66 -111.054)
(2158.69 1358.59 -30.7053)
(2217.89 1267.96 59.0091)
(2263.65 1191.06 77.7321)
(2326.58 1137.43 32.8748)
(2350.73 1055.76 -13.2976)
(2387.52 1005.08 -8.06389)
(2417.48 921.148 14.1876)
(-751.985 1191.12 -8.02852)
(-579.065 1400.37 -11.5925)
(-484.314 1566.69 6.27144)
(-658.057 2086.08 5.39063)
(-452.307 2368.9 -15.9717)
(-112.521 2368.23 -18.0398)
(119.533 2394.34 -14.2863)
(465.927 2425.98 -25.4275)
(872.136 2351.05 24.7745)
(1239.36 2190.52 70.3499)
(1496.59 1988.35 -72.2163)
(1692.97 1736.95 -140.758)
(1841.74 1576.66 -18.2226)
(1982.65 1520.31 89.8384)
(2066.93 1465.3 96.5967)
(2108.39 1383.63 41.9074)
(2198.28 1319.6 -21.9262)
(2245.21 1240.33 -25.8547)
(2280.69 1183.26 8.76373)
(2334.49 1087.4 22.8064)
(-640.673 1254.27 4.58831)
(-490.902 1478.42 3.94451)
(-432.548 1703.39 10.1989)
(-640.982 2137.67 -1.71676)
(-429.569 2379.72 -14.1058)
(-109.723 2365.27 -15.8457)
(113.036 2394.55 -15.1175)
(447.245 2427.99 -13.082)
(815.288 2382.19 36.7154)
(1143.71 2258.52 -15.6564)
(1420.27 2103.76 -80.3236)
(1574.67 1907.85 1.76043)
(1675.67 1711.51 108.092)
(1829.98 1635.72 125.608)
(1980.98 1603.78 49.1297)
(2010.7 1527.38 -12.0586)
(2083.32 1480.61 -29.3134)
(2118.78 1403.56 6.35556)
(2164.53 1343.72 45.157)
(2250.77 1251.21 34.947)
(-569.545 1325.97 21.0982)
(-444.347 1538.83 29.883)
(-411.306 1795.33 12.8543)
(-612.022 2165.08 -0.807454)
(-400.938 2387.76 -15.3122)
(-107.218 2360.76 -15.8413)
(110.629 2395.44 -12.0194)
(424.724 2422.6 2.17753)
(764.539 2394.51 7.7688)
(1065.23 2313.55 -49.582)
(1342.83 2183 -16.0794)
(1505.03 2017.44 101.595)
(1616.44 1872.89 138.39)
(1749.33 1786.22 55.0075)
(1916.74 1716.73 -37.6423)
(1936.64 1650.46 -27.4411)
(1967.54 1607.56 15.2014)
(2004.66 1535.43 71.1318)
(2060.08 1498.35 74.3806)
(2167.34 1400.72 38.359)
(-506.016 1370.37 23.1392)
(-400.721 1586.56 36.5022)
(-394.393 1864.45 15.5838)
(-566.844 2180.57 -0.704419)
(-373.56 2387.61 -2.1739)
(-105.599 2355.33 -12.7958)
(108.146 2394.76 -8.43702)
(404.639 2423.63 1.19492)
(709.597 2408.63 -26.3434)
(992.646 2327.33 -32.4901)
(1244.14 2214.86 60.8685)
(1442.38 2072.71 110.175)
(1578.84 1980.32 62.8243)
(1679.03 1930.93 -21.9772)
(1842.18 1873.94 -50.4985)
(1889.19 1785.03 3.21047)
(1924.41 1707.1 79.3531)
(1972.63 1649.73 105.676)
(2007.74 1629.08 62.0886)
(2099.58 1529.36 21.9016)
(-454.592 1390.08 14.0832)
(-351.529 1594.04 30.2831)
(-349.348 1888.8 22.4835)
(-506.249 2181.33 4.77388)
(-349.479 2376.87 -6.96663)
(-101.749 2346.28 -10.9072)
(107.677 2393.65 -7.16848)
(383.731 2420.15 -8.55955)
(669.999 2426.46 -24.9223)
(927.921 2351.99 21.2027)
(1164.55 2247.04 80.5924)
(1358.57 2100.32 59.0278)
(1497.28 1996.38 7.12632)
(1627.05 1927.23 -23.4514)
(1756.01 1899.36 -2.94868)
(1819.73 1839.21 78.9117)
(1891.21 1790.03 129.506)
(1967.03 1759.79 104.482)
(1979.16 1732.8 41.123)
(2038.41 1641.32 16.0992)
(-410.785 1381.35 11.143)
(-307.05 1565.22 23.1534)
(-300.68 1873.49 26.7506)
(-432.449 2171.6 32.8375)
(-314.224 2366.84 1.42819)
(-90.4032 2343.6 -9.65413)
(108.689 2393.46 -7.29768)
(366.32 2417.77 -7.36629)
(632.705 2425.65 3.00765)
(875.011 2387.58 42.2775)
(1112.76 2304.49 41.2718)
(1293.21 2183 -6.71318)
(1451.04 2070.1 -17.8255)
(1579.86 1944.01 10.0734)
(1681.97 1903.36 65.2663)
(1757.98 1890.74 115.615)
(1855.69 1882.06 117.517)
(1934.7 1848.89 61.6792)
(1929.79 1800.22 36.0356)
(1974.79 1701.38 42.6107)
(-374.244 1391.05 14.9301)
(-263.465 1528.74 23.7694)
(-252.936 1831.75 19.7974)
(-334.098 2141.93 12.5928)
(-282.223 2322.94 4.69191)
(-80.2409 2331.09 -7.03708)
(110.223 2390.8 -7.29189)
(352.732 2419.59 -1.57587)
(597.413 2427.96 18.4009)
(825.491 2388.65 23.9163)
(1033.5 2325.76 -2.21761)
(1212.94 2224.87 -16.3636)
(1374.98 2103.75 9.11841)
(1508.39 1982.04 68.9387)
(1622.91 1931.41 93.4729)
(1716.25 1928.62 82.4316)
(1810.03 1921.43 52.1846)
(1871.86 1867.33 26.833)
(1871.81 1814.97 54.3883)
(1928.57 1748.69 83.1577)
(-341.945 1398.03 15.5722)
(-262.508 1505.56 21.9766)
(-204.14 1768.74 31.1955)
(-174.997 2095.4 36.7027)
(-208.661 2297.24 16.2092)
(-59.2156 2328.05 -0.86265)
(115.25 2388.5 -4.49415)
(336.36 2414.03 1.03833)
(564.296 2444.73 9.50872)
(781.603 2420.29 -1.12298)
(984.658 2362.17 2.5561)
(1162.97 2263.39 16.7808)
(1324.06 2153.17 47.6085)
(1471.98 2039.72 77.7699)
(1593.43 1964.87 57.4637)
(1677.01 1925.07 30.0723)
(1755.96 1893.59 29.629)
(1802.64 1834.81 49.8361)
(1829.8 1819.74 96.9223)
(1895.43 1789.64 105.001)
(-321.331 1444.17 10.6747)
(-267.165 1511.84 16.36)
(-190.988 1678.96 16.8741)
(-81.942 1901.88 35.7536)
(-39.3249 2118.3 30.3072)
(33.2918 2244.52 16.6294)
(153 2347.25 7.5326)
(338.202 2386.96 7.97885)
(530.352 2426.75 7.74609)
(719.71 2425.72 8.09255)
(903.647 2389.7 24.1092)
(1069.77 2315.28 32.9905)
(1232.42 2236.79 43.3123)
(1375.06 2144.65 47.932)
(1494.67 2061.53 28.5589)
(1598.82 1991.22 18.7452)
(1668.92 1929.02 42.7591)
(1726.09 1883.64 78.9903)
(1778.43 1873.01 101.272)
(1840.1 1834.63 94.9888)
(-573.007 -572.004 24.3877)
(-454.415 -625.236 40.9102)
(-446.863 -761.162 71.3553)
(-559.893 -1004.1 26.4466)
(-360.263 -1190.6 6.96632)
(-102.644 -1177.65 1.47317)
(111.456 -1172.16 -5.25305)
(390.922 -1190.17 -0.894343)
(696.101 -1168.93 -2.03107)
(922.09 -1044.42 6.66022)
(1089.07 -899.144 13.07)
(1207.36 -771.858 10.4023)
(1268 -656.19 18.5936)
(1337.02 -578.793 36.2133)
(1381.58 -512.189 37.455)
(1407.54 -458.48 25.352)
(1397.84 -414.348 18.7771)
(1407.35 -379.114 19.002)
(1410.29 -345.392 16.7525)
(1452.98 -324.634 12.1156)
(-619.63 -453.767 43.886)
(-526.365 -529.002 65.9467)
(-815.346 -832.171 71.0039)
(-788.576 -1117.05 7.53288)
(-416.776 -1204.88 -0.0150625)
(-110.079 -1184.83 1.39435)
(117.374 -1179.43 -4.22656)
(438.749 -1204.09 -1.63632)
(848.704 -1141.78 7.19995)
(1132.46 -923.133 8.58603)
(1305.95 -706.817 23.5405)
(1422.97 -586.882 20.039)
(1501.71 -492.854 27.6535)
(1563.06 -435.869 52.2625)
(1615.97 -394.611 52.7376)
(1628.82 -347.75 40.0086)
(1605.93 -310.983 31.931)
(1571.42 -272.253 30.2387)
(1535.37 -264.701 22.5975)
(1533.81 -268.02 16.7459)
(-733.153 -426.325 69.6296)
(-820.332 -804.67 70.156)
(-974.822 -970.997 -1.77046)
(-833.511 -1146.98 13.2315)
(-439.316 -1170.65 5.71619)
(-120.185 -1182.09 3.3973)
(130.098 -1177.04 -2.24487)
(473.789 -1186.6 -3.048)
(941.241 -1026.3 19.2856)
(1231.54 -726.677 15.0877)
(1401.28 -516.347 23.1898)
(1594.69 -475.763 37.3533)
(1755.67 -448.337 32.1974)
(1865.74 -427.515 24.5669)
(1940.37 -402.79 21.1415)
(1963.59 -355.123 21.9145)
(1950.71 -302.889 26.3568)
(1906.99 -258.217 19.1005)
(1841.31 -202.195 25.4538)
(1734.11 -186.862 11.2834)
(-979.233 -542.335 24.4384)
(-1098.31 -801.303 -5.283)
(-1134.68 -847.387 -16.6142)
(-1044.3 -1078.37 15.888)
(-600.777 -1184.07 5.96272)
(-221.495 -1177.34 5.68111)
(51.5408 -1162.24 -5.2662)
(352.269 -1164.59 -2.69544)
(930.01 -1083.66 10.8051)
(1865.77 -741.413 23.2781)
(2052.06 -671.968 15.7055)
(2161.08 -659.027 22.9595)
(2230.64 -656.053 19.8531)
(2270.51 -632.739 13.823)
(2286.91 -591.011 10.4146)
(2285.81 -531.039 6.86023)
(2280.14 -454.397 33.0554)
(2249.66 -359.02 16.6694)
(2209.96 -195.439 32.2831)
(2005.78 -88.2113 28.5475)
(-1183.51 -368.713 2.45628)
(-1207.29 -429.825 -8.52794)
(-1169.81 -458.952 -3.44403)
(-1182.2 -654.281 2.09889)
(2036.78 -724.182 0.471399)
(2439.29 -485.529 3.56558)
(2455.18 -479.279 -0.0639758)
(2469 -463.41 -4.62916)
(2483.86 -441.327 -4.76278)
(2496.23 -413.946 -9.54033)
(2501.38 -385.298 1.86514)
(2492.33 -363.643 -1.73806)
(2485.25 -329.87 2.40573)
(2445.05 -300.569 3.97352)
(2420.1 -234.538 13.6369)
(2249.67 -58.1428 25.6863)
(-1177.18 -109.068 -2.49512)
(-1184.65 -118.459 -4.80374)
(-1180.09 -126.192 -3.80422)
(-1168.32 -226.166 -1.62958)
(2410.66 -230.964 -7.3492)
(2466.96 -122.443 -3.90608)
(2471.15 -119.607 -4.86156)
(2474.72 -117.194 -4.64352)
(2475.22 -114.538 -2.80662)
(2473.43 -112.205 -2.65153)
(2469.88 -110.184 -1.78831)
(2461.95 -107.482 -0.368372)
(2460.01 -98.1777 0.396996)
(2450.87 -88.0681 1.38582)
(2450.07 -71.1957 5.68158)
(2382.63 11.6392 19.6394)
(-1173.73 107.414 -7.02518)
(-1178.75 116.095 -3.69295)
(-1175.98 129.241 -2.56486)
(-1162.12 52.4383 -7.65453)
(2435.5 33.5685 -8.87039)
(2492.05 125.449 -1.55728)
(2497.35 119.203 1.25153)
(2502.56 115.338 -0.907729)
(2506.56 108.789 -4.53547)
(2509.05 105.837 -4.19052)
(2509.74 105.908 -0.878855)
(2511.75 105.386 1.9934)
(2513.21 105.75 1.47889)
(2512.54 106.791 -0.230812)
(2511.53 110.392 -0.630948)
(2481.98 141.165 6.9865)
(-1191.77 386.82 -3.42416)
(-1203.52 434.09 -4.74815)
(-1184.61 468.363 -6.47203)
(-1162.46 352.239 -6.69862)
(2459.49 318.706 -5.59844)
(2518.35 504.12 14.2864)
(2531.31 487.988 -0.185159)
(2541.29 465.461 -14.056)
(2544.2 447.62 -6.85813)
(2545.09 426.747 12.4584)
(2551.64 408.664 16.1231)
(2552.39 392.112 2.27045)
(2543.39 371.781 -8.08305)
(2543.81 360.707 -1.86393)
(2543.05 343.228 6.49263)
(2524.18 340.398 13.2619)
(-1171.85 693.083 -7.38932)
(-1145.67 841.732 -2.99777)
(-1033.5 929.164 1.50235)
(-1086.22 918.871 -11.9282)
(-713.867 2023.69 -18.4976)
(-226.547 2394.27 -17.5267)
(38.6424 2419.44 -15.3489)
(327.25 2443.94 -11.8118)
(1840.18 1767.65 -18.5428)
(2324.64 1135.11 -37.4636)
(2410.58 989.918 -33.3294)
(2447.37 902.013 25.2228)
(2496.86 846.679 50.7665)
(2530.5 800.071 28.255)
(2540.68 742.81 -14.7318)
(2548.34 691.865 -29.1425)
(2552.57 655.078 -4.18585)
(2554.16 615.504 23.3927)
(2571.73 588.992 17.4901)
(2561.75 549.493 9.71178)
(-1050.71 922.273 -5.87911)
(-930.936 1125.54 -7.35573)
(-738.274 1214.76 -3.0535)
(-754.099 1827.63 -7.95072)
(-478.235 2413.04 -11.938)
(-116.799 2441.32 -17.536)
(132.925 2464.6 -11.4885)
(516.934 2492 5.76085)
(1111.13 2309.82 -41.7709)
(1724.42 1747.57 -124.913)
(2069.24 1381.7 94.6281)
(2231.31 1258.51 92.0361)
(2328.7 1177.54 10.3142)
(2403.76 1096.49 -50.2467)
(2423.65 1021.75 -44.2974)
(2451.74 958.575 13.2746)
(2508.86 907.232 51.8448)
(2519.08 862.611 41.6636)
(2537.2 817.405 -1.05454)
(2545.69 746.513 -0.898342)
(-905.646 1091.47 -2.20433)
(-717.08 1302.34 0.821247)
(-530.185 1379.39 1.03629)
(-683.366 2021.09 -0.67138)
(-472.864 2429.71 -13.2271)
(-113.893 2444.47 -15.8192)
(127.268 2469.96 -7.81991)
(496.316 2501.78 -10.0034)
(978.319 2397.11 -37.751)
(1380.79 2097.93 107.569)
(1784.25 1800.84 173.179)
(2000.51 1536.2 -22.1093)
(2111.48 1405.76 -99.5919)
(2199.75 1349.43 -52.1656)
(2281.33 1279.59 47.2439)
(2352.79 1210.75 100.185)
(2422.23 1164.63 70.2463)
(2445.87 1083.54 -2.94757)
(2468.3 1022.6 -17.938)
(2498.63 937.786 11.5746)
(-774.835 1202.35 -3.79264)
(-593.784 1411.88 -1.26173)
(-483.514 1576.08 7.14106)
(-665.491 2135.11 8.56213)
(-457.493 2443.01 -14.554)
(-111.423 2447.44 -14.4754)
(122.146 2473.84 -8.40687)
(471.823 2509.14 -23.568)
(885.327 2419.75 19.7311)
(1263.7 2249.92 101.269)
(1556.8 2038.5 -13.1261)
(1755.4 1773.64 -155.767)
(1882.02 1576.29 -62.7121)
(2015.01 1514.76 92.0896)
(2140.06 1485.49 139.41)
(2201.75 1420.3 95.2619)
(2282.94 1347.88 -5.01531)
(2328.96 1258.57 -42.512)
(2363.47 1210.55 5.93358)
(2419.83 1110.09 32.4973)
(-658.689 1264.28 3.04049)
(-501.522 1493.88 4.36012)
(-455.574 1737.91 14.4992)
(-658.905 2204.03 4.41452)
(-435.765 2456.69 -12.9966)
(-108.881 2447.57 -12.5442)
(115.309 2475.85 -9.49388)
(452.923 2511.12 -14.7201)
(828.053 2462.7 44.2475)
(1174.42 2329.71 11.3313)
(1437.12 2150.5 -95.088)
(1596.55 1928.31 -54.6823)
(1709.34 1725.09 107.144)
(1859.89 1630.9 170.519)
(2020.89 1617.05 103.139)
(2075.83 1549.5 -3.95054)
(2149.78 1498.66 -46.8532)
(2198.31 1430.87 1.03887)
(2252.16 1370.96 65.1827)
(2332.37 1273.99 49.1851)
(-582.35 1333.27 18.2415)
(-451.296 1561.26 27.6836)
(-436.036 1849.52 20.0529)
(-635.934 2244.21 2.64558)
(-409.643 2468.13 -16.769)
(-106.344 2445.64 -12.4434)
(112.267 2479.6 -8.46529)
(429.88 2509.53 5.13095)
(783.086 2492.77 19.9096)
(1086.22 2393.41 -53.0815)
(1358.94 2223.73 -50.6316)
(1535.64 2059.81 100.703)
(1642.73 1896.72 183.235)
(1755.23 1769.64 106.239)
(1920.74 1714.68 -23.793)
(1971.18 1651.32 -46.3771)
(2019.62 1620.62 6.96911)
(2078.68 1551.84 91.4869)
(2129.39 1519.29 92.1041)
(2234.04 1424.52 42.6701)
(-517.956 1382.81 22.7798)
(-410.236 1618.65 34.9682)
(-415.976 1928.18 15.425)
(-597.034 2262.4 -0.195592)
(-379.847 2473.99 -6.32601)
(-104.21 2441.96 -11.1054)
(110.568 2481.36 -6.59443)
(410.741 2514.12 7.71923)
(727.878 2502.23 -22.7163)
(1009.26 2402.75 -47.6911)
(1269.97 2284.54 45.919)
(1487.13 2162.7 141.009)
(1626.16 2043.72 107.834)
(1706.72 1943.59 -13.2107)
(1848.84 1867.97 -64.2068)
(1913.67 1774.77 2.24191)
(1974.86 1714.84 111.843)
(2010.64 1671.86 131.047)
(2040.64 1654.55 67.4345)
(2147.24 1551.44 14.4216)
(-464.309 1408.82 17.1816)
(-359.733 1634.74 28.6104)
(-368.967 1957.15 15.8186)
(-539.907 2262.81 -2.62311)
(-357.461 2465.87 -12.6271)
(-102.245 2433.69 -9.99919)
(109.991 2481.44 -6.63049)
(392.57 2515.31 -6.45581)
(680.144 2507.31 -32.8445)
(941.181 2421.63 8.59197)
(1192.15 2338.93 92.0533)
(1416.67 2204.52 92.8956)
(1550.09 2081.94 1.85823)
(1650 1975.66 -40.2744)
(1759.93 1923.96 2.49082)
(1843.78 1856.79 120.911)
(1927.1 1807.72 169.216)
(1989.63 1774.56 119.468)
(2012.65 1749.13 26.5661)
(2082.04 1664.72 11.2711)
(-422.089 1398.06 14.1985)
(-318.608 1610.85 22.7091)
(-314.85 1947.05 21.1348)
(-466.51 2256.9 26.7406)
(-326.109 2458.67 -7.76878)
(-93.7425 2430.47 -10.0072)
(110.326 2481.6 -7.7217)
(372.816 2509.95 -13.2586)
(642.51 2507.6 -7.44231)
(888.266 2470.12 41.1515)
(1145.25 2400.14 58.4999)
(1335.54 2275.92 -7.63721)
(1490.34 2151.39 -40.0501)
(1609.33 2008 5.0062)
(1700.89 1954.63 101.491)
(1794.46 1922 159.779)
(1890.17 1900.49 137.907)
(1977.57 1867.72 57.2111)
(1984.03 1833.63 29.9946)
(2024.43 1738.07 51.6749)