/*--------------------------------*- C++ -*----------------------------------*\
  =========                 |
  \\      /  F ield         | OpenFOAM: The Open Source CFD Toolbox
   \\    /   O peration     | Website:  https://openfoam.org
    \\  /    A nd           | Version:  9
     \\/     M anipulation  |
\*---------------------------------------------------------------------------*/
FoamFile
{
    format      ascii;
    class       volScalarField;
    location    "0.0005";
    object      alpha.C4;
}
// * * * * * * * * * * * * * * * * * * * * * * * * * * * * * * * * * * * * * //

dimensions      [0 0 0 0 0 0 0];

internalField   nonuniform List<scalar> 
9720
(
0.294477
0.477589
0.543236
0.582631
0.598986
0.590097
0.561462
0.50242
0.412929
0.308728
0.194016
0.0798754
0.0123017
0.00027082
1.31594e-07
1.74866e-13
1.78648e-19
1.72707e-25
1.61748e-31
1.48636e-37
0.477767
0.747035
0.829656
0.869437
0.880518
0.874733
0.854096
0.801651
0.701449
0.557921
0.382883
0.194397
0.0490548
0.00282692
8.83274e-06
1.286e-10
1.03046e-16
8.1568e-23
6.80017e-29
6.24353e-35
0.543514
0.8298
0.909695
0.943351
0.94917
0.947659
0.938853
0.908805
0.834412
0.695033
0.490395
0.258683
0.0731102
0.00555246
3.17303e-05
1.51636e-09
1.45995e-15
1.30052e-21
1.10803e-27
9.46275e-34
0.583023
0.869674
0.943362
0.95602
0.957998
0.959184
0.960234
0.953467
0.924829
0.822032
0.586064
0.303677
0.0812879
0.00558885
2.6021e-05
8.51364e-10
8.11501e-16
7.33091e-22
6.5124e-28
6.01384e-34
0.599716
0.88089
0.94916
0.95754
0.906551
0.741788
0.535025
0.278964
0.0703936
0.00391761
1.08923e-05
1.30267e-10
1.09497e-16
9.39492e-23
8.68838e-29
8.90731e-35
0.59045
0.874909
0.947685
0.959176
0.605348
0.442052
0.352271
0.175518
0.0316541
0.000762819
3.74538e-07
4.71217e-13
5.05302e-19
5.25448e-25
5.28173e-31
5.19531e-37
0.561464
0.854128
0.938895
0.960243
0.222751
0.140489
0.10779
0.0391603
0.00267112
8.21515e-06
8.14287e-11
6.06284e-17
4.95699e-23
4.50147e-29
4.1628e-35
3.70168e-41
0.50232
0.801522
0.908675
0.95358
0.00561808
0.0110778
0.00694961
0.00106255
9.62056e-06
4.44923e-10
3.72017e-16
3.10044e-22
2.5942e-28
2.22404e-34
1.94552e-40
1.71557e-46
0.412984
0.701489
0.83434
0.924652
0.894603
0.594866
0.222745
0.00893774
1.24956e-09
6.80216e-05
2.53036e-05
6.3475e-07
1.14327e-10
3.92458e-16
5.60696e-22
6.11603e-28
6.12411e-34
5.92813e-40
5.73678e-46
5.57866e-52
0.308894
0.557971
0.694266
0.818999
0.733367
0.435819
0.144659
0.0127621
9.24678e-05
6.98737e-09
4.84315e-10
1.33322e-12
1.04984e-16
3.84375e-22
6.91556e-28
9.2677e-34
1.09519e-39
1.23984e-45
1.43317e-51
2.22678e-57
0.194108
0.38272
0.489267
0.582995
0.528688
0.348134
0.109645
0.00759171
3.07828e-05
5.59603e-10
1.14935e-15
2.20305e-18
1.06234e-22
3.96868e-28
8.28957e-34
1.38212e-39
1.59704e-44
4.91341e-49
9.38491e-54
1.30963e-58
0.0798377
0.194049
0.2577
0.301839
0.275695
0.173636
0.0390669
0.00108273
6.58498e-07
4.31182e-13
5.19381e-19
3.66334e-24
1.09312e-28
4.43624e-34
1.076e-39
1.36831e-43
1.36046e-45
6.30239e-49
8.63317e-54
8.59511e-59
0.0122642
0.048811
0.072612
0.0806831
0.0695578
0.0312587
0.00261828
9.25925e-06
1.02532e-10
6.22112e-17
4.6681e-23
4.02903e-29
1.46133e-34
5.57493e-40
1.54727e-45
2.12227e-47
7.07598e-48
7.38743e-50
1.32836e-53
9.16051e-59
0.000268438
0.00279477
0.00548165
0.00552766
0.00386421
0.000748732
7.9072e-06
4.0807e-10
3.34061e-16
2.69749e-22
2.38325e-28
7.45776e-34
8.85253e-39
8.52153e-44
6.01278e-49
4.77903e-52
7.80429e-52
1.87799e-52
1.00969e-54
6.33443e-59
1.28936e-07
8.62298e-06
3.09326e-05
2.55276e-05
1.06889e-05
3.62154e-07
7.554e-11
3.09805e-16
4.44654e-22
5.29036e-28
2.134e-31
4.19737e-35
5.01095e-40
3.88178e-45
2.51554e-50
1.56661e-55
6.64578e-57
8.20976e-57
1.12906e-57
7.73672e-60
1.70832e-13
1.22878e-10
1.44302e-09
8.20255e-10
1.25741e-10
4.43147e-13
5.45837e-17
2.57488e-22
4.87525e-28
4.17893e-33
1.41e-34
2.60003e-37
1.99239e-41
8.78136e-46
1.09294e-50
1.0394e-55
8.63043e-61
4.9736e-62
7.10491e-62
2.32613e-61
1.74622e-19
9.83692e-17
1.38318e-15
7.78277e-16
1.05118e-16
4.72117e-19
4.36929e-23
2.11183e-28
4.77486e-34
6.63331e-38
2.89285e-39
3.86189e-40
1.26295e-41
1.81726e-44
6.39638e-49
4.9702e-54
3.4638e-59
2.17521e-64
4.84873e-66
2.0609e-64
1.6899e-25
7.78848e-23
1.22801e-21
7.00103e-22
8.97205e-23
4.87365e-25
3.91139e-29
1.80223e-34
4.59298e-40
7.24058e-43
4.42537e-44
1.19315e-43
5.52849e-43
1.91285e-44
1.19831e-47
9.58007e-53
5.67775e-58
2.9364e-63
1.33731e-68
2.05595e-69
1.58465e-31
6.5089e-29
1.04404e-27
6.19803e-28
8.26248e-29
4.86279e-31
3.57274e-35
1.56615e-40
4.59665e-46
6.06367e-48
6.01873e-49
1.45551e-47
6.27512e-46
4.33407e-46
4.66909e-48
4.86751e-52
2.03897e-57
7.51195e-63
2.46456e-68
8.36624e-74
1.45732e-37
5.99576e-35
8.91549e-34
5.71211e-34
8.44218e-35
4.74869e-37
3.13678e-41
1.3657e-46
6.05518e-52
4.35892e-53
6.76086e-54
1.44873e-52
1.09648e-50
1.29919e-49
2.09305e-50
3.03975e-53
2.58072e-58
7.05411e-64
1.82479e-69
4.1296e-75
0.295954
0.481943
0.549977
0.592019
0.610094
0.603764
0.577142
0.518779
0.427928
0.321857
0.204695
0.086565
0.0140958
0.000346563
2.08708e-07
2.9795e-13
3.02146e-19
2.88281e-25
2.65447e-31
2.40325e-37
0.482153
0.75672
0.842923
0.886555
0.899671
0.8961
0.878984
0.832397
0.739658
0.598947
0.418115
0.217231
0.0574195
0.00363064
1.38618e-05
2.89081e-10
2.36824e-16
1.87328e-22
1.5043e-28
1.29703e-34
0.550262
0.843087
0.927145
0.965351
0.972762
0.971885
0.965623
0.943914
0.885231
0.754629
0.544249
0.294729
0.0876046
0.0073387
5.18276e-05
3.62573e-09
3.65494e-15
3.38713e-21
2.94991e-27
2.49585e-33
0.592351
0.886818
0.965449
0.987069
0.996285
0.99718
0.997158
0.995902
0.985867
0.880368
0.647623
0.347847
0.0990978
0.00765873
4.53934e-05
2.28537e-09
2.31602e-15
2.17362e-21
1.94693e-27
1.73939e-33
0.610881
0.90012
0.972872
0.99622
0.963201
0.771993
0.5794
0.320729
0.0906728
0.00626958
2.67847e-05
6.85315e-10
6.13092e-16
5.287e-22
4.54956e-28
4.13999e-34
0.604036
0.8962
0.971898
0.997199
0.60445
0.459606
0.388552
0.216345
0.0482641
0.00173545
1.82849e-06
4.17959e-12
3.69725e-18
3.78701e-24
3.92389e-30
3.95896e-36
0.577037
0.878899
0.965586
0.997147
0.251192
0.182916
0.141354
0.0581946
0.00557504
3.58498e-05
1.24836e-09
9.48834e-16
7.45492e-22
6.33325e-28
5.68098e-34
5.15356e-40
0.518615
0.832275
0.943826
0.995969
0.0641134
0.0232745
0.0137101
0.00233998
3.66742e-05
5.60415e-09
5.2064e-15
4.66499e-21
4.0496e-27
3.47484e-33
2.96992e-39
2.54025e-45
0.427899
0.739626
0.885094
0.985385
0.948426
0.584718
0.245583
0.0780987
5.73685e-07
0.000320183
0.000106672
3.07974e-06
1.18406e-09
5.11395e-15
8.03498e-21
9.51251e-27
9.95333e-33
9.61564e-39
8.91348e-45
8.14144e-51
0.321908
0.598909
0.754162
0.879006
0.766109
0.452987
0.183636
0.0244968
0.000346733
1.40979e-07
7.57003e-09
1.01873e-11
9.81473e-16
4.91719e-21
1.00484e-26
1.45381e-32
1.7624e-38
1.93289e-44
2.02068e-50
2.15525e-56
0.204712
0.418003
0.543753
0.646576
0.575955
0.385044
0.141228
0.0138633
0.000110775
7.57915e-09
2.07285e-14
1.012e-17
8.27698e-22
4.65685e-27
1.1315e-32
1.94212e-38
6.56537e-44
2.00313e-48
3.62051e-53
5.03927e-58
0.0865262
0.21708
0.294434
0.34749
0.319367
0.215318
0.0578028
0.00231678
3.01689e-06
7.06417e-12
5.58023e-18
1.86162e-23
7.74331e-28
4.53221e-33
1.28457e-38
5.16445e-43
1.38133e-44
2.02871e-47
6.30923e-52
5.31683e-57
0.0140686
0.0573172
0.0875004
0.0991325
0.0905631
0.0482138
0.0055248
3.57651e-05
1.10171e-09
7.19541e-16
5.72629e-22
4.92141e-28
1.15265e-33
5.19933e-39
1.62659e-44
1.72178e-46
2.9459e-46
9.8162e-48
5.43326e-51
3.84195e-56
0.000344714
0.00361531
0.00732574
0.00767856
0.00629432
0.00174281
3.56421e-05
5.44e-09
4.64572e-15
3.95018e-21
3.46312e-27
3.26867e-33
8.75419e-39
6.76998e-44
4.9017e-49
6.74727e-51
1.41193e-49
8.714e-50
7.59022e-52
5.91225e-56
2.06183e-07
1.37393e-05
5.16386e-05
4.56866e-05
2.71717e-05
1.85623e-06
1.24886e-09
4.7115e-15
6.99095e-21
8.17031e-27
9.86827e-32
1.509e-35
2.27903e-40
2.0313e-45
1.42419e-50
1.80104e-55
1.31483e-54
8.435e-54
1.07101e-54
2.28305e-57
2.93565e-13
2.8419e-10
3.59559e-09
2.31487e-09
7.07787e-10
4.27945e-12
9.3319e-16
4.20791e-21
8.25518e-27
1.32622e-32
4.46342e-35
8.26359e-38
8.27127e-42
3.72289e-46
4.84192e-51
4.79967e-56
1.04296e-59
4.10691e-59
1.71594e-59
2.24779e-59
2.9762e-19
2.32704e-16
3.61999e-15
2.34601e-15
6.33838e-16
3.76688e-18
7.30958e-22
3.63328e-27
8.57336e-33
4.44716e-38
1.02846e-39
1.44499e-40
4.79243e-42
7.2267e-45
2.79546e-49
2.22072e-54
1.59357e-59
2.93171e-64
6.13566e-64
1.78931e-62
2.83954e-25
1.84012e-22
3.35099e-21
2.20168e-21
5.46714e-22
3.84477e-24
6.18822e-28
3.13021e-33
8.28258e-39
3.91758e-43
1.76666e-44
4.49881e-44
2.01465e-43
7.36305e-45
5.1688e-48
4.73206e-53
2.87089e-58
1.55403e-63
1.63988e-68
2.52428e-67
2.61429e-31
1.47797e-28
2.91522e-27
1.97147e-27
4.69856e-28
3.97953e-30
5.53767e-34
2.68667e-39
8.12456e-45
4.41782e-48
2.49957e-49
5.77113e-48
2.34495e-46
1.75564e-46
2.20482e-48
2.92997e-52
1.33058e-57
5.27216e-63
1.85604e-68
1.69082e-72
2.36557e-37
1.27494e-34
2.46431e-33
1.75992e-33
4.26278e-34
4.01439e-36
5.01757e-40
2.30624e-45
1.8667e-50
6.0518e-53
2.92515e-54
6.03573e-53
4.6322e-51
6.00778e-50
1.18259e-50
2.26453e-53
2.68465e-58
7.62273e-64
1.99814e-69
4.65124e-75
0.297245
0.486721
0.558097
0.60399
0.624437
0.620545
0.595208
0.536432
0.443109
0.333747
0.213654
0.0922922
0.0158063
0.000429364
3.12523e-07
5.04472e-13
4.85267e-19
4.58533e-25
4.16671e-31
3.71435e-37
0.486922
0.766209
0.854869
0.900565
0.914589
0.912689
0.898092
0.85509
0.765925
0.624792
0.439333
0.231465
0.0633895
0.00431482
1.91716e-05
5.26931e-10
4.37681e-16
3.46625e-22
2.72499e-28
2.24351e-34
0.558395
0.854999
0.938692
0.975092
0.981771
0.981341
0.976601
0.95878
0.907051
0.781842
0.570411
0.313442
0.0961462
0.0086197
7.07887e-05
6.50551e-09
6.70927e-15
6.33229e-21
5.58772e-27
4.71118e-33
0.604341
0.900747
0.975131
0.994506
0.999621
0.999701
0.999587
0.99906
0.992937
0.895057
0.670022
0.36696
0.108416
0.00906272
6.46633e-05
4.57249e-09
4.75626e-15
4.56019e-21
4.11364e-27
3.60331e-33
0.625066
0.914873
0.981826
0.99967
0.968426
0.785254
0.596744
0.336781
0.100093
0.00776099
4.28969e-05
1.80385e-09
1.66093e-15
1.44269e-21
1.20902e-27
1.02541e-33
0.620714
0.912708
0.98133
0.999716
0.631974
0.473542
0.403815
0.232489
0.0568592
0.00249932
4.07093e-06
1.73081e-11
1.3103e-17
1.13425e-23
1.08373e-29
1.06379e-35
0.595113
0.897986
0.97655
0.999582
0.266729
0.195527
0.157369
0.0698955
0.00797267
7.37379e-05
5.22349e-09
4.08755e-15
3.12281e-21
2.46733e-27
2.0573e-33
1.78813e-39
0.536306
0.855072
0.958834
0.999029
0.0765856
0.029457
0.0181022
0.00360798
7.83546e-05
2.33285e-08
2.49639e-14
2.06198e-20
1.71674e-26
1.4197e-32
1.16142e-38
9.48626e-45
0.442857
0.765862
0.907317
0.993037
0.967847
0.631965
0.264747
0.075716
2.43139e-06
0.000561355
0.000201901
7.79005e-06
5.29921e-09
2.25577e-14
3.56527e-20
4.11079e-26
4.20961e-32
3.9527e-38
3.51692e-44
3.0428e-50
0.333474
0.624809
0.782907
0.897848
0.792966
0.478345
0.189943
0.0251643
0.000388267
3.4099e-07
2.91735e-08
5.36415e-11
4.36675e-15
2.17622e-20
4.36495e-26
6.19982e-32
7.31925e-38
7.71018e-44
7.60233e-50
7.57281e-56
0.21352
0.439533
0.571754
0.673067
0.601981
0.406284
0.152624
0.0162551
0.000153533
1.55296e-08
7.0933e-14
4.90018e-17
3.71975e-21
1.99075e-26
4.6975e-32
7.82418e-38
3.43016e-43
1.47861e-47
2.56413e-52
3.43282e-57
0.0923115
0.23178
0.314498
0.369103
0.33979
0.233172
0.0684306
0.00336896
6.54806e-06
3.07838e-11
2.49701e-17
6.90303e-23
3.12887e-27
1.75176e-32
4.68601e-38
3.21535e-42
1.19143e-43
2.19978e-46
7.9636e-51
6.37874e-56
0.015837
0.0635954
0.0966765
0.109329
0.101173
0.0570386
0.0079012
7.62942e-05
4.93717e-09
3.4791e-15
2.87659e-21
2.44902e-27
4.41581e-33
1.63193e-38
4.55372e-44
1.40928e-45
3.22463e-45
1.05225e-46
5.94661e-50
4.44258e-55
0.000431444
0.00434387
0.00870712
0.00919186
0.0078833
0.00251895
7.38236e-05
2.32958e-08
2.14995e-14
1.87105e-20
1.66774e-26
1.44978e-32
1.44663e-38
2.97313e-44
1.21761e-49
6.53011e-50
1.84115e-48
9.68422e-49
8.09734e-51
6.80003e-55
3.15733e-07
1.94319e-05
7.21664e-05
6.63558e-05
4.39789e-05
4.13824e-06
5.25099e-09
2.39611e-14
3.3317e-20
3.87009e-26
4.63311e-32
8.07787e-37
1.40899e-41
1.45098e-46
1.11357e-51
8.31284e-55
1.68063e-53
1.04618e-52
1.26045e-53
2.35592e-56
5.12124e-13
5.40472e-10
6.73313e-09
4.79028e-09
1.87966e-09
1.78283e-11
4.08765e-15
1.98196e-20
3.93005e-26
5.67319e-32
1.79052e-36
5.82188e-39
2.88014e-42
1.87355e-46
2.21259e-51
2.0259e-56
1.24372e-58
5.39578e-58
1.87521e-58
1.33701e-58
4.91272e-19
4.49503e-16
6.96017e-15
5.00047e-15
1.73599e-15
1.35205e-17
3.1388e-21
1.65842e-26
4.0299e-32
6.99368e-38
6.44012e-41
5.00456e-41
3.44506e-42
6.17335e-45
1.44972e-49
8.24301e-55
4.29194e-60
2.55954e-63
4.10795e-63
9.56998e-62
4.63957e-25
3.56362e-22
6.58105e-21
4.81214e-21
1.5124e-21
1.17071e-23
2.49255e-27
1.38839e-32
3.82679e-38
2.26369e-43
2.31372e-45
3.76678e-44
1.18955e-43
2.77768e-45
8.8993e-49
5.23924e-54
2.66756e-59
1.21392e-64
6.18313e-68
1.51391e-66
4.21283e-31
2.8021e-28
5.81676e-27
4.35649e-27
1.27076e-27
1.12033e-29
2.08953e-33
1.14753e-38
4.04131e-44
1.82941e-47
4.21884e-50
1.66616e-48
6.76161e-47
2.10134e-47
1.02672e-49
6.19792e-54
3.22644e-59
1.44178e-64
5.65352e-70
1.1221e-71
3.75217e-37
2.30457e-34
4.90838e-33
3.82572e-33
1.07959e-33
1.10361e-35
1.82699e-39
9.45182e-45
1.92891e-49
5.87821e-52
5.91444e-55
1.52718e-53
4.86062e-52
1.94599e-51
2.06408e-52
3.70351e-55
5.71576e-60
1.99916e-65
5.81719e-71
2.16794e-76
0.297581
0.488239
0.560973
0.608461
0.630128
0.626951
0.601412
0.541583
0.44688
0.336332
0.215454
0.0934868
0.0162162
0.000452444
3.46384e-07
5.84686e-13
5.47308e-19
5.14305e-25
4.64385e-31
4.11123e-37
0.488442
0.769105
0.858446
0.904454
0.918616
0.917137
0.903088
0.860482
0.771086
0.628879
0.442127
0.233324
0.064358
0.00445785
2.05668e-05
6.06327e-10
5.03525e-16
3.97313e-22
3.09613e-28
2.51216e-34
0.561324
0.858549
0.941552
0.976902
0.983296
0.982994
0.978667
0.961665
0.910832
0.785636
0.573075
0.315017
0.0970324
0.00880976
7.4733e-05
7.30943e-09
7.55655e-15
7.13466e-21
6.29488e-27
5.29133e-33
0.608962
0.904625
0.976946
0.995166
0.999756
0.999804
0.999716
0.999392
0.993433
0.897249
0.671731
0.367752
0.108968
0.00921122
6.78865e-05
5.12323e-09
5.33917e-15
5.1238e-21
4.61841e-27
4.02425e-33
0.630698
0.918831
0.983338
0.99975
0.950178
0.78817
0.597672
0.33697
0.100522
0.00790335
4.53948e-05
2.06397e-09
1.9045e-15
1.6516e-21
1.37548e-27
1.15176e-33
0.627214
0.917223
0.983012
0.999801
0.616937
0.474718
0.403979
0.232503
0.0572675
0.0025785
4.46513e-06
2.09175e-11
1.54738e-17
1.29784e-23
1.21313e-29
1.17838e-35
0.601423
0.903058
0.978648
0.999716
0.260865
0.19509
0.157439
0.0704286
0.008198
7.93929e-05
6.20835e-09
4.88005e-15
3.69262e-21
2.87099e-27
2.35235e-33
2.01844e-39
0.541532
0.860498
0.961709
0.999347
0.0996581
0.0293662
0.0182704
0.00372475
8.46348e-05
2.76141e-08
3.01536e-14
2.46207e-20
2.01987e-26
1.65016e-32
1.33486e-38
1.07868e-44
0.446695
0.770958
0.910883
0.99381
0.962086
0.632194
0.262829
0.0807236
1.5737e-05
0.000568333
0.000208921
8.49053e-06
6.30721e-09
2.68657e-14
4.24689e-20
4.84379e-26
4.91053e-32
4.56845e-38
4.02481e-44
3.44511e-50
0.336159
0.628707
0.785874
0.898237
0.790435
0.475434
0.191348
0.0265939
0.000445881
3.92461e-07
3.19192e-08
6.26869e-11
5.21886e-15
2.57337e-20
5.14143e-26
7.23947e-32
8.47519e-38
8.84682e-44
8.62648e-50
8.39202e-56
0.215453
0.442131
0.573474
0.67287
0.599495
0.404232
0.15423
0.0171596
0.000176771
2.11267e-08
8.21011e-14
5.53345e-17
4.35765e-21
2.27715e-26
5.44182e-32
8.98395e-38
1.48106e-43
1.60028e-48
2.80486e-53
4.00195e-58
0.093635
0.233609
0.315603
0.368907
0.338611
0.232887
0.0696651
0.00360439
7.76893e-06
4.34003e-11
3.41595e-17
8.22435e-23
3.64584e-27
2.00237e-32
5.36426e-38
4.86524e-43
9.20356e-45
1.27954e-47
4.33311e-52
3.86316e-57
0.0162999
0.0646442
0.0975412
0.109746
0.101508
0.0577312
0.00825805
8.54976e-05
6.35601e-09
4.4228e-15
3.61511e-21
3.04132e-27
5.23625e-33
1.86284e-38
5.13584e-44
1.14353e-46
1.91901e-46
7.02869e-48
4.39348e-51
3.37767e-56
0.000458
0.00450688
0.00892112
0.00935919
0.00806417
0.00263748
8.21361e-05
2.94421e-08
2.7505e-14
2.35986e-20
2.07923e-26
1.78147e-32
1.69904e-38
2.96073e-44
8.66714e-50
4.95156e-51
1.03796e-49
7.39343e-50
7.53159e-52
7.22165e-56
3.55637e-07
2.10756e-05
7.68403e-05
7.02652e-05
4.72893e-05
4.69946e-06
6.68667e-09
3.14032e-14
4.24211e-20
4.84113e-26
5.47633e-32
6.29918e-37
1.08147e-41
1.15595e-46
9.4609e-52
7.5056e-56
1.0556e-54
8.78723e-54
1.36633e-54
3.82026e-57
6.09186e-13
6.3743e-10
7.72174e-09
5.48863e-09
2.23422e-09
2.30502e-11
5.21748e-15
2.53745e-20
4.92913e-26
7.01626e-32
1.92986e-36
7.40511e-39
3.87735e-42
2.40841e-46
2.80933e-51
2.57811e-56
8.55348e-60
4.47947e-59
3.26325e-59
3.40274e-59
5.66238e-19
5.30457e-16
8.00909e-15
5.746e-15
2.07308e-15
1.70367e-17
3.9692e-21
2.08155e-26
4.99023e-32
8.5161e-38
7.72121e-41
6.78467e-41
4.57883e-42
7.87532e-45
1.82832e-49
1.07408e-54
5.75476e-60
2.44636e-64
7.98903e-64
1.98841e-62
5.31659e-25
4.19058e-22
7.57954e-21
5.53892e-21
1.80643e-21
1.42029e-23
3.09477e-27
1.71598e-32
4.68172e-38
1.81545e-43
2.93569e-45
5.0467e-44
1.5722e-43
3.72203e-45
1.23776e-48
7.40518e-54
3.81555e-59
1.74022e-64
1.12125e-68
2.25501e-67
4.79459e-31
3.26334e-28
6.70201e-27
5.01372e-27
1.50956e-27
1.32118e-29
2.5396e-33
1.39885e-38
4.51335e-44
9.39809e-48
5.22154e-50
2.28023e-48
9.2327e-47
3.04457e-47
1.52206e-49
7.97692e-54
3.66725e-59
1.49006e-64
5.40583e-70
1.56478e-72
4.23834e-37
2.63953e-34
5.63924e-33
4.38043e-33
1.26497e-33
1.28338e-35
2.18507e-39
1.13713e-44
1.33684e-49
2.92599e-52
6.89818e-55
2.1052e-53
6.97644e-52
2.97644e-51
2.62955e-52
3.1113e-55
2.93326e-60
1.03074e-65
3.03595e-71
8.98244e-77
0.297602
0.488357
0.561284
0.608987
0.630665
0.627647
0.60205
0.542076
0.447199
0.33652
0.215565
0.0935496
0.0162375
0.000453708
3.48364e-07
5.89293e-13
5.5051e-19
5.16946e-25
4.66422e-31
4.12564e-37
0.488586
0.769386
0.858823
0.904858
0.91899
0.917655
0.903623
0.860918
0.771324
0.628898
0.441995
0.233197
0.0643198
0.00445657
2.05934e-05
6.08837e-10
5.05183e-16
3.9822e-22
3.09956e-28
2.51172e-34
0.561598
0.858968
0.941922
0.977119
0.983467
0.98323
0.978938
0.961917
0.910974
0.785318
0.572456
0.314538
0.0968694
0.00879651
7.46805e-05
7.31517e-09
7.55767e-15
7.13075e-21
6.28709e-27
5.28119e-33
0.609369
0.905114
0.977222
0.99531
0.999774
0.999822
0.99974
0.999398
0.993846
0.896393
0.670497
0.366983
0.108787
0.0092057
6.79787e-05
5.15086e-09
5.36678e-15
5.1494e-21
4.6414e-27
4.04489e-33
0.631439
0.919443
0.983619
0.999779
0.962968
0.783188
0.593699
0.335013
0.100091
0.00788417
4.53807e-05
2.06843e-09
1.90862e-15
1.65579e-21
1.37989e-27
1.15644e-33
0.627965
0.917794
0.983274
0.999822
0.629622
0.468274
0.399075
0.229993
0.056679
0.00255045
4.40418e-06
2.04994e-11
1.5188e-17
1.27665e-23
1.19508e-29
1.1619e-35
0.601988
0.903535
0.978898
0.99974
0.262029
0.192019
0.154749
0.0691113
0.00801266
7.70592e-05
5.93575e-09
4.67795e-15
3.53481e-21
2.7478e-27
2.25315e-33
1.93604e-39
0.541939
0.86085
0.961909
0.999399
0.0787397
0.0286022
0.0178703
0.00360891
8.08509e-05
2.58302e-08
2.78188e-14
2.29352e-20
1.88904e-26
1.54755e-32
1.25519e-38
1.01766e-44
0.447032
0.771223
0.91098
0.993838
0.962667
0.628312
0.261427
0.0839109
4.937e-06
0.000545989
0.000200553
7.99422e-06
5.7682e-09
2.47274e-14
3.9284e-20
4.49172e-26
4.5626e-32
4.25195e-38
3.75509e-44
3.22477e-50
0.336408
0.628818
0.785491
0.896995
0.785146
0.470345
0.191668
0.0277654
0.000494787
4.08357e-07
2.92754e-08
5.59271e-11
4.88205e-15
2.37251e-20
4.74699e-26
6.69745e-32
7.86069e-38
8.24597e-44
8.16193e-50
8.49914e-56
0.215602
0.442086
0.572828
0.67132
0.595486
0.400633
0.154355
0.0175574
0.000189638
2.46506e-08
7.98163e-14
4.83984e-17
4.04809e-21
2.10087e-26
5.03546e-32
1.84084e-37
6.47873e-41
9.53719e-46
6.38561e-51
3.13288e-56
0.0937047
0.233524
0.315114
0.367886
0.336561
0.231356
0.0695047
0.00363607
8.03381e-06
4.68238e-11
3.68375e-17
7.85086e-23
3.40304e-27
1.87024e-32
5.18086e-38
1.35041e-39
2.87316e-41
7.27661e-45
2.62922e-50
7.26007e-56
0.0163201
0.0646091
0.0973537
0.109425
0.10103
0.0574766
0.00822232
8.52072e-05
6.36501e-09
4.35341e-15
3.5095e-21
2.93958e-27
5.03698e-33
1.82559e-38
7.82178e-44
4.23234e-43
1.66122e-43
4.02971e-46
3.13596e-51
1.11239e-56
0.000459202
0.00450488
0.00889991
0.00932957
0.00804163
0.00263368
8.19709e-05
2.93232e-08
2.71309e-14
2.32127e-20
2.02849e-26
1.74107e-32
1.95712e-38
6.50114e-44
6.2407e-49
2.65676e-48
4.45568e-48
8.50766e-50
1.34826e-52
1.37595e-55
3.57535e-07
2.1089e-05
7.66347e-05
7.00204e-05
4.73646e-05
4.72758e-06
6.74194e-09
3.12749e-14
4.19045e-20
4.74751e-26
9.83401e-32
7.63757e-36
1.28675e-40
1.24442e-45
9.17312e-51
1.11307e-53
8.46056e-54
1.3856e-54
3.7954e-54
1.20443e-55
6.13437e-13
6.39099e-10
7.69979e-09
5.46936e-09
2.2571e-09
2.34835e-11
5.24727e-15
2.51791e-20
4.85129e-26
6.92993e-32
2.23135e-35
4.30056e-38
5.96345e-42
3.6492e-46
4.71938e-51
4.64374e-56
1.53926e-59
7.28943e-59
2.56932e-57
1.83922e-57
5.69082e-19
5.31306e-16
7.9765e-15
5.72047e-15
2.09469e-15
1.73328e-17
3.98531e-21
2.05962e-26
4.89502e-32
9.90036e-38
5.79817e-40
1.11742e-40
4.71661e-42
8.65069e-45
3.49034e-49
2.65905e-54
1.80814e-59
8.98143e-64
2.85058e-62
3.87765e-61
5.33886e-25
4.19163e-22
7.54017e-21
5.50896e-21
1.82478e-21
1.44096e-23
3.10173e-27
1.69402e-32
4.57529e-38
3.12243e-43
1.09337e-44
4.46483e-44
2.3568e-43
7.95256e-45
4.85822e-48
3.90709e-53
2.42814e-58
1.33509e-63
2.37414e-67
2.42599e-66
4.81041e-31
3.25918e-28
6.65948e-27
4.98203e-27
1.52363e-27
1.33635e-29
2.54197e-33
1.37885e-38
4.05817e-44
2.42352e-48
1.64239e-49
6.26883e-48
2.8866e-46
1.58113e-46
1.44025e-48
1.45669e-52
7.03595e-58
2.9731e-63
1.11364e-68
1.29513e-71
4.24779e-37
2.63169e-34
5.59711e-33
4.34954e-33
1.27469e-33
1.29534e-35
2.18605e-39
1.12007e-44
3.93352e-50
2.35387e-53
2.01029e-54
6.25703e-53
4.99264e-51
4.23314e-50
5.7413e-51
8.9217e-54
1.01621e-58
3.36077e-64
9.50147e-70
2.50152e-75
0.297592
0.488287
0.561202
0.608909
0.630515
0.627603
0.602078
0.542117
0.44724
0.336564
0.215598
0.0935652
0.0162398
0.000453714
3.48265e-07
5.88881e-13
5.50194e-19
5.16689e-25
4.66224e-31
4.12393e-37
0.488632
0.769373
0.858768
0.904775
0.91887
0.917628
0.903647
0.860928
0.771316
0.628842
0.441898
0.233117
0.0642888
0.00445327
2.05702e-05
6.07871e-10
5.04366e-16
3.97571e-22
3.09456e-28
2.5077e-34
0.561669
0.859012
0.941921
0.977087
0.98342
0.98322
0.978951
0.961908
0.910906
0.78499
0.572037
0.314259
0.0967797
0.00878843
7.46092e-05
7.30755e-09
7.54891e-15
7.12153e-21
6.27805e-27
5.27281e-33
0.609458
0.905211
0.977263
0.995318
0.999751
0.999814
0.999742
0.999417
0.99378
0.895602
0.669608
0.366481
0.108683
0.00920469
6.80778e-05
5.17569e-09
5.39418e-15
5.17734e-21
4.66838e-27
4.06998e-33
0.631648
0.919598
0.983678
0.999804
0.960506
0.780635
0.59152
0.333851
0.0998214
0.00787375
4.54554e-05
2.08463e-09
1.92515e-15
1.67122e-21
1.39341e-27
1.16789e-33
0.628022
0.917833
0.98329
0.999829
0.619664
0.465135
0.396914
0.228975
0.0564413
0.00253907
4.38365e-06
2.0415e-11
1.51384e-17
1.27304e-23
1.19142e-29
1.15774e-35
0.601956
0.903518
0.97889
0.999738
0.258055
0.191857
0.154363
0.0687075
0.00793336
7.59538e-05
5.81639e-09
4.57877e-15
3.4565e-21
2.68463e-27
2.19965e-33
1.88891e-39
0.541888
0.860808
0.961904
0.999373
0.0877912
0.0291738
0.0179113
0.0035757
7.91611e-05
2.49692e-08
2.65799e-14
2.19424e-20
1.80984e-26
1.48395e-32
1.20467e-38
9.78052e-45
0.446965
0.771197
0.911027
0.994113
0.97059
0.634633
0.263125
0.0792255
6.13374e-06
0.000569819
0.000204282
7.90614e-06
5.54016e-09
2.35001e-14
3.72311e-20
4.26195e-26
4.33162e-32
4.0384e-38
3.57042e-44
3.07215e-50
0.336339
0.628849
0.785731
0.897482
0.787835
0.472186
0.191238
0.0273707
0.000484864
4.23799e-07
3.07179e-08
5.51481e-11
4.61577e-15
2.26012e-20
4.48361e-26
6.33143e-32
8.00039e-38
1.49713e-43
6.92923e-49
4.12709e-54
0.215545
0.442143
0.573104
0.6718
0.596902
0.401797
0.154272
0.0174726
0.000186878
2.39202e-08
8.16777e-14
4.78053e-17
3.81842e-21
2.00011e-26
5.07933e-32
1.02945e-34
9.96005e-38
1.57995e-42
8.4148e-48
3.69013e-53
0.0936645
0.23354
0.315241
0.368082
0.336852
0.231444
0.0693877
0.00361404
7.8902e-06
4.55353e-11
3.65268e-17
7.71562e-23
3.13063e-27
1.74195e-32
1.42959e-36
2.05413e-36
4.91358e-38
9.34614e-42
2.91481e-47
7.56574e-53
0.0163082
0.0645957
0.0973463
0.10939
0.100858
0.0572355
0.00815681
8.38599e-05
6.14875e-09
4.18596e-15
3.39241e-21
2.85207e-27
4.66721e-33
1.61801e-38
3.34895e-41
7.94856e-40
2.18099e-40
3.43143e-43
1.77076e-48
2.89399e-54
0.000458653
0.00450176
0.00889023
0.00930992
0.00799524
0.00260411
8.0313e-05
2.81915e-08
2.61234e-14
2.23858e-20
1.95791e-26
1.66913e-32
1.56241e-38
2.61801e-44
3.07184e-46
4.223e-45
4.28036e-45
4.99243e-47
1.99362e-51
5.96147e-55
3.5677e-07
2.10547e-05
7.64309e-05
6.96584e-05
4.67595e-05
4.61353e-06
6.45183e-09
2.9858e-14
4.02086e-20
4.56231e-26
5.11898e-32
5.7672e-37
9.76912e-42
1.02762e-46
2.75653e-51
1.62132e-50
8.14336e-51
8.1275e-53
1.74414e-53
7.58735e-55
6.11456e-13
6.36904e-10
7.6619e-09
5.4138e-09
2.20073e-09
2.24621e-11
4.99444e-15
2.40517e-20
4.64899e-26
6.57646e-32
1.75684e-36
4.50141e-39
1.11411e-42
4.95135e-47
6.15902e-52
5.65363e-56
1.35183e-56
6.36731e-58
1.68505e-56
1.75645e-56
5.6758e-19
5.29382e-16
7.93476e-15
5.6568e-15
2.03759e-15
1.65789e-17
3.7854e-21
1.96679e-26
4.68392e-32
7.94393e-38
5.61966e-41
1.74636e-41
7.25952e-43
1.06308e-45
2.99309e-50
2.12512e-55
1.4095e-60
6.19924e-63
3.04151e-61
4.66056e-60
5.32528e-25
4.17601e-22
7.49908e-21
5.44259e-21
1.77135e-21
1.38159e-23
2.94438e-27
1.6156e-32
4.37062e-38
1.0334e-43
1.30873e-45
6.22771e-45
2.3613e-44
7.24509e-46
3.88151e-49
2.96567e-54
1.86825e-59
1.01749e-64
2.24858e-66
2.57977e-65
4.79898e-31
3.24724e-28
6.62222e-27
4.91789e-27
1.4767e-27
1.28431e-29
2.4136e-33
1.31295e-38
3.882e-44
4.21221e-49
2.15981e-50
4.48064e-49
1.80193e-47
1.07512e-47
1.11358e-49
1.34321e-53
6.70101e-59
2.88075e-64
1.10087e-69
1.33538e-70
4.23906e-37
2.62297e-34
5.5658e-33
4.29109e-33
1.23468e-33
1.24498e-35
2.07458e-39
1.06491e-44
4.0535e-50
6.97269e-54
2.75588e-55
4.54305e-54
2.27093e-52
2.31001e-51
4.53649e-52
1.06161e-54
1.86925e-59
6.13852e-65
1.72894e-70
1.05547e-75
0.297569
0.488109
0.560829
0.608312
0.629678
0.626818
0.601505
0.54173
0.446995
0.336432
0.215527
0.0935189
0.0162183
0.000452111
3.45456e-07
5.81872e-13
5.45118e-19
5.12359e-25
4.62727e-31
4.09644e-37
0.488543
0.769081
0.85833
0.904266
0.918284
0.917063
0.903164
0.860564
0.771071
0.628705
0.441839
0.233078
0.0642507
0.00444468
2.04577e-05
6.00595e-10
4.98584e-16
3.93338e-22
3.06545e-28
2.48827e-34
0.561454
0.858631
0.941539
0.976819
0.983166
0.982966
0.978699
0.961669
0.910698
0.784868
0.572017
0.314265
0.0967656
0.00878117
7.43669e-05
7.24638e-09
7.48701e-15
7.06564e-21
6.23105e-27
5.23623e-33
0.609105
0.904795
0.977018
0.995282
0.999749
0.999813
0.999742
0.999422
0.993798
0.895579
0.669614
0.366498
0.108693
0.0092048
6.80115e-05
5.15729e-09
5.37726e-15
5.16343e-21
4.65806e-27
4.0633e-33
0.631154
0.919148
0.983454
0.999802
0.960536
0.780556
0.59153
0.333903
0.0998563
0.00787835
4.54841e-05
2.08522e-09
1.92691e-15
1.67366e-21
1.39601e-27
1.17034e-33
0.627383
0.917322
0.983048
0.999828
0.619575
0.465114
0.396992
0.229077
0.056486
0.00254206
4.38949e-06
2.04782e-11
1.52062e-17
1.27987e-23
1.19832e-29
1.16474e-35
0.601356
0.903015
0.97863
0.999737
0.257989
0.191904
0.154496
0.0687956
0.00794623
7.60969e-05
5.83572e-09
4.57876e-15
3.46298e-21
2.69512e-27
2.21316e-33
1.90429e-39
0.541441
0.8604
0.961635
0.999417
0.0870149
0.0292503
0.017977
0.00358767
7.93892e-05
2.50549e-08
2.69415e-14
2.21288e-20
1.8256e-26
1.49752e-32
1.21638e-38
9.88028e-45
0.446739
0.770927
0.910717
0.993797
0.960322
0.619921
0.258515
0.0889397
9.2704e-06
0.000574107
0.00020591
7.95566e-06
5.57118e-09
2.39822e-14
3.76526e-20
4.30866e-26
4.37868e-32
4.08213e-38
3.60837e-44
3.1038e-50
0.336266
0.628634
0.785133
0.896304
0.783187
0.468109
0.1919
0.0284446
0.000525339
4.5536e-07
3.11342e-08
5.5394e-11
4.56154e-15
2.25257e-20
4.51966e-26
6.60842e-32
1.81922e-37
1.35904e-42
1.09546e-47
7.13921e-53
0.21549
0.441921
0.572489
0.670698
0.594292
0.399517
0.154606
0.0177338
0.000195673
2.65694e-08
8.60216e-14
4.8159e-17
3.81066e-21
2.02026e-26
1.059e-31
1.93411e-33
2.28664e-36
3.52886e-41
1.72779e-46
7.25975e-52
0.0935829
0.233314
0.314807
0.367473
0.335883
0.230861
0.0693719
0.00362425
7.99322e-06
4.74893e-11
3.73618e-17
7.86553e-23
3.06166e-27
1.75199e-32
2.89693e-35
4.88563e-35
1.03633e-36
1.66856e-40
5.12097e-46
1.31534e-51
0.0162608
0.0644435
0.0971361
0.109209
0.100725
0.057257
0.0081408
8.31156e-05
6.02338e-09
4.19947e-15
3.4007e-21
2.83451e-27
4.59057e-33
1.61698e-38
6.96828e-40
1.97399e-38
4.17549e-39
5.25243e-42
2.27739e-47
3.91583e-53
0.00045507
0.00447571
0.00885253
0.00928934
0.00799598
0.00260975
8.00484e-05
2.76771e-08
2.54214e-14
2.2161e-20
1.92669e-26
1.63612e-32
1.49848e-38
2.26048e-44
6.20426e-45
9.40291e-44
7.26184e-44
6.53376e-46
1.38601e-50
1.10527e-55
3.504e-07
2.07665e-05
7.56476e-05
6.92893e-05
4.67583e-05
4.62295e-06
6.41816e-09
2.93274e-14
3.93593e-20
4.47126e-26
4.61559e-32
4.54404e-38
6.80007e-44
4.20618e-49
3.86837e-50
3.41151e-49
1.3464e-49
9.74985e-52
2.90777e-54
1.27166e-55
5.94793e-13
6.1867e-10
7.48942e-09
5.34447e-09
2.19505e-09
2.24803e-11
4.97401e-15
2.36486e-20
4.55167e-26
6.42166e-32
8.28345e-38
3.05046e-41
1.31786e-44
3.46666e-49
4.39726e-54
1.03865e-54
2.20706e-55
1.34612e-57
2.56563e-57
4.6108e-57
5.55015e-19
5.14137e-16
7.75128e-15
5.58407e-15
2.03457e-15
1.66356e-17
3.7754e-21
1.93666e-26
4.58715e-32
7.61512e-38
5.9792e-43
1.88316e-43
5.32217e-45
4.13592e-48
6.33703e-53
4.82121e-58
3.3967e-61
2.90289e-63
8.60488e-62
2.33821e-60
5.21271e-25
4.05803e-22
7.32439e-21
5.37254e-21
1.77096e-21
1.38936e-23
2.9424e-27
1.59332e-32
4.28221e-38
7.99517e-44
1.71173e-47
5.86137e-47
7.66293e-47
1.94816e-48
8.4788e-52
8.58618e-57
7.01522e-62
5.4375e-67
7.96147e-67
1.40963e-65
4.70299e-31
3.16073e-28
6.46719e-27
4.85475e-27
1.47836e-27
1.29339e-29
2.41781e-33
1.29737e-38
3.78219e-44
8.4053e-50
3.21674e-52
1.29973e-51
2.50913e-50
2.03121e-50
3.59255e-52
1.14724e-55
8.4208e-61
5.0146e-66
3.13586e-71
7.51224e-71
4.15874e-37
2.56049e-34
5.43788e-33
4.23756e-33
1.23778e-33
1.25528e-35
2.08316e-39
1.05484e-44
3.3051e-50
2.94902e-55