/*--------------------------------*- C++ -*----------------------------------*\
  =========                 |
  \\      /  F ield         | OpenFOAM: The Open Source CFD Toolbox
   \\    /   O peration     | Website:  https://openfoam.org
    \\  /    A nd           | Version:  9
     \\/     M anipulation  |
\*---------------------------------------------------------------------------*/
FoamFile
{
    format      ascii;
    class       volScalarField;
    location    "0.0005";
    object      p;
}
// * * * * * * * * * * * * * * * * * * * * * * * * * * * * * * * * * * * * * //

dimensions      [1 -1 -2 0 0 0 0];

internalField   nonuniform List<scalar> 
9720
(
9.18399e+07
1.43173e+08
2.29565e+08
3.01466e+08
3.70851e+08
3.50143e+08
2.56349e+08
1.72681e+08
1.00004e+08
5.67744e+07
3.92305e+07
2.50421e+07
1.57064e+07
6.49849e+06
421133
122590
122500
122500
122500
122500
1.43113e+08
2.18121e+08
3.39927e+08
4.39759e+08
5.33095e+08
5.09306e+08
3.81755e+08
2.62123e+08
1.6188e+08
8.26897e+07
5.21816e+07
3.50861e+07
1.99232e+07
1.07136e+07
1.97414e+06
129306
122500
122500
122500
122500
2.29472e+08
3.39882e+08
5.46305e+08
7.27632e+08
8.50752e+08
8.26406e+08
6.50833e+08
4.33204e+08
2.64044e+08
1.30756e+08
7.16137e+07
4.45994e+07
2.0414e+07
1.10178e+07
3.07552e+06
150679
122501
122500
122500
122500
3.0101e+08
4.39067e+08
7.26856e+08
8.32645e+08
1.08182e+09
1.11209e+09
9.89549e+08
7.02718e+08
3.94445e+08
1.18529e+08
6.18566e+07
3.83975e+07
1.71563e+07
9.36771e+06
2.39821e+06
138922
122501
122500
122500
122500
3.70905e+08
5.32553e+08
8.4885e+08
1.08075e+09
2.03572e+08
4.90293e+07
3.01513e+07
2.20571e+07
1.45253e+07
8.80921e+06
1.56229e+06
127032
122500
122500
122500
122500
3.50423e+08
5.09647e+08
8.26303e+08
1.10821e+09
3.69736e+07
2.23499e+07
2.41573e+07
2.28641e+07
1.57909e+07
5.68388e+06
350867
122561
122500
122500
122500
122500
2.56367e+08
3.81894e+08
6.51435e+08
9.89673e+08
1.10134e+07
1.41908e+07
1.7251e+07
1.68428e+07
7.26645e+06
803359
123230
122500
122500
122500
122500
122500
1.72743e+08
2.62276e+08
4.3346e+08
7.04065e+08
1.82205e+07
7.366e+06
7.76835e+06
4.63368e+06
670104
123617
122500
122500
122500
122500
122500
122500
1.00032e+08
1.61926e+08
2.62844e+08
3.90014e+08
1.9699e+08
3.92413e+07
1.12e+07
1.86337e+07
131332
1.61957e+06
1.19284e+06
267819
122948
122500
122500
122500
122500
122500
122500
122500
5.67777e+07
8.25805e+07
1.29641e+08
1.16565e+08
4.92941e+07
2.2653e+07
1.44736e+07
7.91778e+06
1.86983e+06
148000
125782
122531
122500
122500
122500
122500
122500
122500
122500
122500
3.92502e+07
5.21582e+07
7.12671e+07
6.15365e+07
3.03679e+07
2.42377e+07
1.76334e+07
8.21234e+06
1.32336e+06
126680
122500
122500
122500
122500
122500
122500
122500
122500
122500
122500
2.50467e+07
3.50438e+07
4.44148e+07
3.82814e+07
2.21738e+07
2.29045e+07
1.70028e+07
4.77952e+06
278515
122536
122500
122500
122500
122500
122500
122500
122500
122500
122500
122500
1.56876e+07
1.98791e+07
2.03473e+07
1.71544e+07
1.45851e+07
1.58158e+07
7.31654e+06
680306
122960
122500
122500
122500
122500
122500
122500
122500
122500
122500
122500
122500
6.47241e+06
1.06753e+07
1.09921e+07
9.37714e+06
8.81486e+06
5.6776e+06
805132
123622
122500
122500
122500
122500
122500
122500
122500
122500
122500
122500
122500
122500
417120
1.95474e+06
3.04716e+06
2.38608e+06
1.55516e+06
347434
123220
122500
122500
122500
122500
122500
122500
122500
122500
122500
122500
122500
122500
122500
122588
129130
149885
138601
126949
122559
122500
122500
122500
122500
122500
122500
122500
122500
122500
122500
122500
122500
122500
122500
122500
122500
122501
122501
122500
122500
122500
122500
122500
122500
122500
122500
122500
122500
122500
122500
122500
122500
122500
122500
122500
122500
122500
122500
122500
122500
122500
122500
122500
122500
122500
122500
122500
122500
122500
122500
122500
122500
122500
122500
122500
122500
122500
122500
122500
122500
122500
122500
122500
122500
122500
122500
122500
122500
122500
122500
122500
122500
122500
122500
122500
122500
122500
122500
122500
122500
122500
122500
122500
122500
122500
122500
122500
122500
122500
122500
122500
122500
122500
122500
9.47897e+07
1.49461e+08
2.41291e+08
3.17635e+08
3.91401e+08
3.72431e+08
2.75086e+08
1.88928e+08
1.12125e+08
6.24939e+07
4.27463e+07
2.69776e+07
1.6471e+07
7.04737e+06
515514
122649
122500
122500
122500
122500
1.49365e+08
2.29258e+08
3.58285e+08
4.63255e+08
5.56664e+08
5.32124e+08
4.05207e+08
2.86596e+08
1.85478e+08
9.71183e+07
5.87767e+07
3.93154e+07
2.16243e+07
1.14531e+07
2.34256e+06
133218
122500
122500
122500
122500
2.41103e+08
3.5815e+08
5.74622e+08
7.58953e+08
8.74586e+08
8.43474e+08
6.75714e+08
4.65466e+08
2.91243e+08
1.47867e+08
7.89746e+07
4.95363e+07
2.2648e+07
1.15709e+07
3.60088e+06
168190
122503
122500
122500
122500
3.16857e+08
4.62268e+08
7.58097e+08
8.38868e+08
1.08775e+09
1.08592e+09
9.71123e+08
7.04331e+08
4.11283e+08
1.21743e+08
6.36749e+07
4.01196e+07
1.82499e+07
9.61186e+06
2.82125e+06
149968
122502
122500
122500
122500
3.91179e+08
5.55992e+08
8.72874e+08
1.07875e+09
1.70958e+08
5.07623e+07
3.08597e+07
2.2639e+07
1.46688e+07
9.61848e+06
2.16251e+06
133698
122500
122500
122500
122500
3.72543e+08
5.32184e+08
8.43669e+08
1.08662e+09
3.07033e+07
2.28781e+07
2.4e+07
2.32502e+07
1.74855e+07
7.25469e+06
668022
122861
122500
122500
122500
122500
2.75032e+08
4.05213e+08
6.75917e+08
9.71287e+08
8.47863e+06
1.50351e+07
1.91963e+07
1.96267e+07
9.67752e+06
1.59713e+06
127037
122500
122500
122500
122500
122500
1.88948e+08
2.86698e+08
4.65684e+08
7.05611e+08
1.33173e+07
1.00079e+07
1.05416e+07
6.66269e+06
1.40751e+06
129603
122500
122500
122500
122500
122500
122500
1.12141e+08
1.85512e+08
2.90524e+08
4.05154e+08
1.68498e+08
3.18943e+07
8.60719e+06
1.20821e+07
1.77915e+06
3.0637e+06
2.28915e+06
574846
125637
122500
122500
122500
122500
122500
122500
122500
6.24885e+07
9.70264e+07
1.4724e+08
1.21523e+08
5.22495e+07
2.35844e+07
1.50743e+07
1.00952e+07
3.1844e+06
273515
141274
122790
122500
122500
122500
122500
122500
122500
122500
122500
4.27558e+07
5.87417e+07
7.87756e+07
6.38023e+07
3.15201e+07
2.44126e+07
1.95149e+07
1.07094e+07
2.36278e+06
142754
122502
122500
122500
122500
122500
122500
122500
122500
122500
122500
2.69827e+07
3.92951e+07
4.94644e+07
4.02338e+07
2.30236e+07
2.35192e+07
1.98243e+07
6.72987e+06
582034
122798
122500
122500
122500
122500
122500
122500
122500
122500
122500
122500
1.64685e+07
2.16141e+07
2.26488e+07
1.83318e+07
1.48188e+07
1.76107e+07
9.72341e+06
1.41533e+06
125659
122500
122500
122500
122500
122500
122500
122500
122500
122500
122500
122500
7.03719e+06
1.14441e+07
1.15724e+07
9.64608e+06
9.66486e+06
7.29054e+06
1.60445e+06
129643
122500
122500
122500
122500
122500
122500
122500
122500
122500
122500
122500
122500
513157
2.33462e+06
3.59403e+06
2.83161e+06
2.18047e+06
674067
127081
122500
122500
122500
122500
122500
122500
122500
122500
122500
122500
122500
122500
122500
122647
133114
167884
150182
133930
122869
122500
122500
122500
122500
122500
122500
122500
122500
122500
122500
122500
122500
122500
122500
122500
122500
122503
122502
122500
122500
122500
122500
122500
122500
122500
122500
122500
122500
122500
122500
122500
122500
122500
122500
122500
122500
122500
122500
122500
122500
122500
122500
122500
122500
122500
122500
122500
122500
122500
122500
122500
122500
122500
122500
122500
122500
122500
122500
122500
122500
122500
122500
122500
122500
122500
122500
122500
122500
122500
122500
122500
122500
122500
122500
122500
122500
122500
122500
122500
122500
122500
122500
122500
122500
122500
122500
122500
122500
122500
122500
122500
122500
122500
122500
9.76983e+07
1.56054e+08
2.54188e+08
3.35406e+08
4.12759e+08
3.93918e+08
2.94403e+08
2.06074e+08
1.24024e+08
6.79416e+07
4.56938e+07
2.84461e+07
1.70743e+07
7.55522e+06
612779
122732
122500
122500
122500
122500
1.55963e+08
2.41006e+08
3.77202e+08
4.86966e+08
5.78555e+08
5.50655e+08
4.26753e+08
3.11735e+08
2.07657e+08
1.10233e+08
6.39941e+07
4.24456e+07
2.28476e+07
1.20369e+07
2.67392e+06
137773
122500
122500
122500
122500
2.53969e+08
3.7703e+08
5.98684e+08
7.84219e+08
8.94283e+08
8.58901e+08
7.00814e+08
5.03421e+08
3.27567e+08
1.71395e+08
8.88824e+07
5.47636e+07
2.48018e+07
1.20602e+07
4.0684e+06
188589
122506
122500
122500
122500
3.34442e+08
4.85612e+08
7.82465e+08
8.53097e+08
1.1112e+09
1.11481e+09
1.00818e+09
7.54464e+08
4.51383e+08
1.53418e+08
8.0543e+07
4.94239e+07
2.18278e+07
1.03903e+07
3.34921e+06
166780
122504
122500
122500
122500
4.1251e+08
5.78061e+08
8.93891e+08
1.10218e+09
1.83533e+08
6.9547e+07
4.10429e+07
2.89222e+07
1.7212e+07
1.06631e+07
2.80057e+06
144615
122501
122500
122500
122500
3.94114e+08
5.50934e+08
8.59919e+08
1.11692e+09
4.13967e+07
3.19387e+07
3.11337e+07
2.83201e+07
2.01185e+07
8.77881e+06
1.02597e+06
123579
122500
122500
122500
122500
2.94428e+08
4.26828e+08
7.0092e+08
1.00889e+09
1.38342e+07
1.9463e+07
2.39057e+07
2.35055e+07
1.20312e+07
2.45597e+06
135957
122500
122500
122500
122500
122500
2.06084e+08
3.11726e+08
5.03826e+08
7.55448e+08
1.45989e+07
1.21552e+07
1.2861e+07
8.6335e+06
2.239e+06
143790
122501
122500
122500
122500
122500
122500
1.2394e+08
2.0766e+08
3.29827e+08
4.54457e+08
1.86381e+08
4.12861e+07
1.3671e+07
1.48518e+07
9.30657e+06
4.21131e+06
3.31321e+06
950201
132550
122501
122500
122500
122500
122500
122500
122500
6.78713e+07
1.10455e+08
1.73271e+08
1.55609e+08
6.72719e+07
3.09525e+07
1.93855e+07
1.17203e+07
3.73424e+06
424959
172957
123542
122500
122500
122500
122500
122500
122500
122500
122500
4.55974e+07
6.39676e+07
8.93991e+07
8.06666e+07
4.01272e+07
3.07149e+07
2.33129e+07
1.22301e+07
2.92888e+06
158622
122508
122500
122500
122500
122500
122500
122500
122500
122500
122500
2.83725e+07
4.24117e+07
5.48942e+07
4.92991e+07
2.84378e+07
2.80449e+07
2.2972e+07
8.23311e+06
863007
123325
122500
122500
122500
122500
122500
122500
122500
122500
122500
122500
1.70537e+07
2.28233e+07
2.48094e+07
2.17552e+07
1.70405e+07
1.99422e+07
1.18396e+07
2.13949e+06
131549
122500
122500
122500
122500
122500
122500
122500
122500
122500
122500
122500
7.56586e+06
1.20402e+07
1.2044e+07
1.03647e+07
1.06329e+07
8.74852e+06
2.41471e+06
142641
122501
122500
122500
122500
122500
122500
122500
122500
122500
122500
122500
122500
615893
2.68482e+06
4.08295e+06
3.36737e+06
2.8112e+06
1.02666e+06
135634
122501
122500
122500
122500
122500
122500
122500
122500
122500
122500
122500
122500
122500
122735
137975
189703
167868
145005
123590
122500
122500
122500
122500
122500
122500
122500
122500
122500
122500
122500
122500
122500
122500
122500
122500
122506
122504
122501
122500
122500
122500
122500
122500
122500
122500
122500
122500
122500
122500
122500
122500
122500
122500
122500
122500
122500
122500
122500
122500
122500
122500
122500
122500
122500
122500
122500
122500
122500
122500
122500
122500
122500
122500
122500
122500
122500
122500
122500
122500
122500
122500
122500
122500
122500
122500
122500
122500
122500
122500
122500
122500
122500
122500
122500
122500
122500
122500
122500
122500
122500
122500
122500
122500
122500
122500
122500
122500
122500
122500
122500
122500
122500
122500
9.96421e+07
1.60688e+08
2.65928e+08
3.53335e+08
4.38737e+08
4.24999e+08
3.19073e+08
2.23287e+08
1.32774e+08
7.14989e+07
4.76613e+07
2.94268e+07
1.75078e+07
7.77092e+06
644115
122762
122500
122500
122500
122500
1.60725e+08
2.50956e+08
4.01509e+08
5.28854e+08
6.33456e+08
6.07949e+08
4.73908e+08
3.45097e+08
2.26031e+08
1.1828e+08
6.74755e+07
4.44888e+07
2.37084e+07
1.23676e+07
2.79201e+06
139358
122500
122500
122500
122500
2.66032e+08
4.01721e+08
6.47484e+08
8.49996e+08
9.65505e+08
9.34814e+08
7.84128e+08
5.8124e+08
3.71705e+08
1.87047e+08
9.42964e+07
5.76924e+07
2.5953e+07
1.23949e+07
4.23467e+06
195124
122507
122500
122500
122500
3.53402e+08
5.29439e+08
8.51204e+08
8.98789e+08
1.16004e+09
1.17226e+09
1.07546e+09
8.62533e+08
5.44255e+08
1.71406e+08
8.58898e+07
5.22475e+07
2.29292e+07
1.072e+07
3.50434e+06
171672
122504
122500
122500
122500
4.39562e+08
6.34603e+08
9.66747e+08
1.16579e+09
2.23365e+08
7.61894e+07
4.34461e+07
3.04258e+07
1.79714e+07
1.10175e+07
2.95688e+06
147569
122501
122500
122500
122500
4.2565e+08
6.0892e+08
9.35639e+08
1.1729e+09
5.39756e+07
3.34789e+07
3.26635e+07
2.97336e+07
2.10052e+07
9.17289e+06
1.1069e+06
123781
122500
122500
122500
122500
3.1944e+08
4.74492e+08
7.8486e+08
1.07624e+09
1.55051e+07
2.03683e+07
2.51932e+07
2.47588e+07
1.26216e+07
2.63845e+06
138327
122500
122500
122500
122500
122500
2.23299e+08
3.45108e+08
5.81599e+08
8.6341e+08
1.4105e+07
1.26942e+07
1.34527e+07
9.0555e+06
2.40394e+06
147423
122502
122500
122500
122500
122500
122500
1.32732e+08
2.26068e+08
3.73798e+08
5.53306e+08
2.21438e+08
4.99022e+07
1.4472e+07
1.60198e+07
1.14636e+07
4.39621e+06
3.47822e+06
1.01786e+06
134253
122501
122500
122500
122500
122500
122500
122500
7.15386e+07
1.18565e+08
1.88818e+08
1.74664e+08
7.64356e+07
3.31514e+07
2.01201e+07
1.21395e+07
3.99656e+06
467104
178200
123707
122500
122500
122500
122500
122500
122500
122500
122500
4.76838e+07
6.76266e+07
9.50477e+07
8.68855e+07
4.35e+07
3.26911e+07
2.4676e+07
1.29079e+07
3.19403e+06
167560
122510
122500
122500
122500
122500
122500
122500
122500
122500
122500
2.94511e+07
4.46057e+07
5.80578e+07
5.26959e+07
3.04902e+07
2.97522e+07
2.43841e+07
8.79221e+06
967821
123579
122500
122500
122500
122500
122500
122500
122500
122500
122500
122500
1.75439e+07
2.37919e+07
2.61131e+07
2.31098e+07
1.80223e+07
2.10051e+07
1.25702e+07
2.3739e+06
134024
122500
122500
122500
122500
122500
122500
122500
122500
122500
122500
122500
7.81691e+06
1.24242e+07
1.24417e+07
1.07716e+07
1.10646e+07
9.22565e+06
2.65675e+06
147761
122501
122500
122500
122500
122500
122500
122500
122500
122500
122500
122500
122500
653553
2.82573e+06
4.28074e+06
3.55345e+06
3.00173e+06
1.129e+06
138872
122502
122500
122500
122500
122500
122500
122500
122500
122500
122500
122500
122500
122500
122772
139919
197654
173838
148721
123856
122501
122500
122500
122500
122500
122500
122500
122500
122500
122500
122500
122500
122500
122500
122500
122501
122508
122505
122501
122500
122500
122500
122500
122500
122500
122500
122500
122500
122500
122500
122500
122500
122500
122500
122500
122500
122500
122500
122500
122500
122500
122500
122500
122500
122500
122500
122500
122500
122500
122500
122500
122500
122500
122500
122500
122500
122500
122500
122500
122500
122500
122500
122500
122500
122500
122500
122500
122500
122500
122500
122500
122500
122500
122500
122500
122500
122500
122500
122500
122500
122500
122500
122500
122500
122500
122500
122500
122500
122500
122500
122500
122500
122500
122500
9.99992e+07
1.61633e+08
2.68887e+08
3.59399e+08
4.49003e+08
4.36313e+08
3.2649e+08
2.27373e+08
1.34353e+08
7.20411e+07
4.79822e+07
2.96228e+07
1.75981e+07
7.79821e+06
646719
122764
122500
122500
122500
122500
1.61585e+08
2.53261e+08
4.10183e+08
5.47947e+08
6.63805e+08
6.39666e+08
4.941e+08
3.54092e+08
2.29277e+08
1.19242e+08
6.79476e+07
4.47915e+07
2.38618e+07
1.24187e+07
2.80216e+06
139451
122500
122500
122500
122500
2.68731e+08
4.10028e+08
6.73639e+08
9.01648e+08
1.03366e+09
1.00661e+09
8.43153e+08
6.1206e+08
3.80417e+08
1.88408e+08
9.4681e+07
5.79644e+07
2.60914e+07
1.24485e+07
4.2464e+06
195306
122507
122500
122500
122500
3.58712e+08
5.46692e+08
9.00432e+08
1.00136e+09
1.28845e+09
1.30663e+09
1.22836e+09
9.94283e+08
5.93115e+08
1.7234e+08
8.59908e+07
5.23434e+07
2.3011e+07
1.0769e+07
3.51651e+06
171891
122504
122500
122500
122500
4.48993e+08
6.63275e+08
1.03254e+09
1.28209e+09
2.34092e+08
7.64758e+07
4.32866e+07
3.03811e+07
1.80264e+07
1.1053e+07
2.95934e+06
147527
122501
122500
122500
122500
4.36698e+08
6.40368e+08
1.00757e+09
1.30586e+09
4.86808e+07
3.28803e+07
3.23732e+07
2.96462e+07
2.10182e+07
9.15869e+06
1.10048e+06
123759
122500
122500
122500
122500
3.26731e+08
4.94591e+08
8.44012e+08
1.2293e+09
1.42619e+07
1.99553e+07
2.48929e+07
2.45995e+07
1.25404e+07
2.60925e+06
137867
122500
122500
122500
122500
122500
2.27455e+08
3.5431e+08
6.12774e+08
9.96063e+08
1.6307e+07
1.24204e+07
1.32946e+07
8.95196e+06
2.3648e+06
146534
122502
122500
122500
122500
122500
122500
1.34354e+08
2.29362e+08
3.81452e+08
5.94289e+08
2.34795e+08
5.02823e+07
1.46932e+07
1.52054e+07
1.15906e+07
4.32486e+06
3.41082e+06
992508
133714
122501
122500
122500
122500
122500
122500
122500
7.20576e+07
1.19353e+08
1.89181e+08
1.73796e+08
7.73138e+07
3.3376e+07
2.01496e+07
1.23594e+07
4.16924e+06
477514
174893
123628
122500
122500
122500
122500
122500
122500
122500
122500
4.80006e+07
6.8012e+07
9.50357e+07
8.6547e+07
4.36904e+07
3.27858e+07
2.50011e+07
1.32052e+07
3.3291e+06
172388
122510
122500
122500
122500
122500
122500
122500
122500
122500
122500
2.96609e+07
4.48759e+07
5.81822e+07
5.26355e+07
3.06351e+07
2.99011e+07
2.47185e+07
8.96517e+06
999955
123660
122500
122500
122500
122500
122500
122500
122500
122500
122500
122500
1.76429e+07
2.39472e+07
2.62289e+07
2.31577e+07
1.8154e+07
2.11757e+07
1.26951e+07
2.41899e+06
134486
122500
122500
122500
122500
122500
122500
122500
122500
122500
122500
122500
7.84488e+06
1.24781e+07
1.25e+07
1.08161e+07
1.11316e+07
9.28715e+06
2.68771e+06
148451
122501
122500
122500
122500
122500
122500
122500
122500
122500
122500
122500
122500
655871
2.83571e+06
4.29249e+06
3.5616e+06
3.02137e+06
1.13964e+06
139217
122502
122500
122500
122500
122500
122500
122500
122500
122500
122500
122500
122500
122500
122774
139999
197748
173857
149038
123881
122501
122500
122500
122500
122500
122500
122500
122500
122500
122500
122500
122500
122500
122500
122500
122501
122508
122505
122501
122500
122500
122500
122500
122500
122500
122500
122500
122500
122500
122500
122500
122500
122500
122500
122500
122500
122500
122500
122500
122500
122500
122500
122500
122500
122500
122500
122500
122500
122500
122500
122500
122500
122500
122500
122500
122500
122500
122500
122500
122500
122500
122500
122500
122500
122500
122500
122500
122500
122500
122500
122500
122500
122500
122500
122500
122500
122500
122500
122500
122500
122500
122500
122500
122500
122500
122500
122500
122500
122500
122500
122500
122500
122500
122500
9.99986e+07
1.61668e+08
2.68989e+08
3.59657e+08
4.4913e+08
4.36356e+08
3.26536e+08
2.27406e+08
1.34378e+08
7.20519e+07
4.79931e+07
2.9631e+07
1.76006e+07
7.79873e+06
646746
122764
122500
122500
122500
122500
1.61552e+08
2.53264e+08
4.1029e+08
5.4833e+08
6.64079e+08
6.39723e+08
4.94126e+08
3.54135e+08
2.2928e+08
1.19195e+08
6.79346e+07
4.4783e+07
2.38571e+07
1.24185e+07
2.80207e+06
139447
122500
122500
122500
122500
2.68655e+08
4.10028e+08
6.73734e+08
9.02146e+08
1.03409e+09
1.00651e+09
8.43307e+08
6.11994e+08
3.7987e+08
1.88036e+08
9.4583e+07
5.79277e+07
2.6084e+07
1.2449e+07
4.24705e+06
195308
122507
122500
122500
122500
3.5851e+08
5.46627e+08
9.00458e+08
1.01603e+09
1.32012e+09
1.34038e+09
1.25035e+09
9.98667e+08
5.90972e+08
1.71925e+08
8.59772e+07
5.23676e+07
2.30348e+07
1.07823e+07
3.5228e+06
172094
122504
122500
122500
122500
4.48961e+08
6.63235e+08
1.03217e+09
1.3091e+09
2.33298e+08
7.66916e+07
4.34323e+07
3.0459e+07
1.80656e+07
1.10687e+07
2.96757e+06
147703
122501
122500
122500
122500
4.3666e+08
6.40333e+08
1.00779e+09
1.34232e+09
5.04246e+07
3.31156e+07
3.2439e+07
2.96525e+07
2.10204e+07
9.16103e+06
1.1008e+06
123759
122500
122500
122500
122500
3.26666e+08
4.94521e+08
8.43887e+08
1.25143e+09
1.46431e+07
1.99945e+07
2.49804e+07
2.46129e+07
1.25267e+07
2.60267e+06
137747
122500
122500
122500
122500
122500
2.27415e+08
3.5423e+08
6.12871e+08
1.00122e+09
1.47858e+07
1.25531e+07
1.3378e+07
8.96547e+06
2.36046e+06
146303
122501
122500
122500
122500
122500
122500
1.34319e+08
2.29378e+08
3.81956e+08
6.02001e+08
2.39474e+08
4.90599e+07
1.46205e+07
1.58666e+07
1.25028e+07
4.39497e+06
3.4538e+06
995496
133620
122501
122500
122500
122500
122500
122500
122500
7.20502e+07
1.19427e+08
1.89659e+08
1.74327e+08
7.6129e+07
3.30238e+07
2.01408e+07
1.23818e+07
4.18726e+06
487451
176720
123633
122500
122500
122500
122500
122500
122500
122500
122500
4.79922e+07
6.80567e+07
9.52978e+07
8.68348e+07
4.35315e+07
3.26573e+07
2.48979e+07
1.31603e+07
3.31723e+06
171443
122510
122500
122500
122500
122500
122500
122500
122500
122500
122500
2.96468e+07
4.4903e+07
5.8312e+07
5.27864e+07
3.05788e+07
2.98804e+07
2.46374e+07
8.91564e+06
985409
123613
122500
122500
122500
122500
122500
122500
122500
122500
122500
122500
1.76356e+07
2.39526e+07
2.62601e+07
2.31942e+07
1.81469e+07
2.11448e+07
1.26304e+07
2.38771e+06
134044
122500
122500
122500
122500
122500
122500
122500
122500
122500
122500
122500
7.839e+06
1.24746e+07
1.25004e+07
1.08156e+07
1.11207e+07
9.25708e+06
2.66111e+06
147651
122501
122500
122500
122500
122500
122500
122500
122500
122500
122500
122500
122500
654765
2.83336e+06
4.29084e+06
3.55788e+06
3.01023e+06
1.1299e+06
138773
122502
122500
122500
122500
122500
122500
122500
122500
122500
122500
122500
122500
122500
122772
139960
197625
173649
148725
123849
122500
122500
122500
122500
122500
122500
122500
122500
122500
122500
122500
122500
122500
122500
122500
122501
122508
122505
122501
122500
122500
122500
122500
122500
122500
122500
122500
122500
122500
122500
122500
122500
122500
122500
122500
122500
122500
122500
122500
122500
122500
122500
122500
122500
122500
122500
122500
122500
122500
122500
122500
122500
122500
122500
122500
122500
122500
122500
122500
122500
122500
122500
122500
122500
122500
122500
122500
122500
122500
122500
122500
122500
122500
122500
122500
122500
122500
122500
122500
122500
122500
122500
122500
122500
122500
122500
122500
122500
122500
122500
122500
122500
122500
122500
9.96597e+07
1.60803e+08
2.66194e+08
3.54014e+08
4.39148e+08
4.25157e+08
3.19157e+08
2.23306e+08
1.32794e+08
7.15402e+07
4.7708e+07
2.94612e+07
1.75163e+07
7.76955e+06
643608
122761
122500
122500
122500
122500
1.60683e+08
2.5103e+08
4.01851e+08
5.30048e+08
6.34184e+08
6.08047e+08
4.73955e+08
3.45078e+08
2.25952e+08
1.18216e+08
6.7491e+07
4.44866e+07
2.36961e+07
1.23603e+07
2.78733e+06
139275
122500
122500
122500
122500
2.65889e+08
4.01698e+08
6.47729e+08
8.51486e+08
9.66621e+08
9.3468e+08
7.84307e+08
5.80953e+08
3.70918e+08
1.86467e+08
9.40924e+07
5.75894e+07
2.59123e+07
1.23847e+07
4.22646e+06
194671
122507
122500
122500
122500
3.52864e+08
5.28679e+08
8.50233e+08
9.63023e+08
1.22901e+09
1.23352e+09
1.15733e+09
9.55717e+08
5.8648e+08
1.71033e+08
8.57731e+07
5.21923e+07
2.29319e+07
1.07402e+07
3.51096e+06
171840
122504
122500
122500
122500
4.39148e+08
6.33808e+08
9.65388e+08
1.21912e+09
2.32803e+08
7.64749e+07
4.33673e+07
3.0394e+07
1.79949e+07
1.10345e+07
2.96192e+06
147668
122501
122500
122500
122500
4.25464e+08
6.08812e+08
9.35872e+08
1.23527e+09
5.03304e+07
3.31711e+07
3.24371e+07
2.95803e+07
2.09395e+07
9.14224e+06
1.09973e+06
123760
122500
122500
122500
122500
3.19339e+08
4.74449e+08
7.84948e+08
1.15762e+09
1.46487e+07
2.00436e+07
2.49557e+07
2.45361e+07
1.25059e+07
2.60108e+06
137762
122500
122500
122500
122500
122500
2.23393e+08
3.4535e+08
5.81868e+08
9.57973e+08
1.52497e+07
1.25805e+07
1.33869e+07
8.96759e+06
2.36117e+06
146344
122502
122500
122500
122500
122500
122500
1.32777e+08
2.26039e+08
3.72068e+08
5.87953e+08
2.32178e+08
5.10814e+07
1.47623e+07
1.47823e+07
1.27973e+07
4.42114e+06
3.46725e+06
997949
133659
122501
122500
122500
122500
122500
122500
122500
7.15232e+07
1.18294e+08
1.87242e+08
1.72529e+08
7.72621e+07
3.33709e+07
2.00888e+07
1.24392e+07
4.25346e+06
503656
177400
123641
122500
122500
122500
122500
122500
122500
122500
122500
4.76911e+07
6.75016e+07
9.43671e+07
8.62266e+07
4.36291e+07
3.26745e+07
2.49346e+07
1.32289e+07
3.37115e+06
174016
122510
122500
122500
122500
122500
122500
122500
122500
122500
122500
2.94602e+07
4.4515e+07
5.77219e+07
5.24146e+07
3.05489e+07
2.9738e+07
2.45704e+07
8.94883e+06
996585
123645
122500
122500
122500
122500
122500
122500
122500
122500
122500
122500
1.75313e+07
2.37326e+07
2.5987e+07
2.30253e+07
1.80501e+07
2.10304e+07
1.2594e+07
2.39147e+06
134119
122500
122500
122500
122500
122500
122500
122500
122500
122500
122500
122500
7.79245e+06
1.23883e+07
1.24074e+07
1.07605e+07
1.10696e+07
9.2182e+06
2.64944e+06
147542
122501
122500
122500
122500
122500
122500
122500
122500
122500
122500
122500
122500
648371
2.80575e+06
4.25243e+06
3.53471e+06
2.99292e+06
1.12346e+06
138620
122502
122500
122500
122500
122500
122500
122500
122500
122500
122500
122500
122500
122500
122766
139583
196126
172929
148451
123835
122500
122500
122500
122500
122500
122500
122500
122500
122500
122500
122500
122500
122500
122500
122500
122501
122507
122504
122501
122500
122500
122500
122500
122500
122500
122500
122500
122500
122500
122500
122500
122500
122500
122500
122500
122500
122500
122500
122500
122500
122500
122500
122500
122500
122500
122500
122500
122500
122500
122500
122500
122500
122500
122500
122500
122500
122500
122500
122500
122500
122500
122500
122500
122500
122500
122500
122500
122500
122500
122500
122500
122500
122500
122500
122500
122500
122500
122500
122500
122500
122500
122500
122500
122500
122500
122500
122500
122500
122500
122500
122500
122500
122500
122500
9.76994e+07
1.56065e+08
2.54186e+08
3.35513e+08
4.1264e+08
3.93777e+08
2.94318e+08
2.06074e+08
1.23996e+08
6.79173e+07
4.56895e+07
2.84538e+07
1.70729e+07
7.54816e+06
611342
122731
122500
122500
122500
122500
1.55959e+08
2.4102e+08
3.77251e+08
4.87126e+08
5.78641e+08
5.50524e+08
4.2661e+08
3.11708e+08
2.0747e+08
1.10066e+08
6.39171e+07
4.23812e+07
2.28102e+07
1.20214e+07
2.66453e+06
137625
122500
122500
122500
122500
2.53971e+08
3.77045e+08
5.98789e+08
7.84238e+08
8.94775e+08
8.58965e+08
7.00634e+08
5.03283e+08
3.26768e+08
1.70607e+08
8.84143e+07
5.45006e+07
2.46913e+07
1.20333e+07
4.04987e+06
187717
122506
122500
122500
122500
3.34264e+08
4.8552e+08
7.82893e+08
8.85695e+08
1.14059e+09
1.14678e+09
1.04624e+09
8.05133e+08
4.9945e+08
1.52102e+08
7.95877e+07
4.8872e+07
2.16333e+07
1.03609e+07
3.33731e+06
166403
122504
122500
122500
122500
4.12597e+08
5.77955e+08
8.93394e+08
1.13077e+09
2.04928e+08
6.94812e+07
4.04984e+07
2.85114e+07
1.70008e+07
1.06021e+07
2.7789e+06
144243
122501
122500
122500
122500
3.94221e+08
5.51041e+08
8.59956e+08
1.14793e+09
5.02786e+07
3.14392e+07
3.06361e+07
2.78516e+07
1.98633e+07
8.69087e+06
1.00755e+06
123534
122500
122500
122500
122500
2.94496e+08
4.26956e+08
7.01247e+08
1.04706e+09
1.47348e+07
1.91215e+07
2.351e+07
2.31161e+07
1.18525e+07
2.39919e+06
135213
122500
122500
122500
122500
122500
2.06135e+08
3.11847e+08
5.03906e+08
8.07482e+08
1.47345e+07
1.19925e+07
1.27313e+07
8.50444e+06
2.1786e+06
142491
122501
122500
122500
122500
122500
122500
1.23962e+08
2.07599e+08
3.28313e+08
5.08841e+08
2.06246e+08
4.81293e+07
1.45759e+07
1.57847e+07
1.1971e+07
4.17279e+06
3.25802e+06
921482
131867
122501
122500
122500
122500
122500
122500
122500
6.78878e+07
1.10231e+08
1.71811e+08
1.53429e+08
6.79687e+07
3.11401e+07
1.91364e+07
1.17877e+07
3.98153e+06
449956
170382
123460
122500
122500
122500
122500
122500
122500
122500
122500
4.56519e+07
6.39654e+07
8.88971e+07
7.99539e+07
4.00728e+07
3.05089e+07
2.33085e+07
1.24837e+07
3.10504e+06
164571
122508
122500
122500
122500
122500
122500
122500
122500
122500
122500
2.84206e+07
4.24101e+07
5.47039e+07
4.89968e+07
2.83107e+07
2.77819e+07
2.29302e+07
8.33434e+06
884538
123368
122500
122500
122500
122500
122500
122500
122500
122500
122500
122500
1.70665e+07
2.2827e+07
2.47489e+07
2.16551e+07
1.69427e+07
1.98097e+07
1.17687e+07
2.13298e+06
131411
122500
122500
122500
122500
122500
122500
122500
122500
122500
122500
122500
7.55541e+06
1.20342e+07
1.20445e+07
1.03547e+07
1.05833e+07
8.66645e+06
2.37603e+06
141904
122501
122500
122500
122500
122500
122500
122500
122500
122500
122500
122500
122500
613139
2.67382e+06
4.06451e+06
3.34413e+06
2.77371e+06
1.00286e+06
134981
122501
122500
122500
122500
122500
122500
122500
122500
122500
122500
122500
122500
122500
122733
137780
188525
166780
144161
123523
122500
122500
122500
122500
122500
122500
122500
122500
122500
122500
122500
122500
122500
122500
122500
122500
122506
122504
122501
122500
122500
122500
122500
122500
122500
122500
122500
122500
122500
122500
122500
122500
122500
122500
122500
122500
122500
122500
122500
122500
122500
122500
122500
122500
122500
122500
122500
122500
122500
122500
122500
122500
122500
122500
122500
122500
122500
122500
122500
122500
122500
122500
122500
122500
122500
122500
122500
122500
122500
122500
122500
122500
122500
122500
122500
122500
122500
122500
122500
122500
122500
122500
122500
122500
122500
122500
122500
122500
122500
122500
122500
122500
122500
122500
9.4788e+07
1.49465e+08
2.41318e+08
3.17912e+08
3.91349e+08
3.72228e+08
2.74957e+08
1.88878e+08
1.12129e+08
6.24987e+07
4.27505e+07
2.69764e+07
1.64665e+07
7.04054e+06
514248
122648
122500
122500
122500
122500
1.49362e+08
2.29267e+08
3.58363e+08
4.63795e+08
5.56766e+08
5.319e+08
4.05042e+08
2.86491e+08
1.85513e+08
9.71232e+07
5.87882e+07
3.93129e+07
2.16094e+07
1.14419e+07
2.33622e+06
133141
122500
122500
122500
122500
2.41088e+08
3.5814e+08
5.74722e+08
7.595e+08
8.74276e+08
8.4308e+08
6.75475e+08
4.65218e+08
2.91189e+08
1.47814e+08
7.89911e+07
4.95411e+07
2.26368e+07
1.15628e+07
3.59131e+06
167806
122503
122500
122500
122500
3.16595e+08
4.61851e+08
7.57883e+08
8.57475e+08
1.09969e+09
1.09834e+09
9.92095e+08
7.33113e+08
4.37789e+08
1.21554e+08
6.3874e+07
4.02422e+07
1.82985e+07
9.62495e+06
2.81935e+06
149854
122502
122500
122500
122500
3.91261e+08
5.5601e+08
8.73382e+08
1.09172e+09
1.7392e+08
5.02974e+07
3.09786e+07
2.2764e+07
1.47607e+07
9.63742e+06
2.16361e+06
133687
122500
122500
122500
122500
3.72732e+08
5.32417e+08
8.44149e+08
1.09944e+09
3.71172e+07
2.29345e+07
2.4028e+07
2.33069e+07
1.74962e+07
7.24214e+06
664456
122855
122500
122500
122500
122500
2.75139e+08
4.0534e+08
6.76134e+08
9.92884e+08
1.23199e+07
1.50639e+07
1.92242e+07
1.96034e+07
9.6389e+06
1.5833e+06
126933
122500
122500
122500
122500
122500
1.89017e+08
2.86774e+08
4.65886e+08
7.35346e+08
1.3861e+07
1.0037e+07
1.06246e+07
6.66971e+06
1.39517e+06
129417
122500
122500
122500
122500
122500
122500
1.12146e+08
1.85562e+08
2.90874e+08
4.314e+08
1.77091e+08
3.8501e+07
1.21742e+07
1.31677e+07
5.71556e+06
3.1344e+06
2.32532e+06
573722
125556
122500
122500
122500
122500
122500
122500
122500
6.24736e+07
9.70449e+07
1.47601e+08
1.22006e+08