/*--------------------------------*- C++ -*----------------------------------*\
  =========                 |
  \\      /  F ield         | OpenFOAM: The Open Source CFD Toolbox
   \\    /   O peration     | Website:  https://openfoam.org
    \\  /    A nd           | Version:  9
     \\/     M anipulation  |
\*---------------------------------------------------------------------------*/
FoamFile
{
    format      ascii;
    class       surfaceScalarField;
    location    "0.0005";
    object      phi;
}
// * * * * * * * * * * * * * * * * * * * * * * * * * * * * * * * * * * * * * //

dimensions      [0 3 -1 0 0 0 0];

internalField   nonuniform List<scalar> 
28500
(
-631.239
-630.861
-6.12845
-455.33
-600.819
-9.23826
-299.75
-608.369
-14.1248
-128.314
-600.209
-21.1316
20.398
-612.725
-27.1226
169.009
-596.355
-34.8686
348.193
-574.601
-34.1115
512.134
-560.855
-33.9156
684.284
-558.353
-30.7917
881.951
-580.714
-25.0407
1065.08
-596.509
-21.6709
1106.89
-562.9
-19.0784
915.821
-486.773
-17.5786
195.399
-271.717
-9.46033
0.937694
-26.6572
-0.494535
4.80755e-06
-0.0237547
-0.000127736
1.34719e-11
-1.29754e-07
-2.3531e-10
0
-1.77636e-13
0
0
0
0
0
0
-601.118
-454.503
-9.4172
-426.675
-425.808
-14.6985
-273.217
-442.189
-22.3696
-112.245
-437.061
-33.7432
25.9865
-452.018
-42.0838
165.269
-433.644
-53.3445
333.59
-416.822
-52.9414
492.233
-390.082
-53.388
665.018
-369.618
-50.6007
851.921
-329.47
-44.422
1085.72
-302.66
-40.1921
1200.85
-282.211
-34.0112
1201.74
-264.358
-30
563.256
-186.1
-20.873
20.8694
-31.2301
-4.38634
0.00337487
-0.157035
-0.0144816
7.10706e-09
-4.76818e-06
-2.60942e-07
1.42109e-14
-6.60805e-12
-3.55271e-13
0
0
0
0
0
-608.519
-299.28
-14.3673
-442.922
-272.508
-22.4554
-280.727
-279.995
-34.004
-115.219
-70.1078
-53.7902
-74.2845
-71.1048
-74.7325
34.1353
-70.8826
-66.9844
-73.2831
-71.9778
-73.5203
188.968
-71.277
-81.0649
-66.8553
-72.2183
-66.9406
362.905
-68.6236
-83.9805
-60.7727
-69.9833
-61.3017
515.183
-58.9743
-86.4791
-50.7055
-61.0385
-52.5684
669.313
-48.6156
-77.4742
-50.8909
-50.9838
-55.2379
848.068
-131.651
-61.5782
1053.24
-78.0452
-50.1047
1216.9
-46.5384
-43.4724
1230.65
-36.994
-38.1587
736.684
-34.3916
-30.0255
53.1318
-14.4122
-9.0661
0.0332185
-0.0943616
-0.0870244
9.0707e-08
-3.31685e-06
-4.74426e-06
2.27374e-13
-4.08562e-12
-7.63123e-12
0
0
0
0
0
-599.668
-127.991
-21.2855
-437.339
-111.49
-33.7753
-69.8957
-114.473
-53.7867
-74.3311
-71.3594
-74.7665
-46.8852
-46.6915
-22.1964
-9.1155
-25.9345
29.2946
-13.7259
-13.4418
-13.3431
-13.7584
-11.911
32.9455
-34.0043
-13.9457
-14.3629
-14.4024
-13.9664
-55.378
73.8225
-36.7647
-12.6766
-13.3766
-13.4183
-12.6851
-94.5147
110.338
-37.7161
-10.1816
-11.1249
-11.1639
-10.1952
-127.678
144.745
-33.8652
-35.4432
857.423
111.316
-121.461
-172.645
-181.752
-172.514
-180.323
1036.85
153.085
-108.835
1176.24
182.281
-95.789
1185.1
184.219
-82.8424
652.655
133.714
-57.4071
38.1214
25.2008
-12.367
0.0170939
0.101086
-0.0744387
4.53224e-08
2.35857e-06
-3.0823e-06
1.13687e-13
3.78009e-12
-5.03775e-12
0
0
0
0
0
-612.845
20.4267
-27.5874
-451.944
26.062
-42.3435
-70.8403
34.1602
-67.2377
-73.1175
-71.958
-73.4304
-9.38373
-26.7069
30.5886
-13.8179
-13.5802
-13.7126
-13.6787
-11.3808
43.8919
13.5288
-10.0634
885.61
437.567
-112.885
-192.103
-195.022
-191.454
-198.27
1068.9
447.132
-101.301
1154.6
424.866
-89.4864
1131.73
381.146
-84.1206
490.795
220.256
-56.5404
16.3035
21.8126
-10.2701
0.0022809
0.0163098
-0.0311473
4.82486e-09
8.41533e-08
-5.80998e-07
7.10543e-15
1.13687e-13
-8.81073e-13
0
0
0
0
0
-596.242
168.945
-34.8479
-433.418
165.109
-53.3601
-71.1973
188.805
-81.1515
-66.7453
-72.1329
-66.8971
-11.7496
32.8425
-34.2118
-13.9096
-14.3099
-14.3636
-13.9146
-27.7695
52.7768
31.2236
-7.1207
957.493
665.81
-94.27
-229.639
-247.076
-233.283
-254.316
1013.19
633.127
-92.7328
1043.84
566.015
-91.114
890.53
441.607
-82.3992
179.279
131.298
-40.9652
0.648818
0.988988
-2.26986
2.91567e-06
2.29202e-05
-0.000645242
9.4218e-12
8.97415e-12
-1.21926e-09
0
0
0
0
0
0
0
0
-574.369
348.207
-34.1669
-416.675
333.559
-52.9497
-68.619
363.161
-83.9607
-60.7084
-69.9822
-61.2674
-55.3506
73.9479
-36.7743
-12.6774
-13.3698
-13.4128
-12.6839
-39.6827
63.4318
40.9734
-6.18698
872.705
750.883
-95.3954
-242.123
-209.389
-257.961
-234.012
847.335
672.592
-95.9458
756.032
556.2
-85.7453
295.654
207.884
-53.9277
4.33584
4.29247
-7.80987
9.43958e-05
0.000170254
-0.0102266
2.0151e-10
1.38769e-10
-8.86513e-08
0
0
-7.81597e-14
0
0
0
0
0
0
0
0
-560.811
511.683
-33.7299
-390.064
491.346
-53.1289
-58.7567
513.489
-86.0433
-50.3628
-60.8329
-52.1462
-94.7317
110.366
-37.6665
-10.0128
-11.0547
-11.1058
-10.0294
-45.069
23.5033
43.9017
-7.42745
545.911
447.9
-91.7714
-117.394
-59.8485
-142.953
-70.9085
452.478
353.916
-77.9187
184.807
116.109
-44.1843
4.25045
2.87005
-7.11183
0.000215
0.000204099
-0.0182287
5.35337e-10
4.98993e-10
-3.43946e-07
0
0
-3.19744e-13
0
0
0
0
0
0
0
0
0
0
0
-558.741
684.03
-30.7532
-369.59
664.506
-50.5528
-48.5878
668.465
-77.5278
-50.88
-50.9267
-55.1267
-125.691
-34.6845
144.656
-35.3383
-5.51197
14.8786
45.6286
-14.514
-27.8751
31.4372
52.6494
-6.39097
-39.7185
41.2528
63.3682
-5.96935
-45.3704
46.0267
27.3883
-7.27988
-1.17226
-2.69541
-2.02658
-1.74841
-0.231721
-1.15242
-1.58528
-1.33424
-2.3681
-3.79482
-2.57608
68.1064
21.059
-28.2749
-4.16602
-2.57882
-4.91863
-4.03209
39.06
10.1109
-17.5833
0.938188
0.314241
-2.35835
0.000113015
4.58983e-05
-0.00770437
3.5849e-10
4.30902e-10
-2.51337e-07
0
0
-7.38964e-13
0
0
0
0
0
0
0
0
0
0
0
0
0
0
-580.589
881.861
-25.2073
-329.594
851.805
-44.72
-129.626
847.69
-62.1515
113.844
855.797
-123.767
-172.473
-181.237
-172.304
-179.821
438.673
885.131
-115.903
-192.3
-195.24
-191.926
-198.816
670.678
956.178
-97.057
-229.111
-246.129
-232.447
-251.968
764.744
876.51
-91.3212
-241.851
-211.721
-258.185
-237.018
500.678
577.082
-86.6306
-128.823
-68.5814
-155.482
-82.4199
27.2811
81.3646
-28.2775
-5.02828
-3.2849
-7.53465
-4.66995
0.308483
0.3673
-0.726643
0.0155654
0.00176346
-0.0743675
1.21485e-05
1.75239e-06
-0.000631883
7.67173e-11
1.06311e-10
-3.80216e-08
0
0
-1.63425e-13
0
0
0
0
0
0
0
0
0
0
0
0
0
0
0
0
0
-595.888
1064.89
-22.0789
-302.365
1085.72
-40.929
-76.5799
1053.17
-51.0179
154.778
1036.65
-110.802
448.306
1068.51
-104.172
639.361
1013.27
-95.1951
683.709
850.345
-94.4163
379.209
464.841
-75.7893
12.2818
42.4728
-17.7686
0.00242787
0.0201085
-0.0881713
1.32304e-07
8.15147e-08
-6.72878e-06
-6.32383e-13
-8.52651e-13
-2.16043e-09
-1.35003e-13
2.34479e-13
2.84217e-14
0
0
0
0
0
0
0
0
0
0
0
0
0
0
0
0
0
0
0
0
-561.993
1106.64
-19.6047
-281.714
1200.24
-35.0997
-45.7107
1216.32
-45.1677
182.956
1176.25
-97.8597
426.771
1154.1
-92.0942
571.024
1043.56
-93.3547
561.788
758.776
-86.0863
120.254
186.336
-43.9356
0.348853
0.95145
-2.41846
2.08774e-06
1.25567e-05
-0.00071802
-2.089e-12
-4.61142e-12
-4.02811e-09
-4.77485e-12
-3.56692e-12
2.06057e-13
-7.10543e-15
-1.42109e-14
1.42109e-14
0
0
0
0
0
0
0
0
0
0
0
0
0
0
0
0
0
0
0
0
-485.93
914.74
-18.1131
-263.797
1200.74
-31.0843
-36.397
1229.79
-39.7888
184.415
1184.84
-84.7229
383.448
1131.13
-86.4251
445.356
890.184
-84.5887
208.757
295.266
-54.5716
2.91693
4.23462
-7.13443
4.63623e-05
0.000104296
-0.00780414
1.00471e-10
5.48397e-11
-4.92036e-08
-1.71241e-12
-3.24718e-12
4.26326e-14
-1.42109e-14
-1.42109e-14
1.42109e-14
0
0
0
0
0
0
0
0
0
0
0
0
0
0
0
0
0
0
0
0
0
0
0
-270.52
194.037
-9.70719
-185.331
559.797
-21.5594
-33.7077
733.265
-31.1685
133.836
650.483
-58.7054
220.649
489.454
-58.1952
131.55
177.71
-42.2943
4.2603
4.2984
-7.91553
0.00020179
0.000206665
-0.0183282
4.01876e-10
2.98655e-10
-2.45304e-07
-1.42109e-13
-1.42109e-13
-2.41585e-13
-7.10543e-14
-7.10543e-15
0
0
0
0
0
0
0
0
0
0
0
0
0
0
0
0
0
0
0
0
0
0
0
0
0
0
0
-26.2807
0.918797
-0.499608
-30.8337
20.4916
-4.49452
-14.2388
52.2443
-9.37825
25.0341
37.6766
-12.743
21.6389
16.0883
-10.6383
0.965083
0.627443
-2.341
0.000164625
9.10246e-05
-0.0103464
4.66081e-10
5.08507e-10
-3.21781e-07
-4.26326e-14
-2.84217e-14
-7.53175e-13
-2.13163e-14
-2.13163e-14
0
0
0
0
0
0
0
0
0
0
0
0
0
0
0
0
0
0
0
0
0
0
0
0
0
0
0
0
0
0
-0.023101
4.64465e-06
-0.000127041
-0.152057
0.00324998
-0.0145604
-0.0916197
0.0318164
-0.0883815
0.0988293
0.0165273
-0.0765157
0.0159367
0.00220668
-0.0323447
2.17807e-05
2.79749e-06
-0.000663607
1.31003e-10
1.89104e-10
-1.06238e-07
0
0
-6.60805e-13
0
-1.42109e-14
0
0
0
0
0
0
0
0
0
0
0
0
0
0
0
0
0
0
0
0
0
0
0
0
0
0
0
0
0
0
0
0
0
-1.24661e-07
1.31379e-11
-2.32347e-10
-4.52969e-06
6.81788e-09
-2.5756e-07
-3.16093e-06
8.64072e-08
-4.71805e-06
2.26739e-06
4.35952e-08
-3.13883e-06
8.0781e-08
4.63653e-09
-6.02827e-07
8.47677e-12
8.95994e-12
-1.25785e-09
0
0
-7.81597e-14
0
0
0
0
0
0
0
0
0
0
0
0
0
0
0
0
0
0
0
0
0
0
0
0
0
0
0
0
0
0
0
0
0
0
0
0
0
0
-1.7053e-13
0
0
-6.26699e-12
1.42109e-14
-3.55271e-13
-3.88667e-12
2.13163e-13
-7.56017e-12
3.60956e-12
1.13687e-13
-5.13012e-12
1.06581e-13
7.10543e-15
-9.09495e-13
0
0
0
0
0
0
0
0
0
0
0
0
0
0
0
0
0
0
0
0
0
0
0
0
0
0
0
0
0
0
0
0
0
0
0
0
0
0
0
0
0
0
0
0
0
0
0
0
0
0
0
0
0
0
0
0
0
0
0
0
0
0
0
0
0
0
0
0
0
0
0
0
0
0
0
0
0
0
0
0
0
0
0
0
0
0
0
0
0
0
0
0
0
0
0
0
0
0
0
0
0
0
0
0
0
0
0
0
0
0
0
0
0
0
0
0
0
0
0
0
0
0
0
0
0
0
0
0
0
0
0
0
0
0
0
0
0
0
0
0
0
0
-636.235
-635.714
-6.61737
-461.613
-608.259
-10.109
-305.763
-618.475
-15.7135
-132.626
-612.515
-22.8563
16.3116
-624.088
-29.4083
165.919
-610.698
-37.059
348.775
-591.599
-35.4487
515.045
-580.654
-33.4896
689.469
-578.061
-28.8934
885.664
-598.182
-22.7266
1071.36
-610.955
-19.5802
1117.42
-580.992
-16.895
947.725
-507.02
-15.4884
222.691
-295.871
-10.107
1.36957
-34.1448
-0.75274
9.60326e-06
-0.0386008
-0.000264461
2.21476e-11
-2.63213e-07
-5.42009e-10
0
-3.69482e-13
0
0
0
0
0
0
-608.681
-460.447
-10.3266
-435.768
-434.511
-15.9864
-281.734
-453.131
-24.2584
-119.546
-449.068
-34.8021
20.09
-462.319
-43.118
160.817
-447.004
-53.1989
331.759
-434.646
-51.7437
493.229
-414.377
-48.7942
669.851
-399.157
-42.2149
857.494
-359.964
-35.1283
1086.81
-327.029
-31.9459
1216.68
-300.337
-27.9093
1220.1
-277.423
-24.3296
629.031
-202.966
-17.5291
28.0758
-39.1351
-4.94265
0.00639357
-0.271784
-0.0245513
1.45285e-08
-1.13031e-05
-6.0512e-07
2.84217e-14
-1.61222e-11
-8.59757e-13
0
0
0
0
0
-618.697
-305.01
-16.0094
-454.224
-280.374
-24.3529
-292.759
-289.452
-35.3159
-128.726
-73.7998
-49.0743
-77.5801
-76.6857
-79.6472
25.1935
-74.6174
-58.6115
-76.8151
-77.5122
-79.3867
182.204
-75.8067
-67.5267
-70.9955
-79.0991
-74.1241
356.017
-74.741
-69.9427
-66.9845
-78.2776
-70.407
512.664
-67.2489
-68.4977
-60.0605
-71.2564
-64.9649
673.829
-57.4722
-54.8883
-59.9244
-60.9981
-65.5419
853.682
-166.532
-41.3403
1054.82
-102.745
-33.7149
1229.4
-63.054
-32.9841
1250.91
-49.4709
-29.043
805.955
-45.9057
-21.9399
69.4823
-18.6792
-8.82769
0.0667805
-0.17329
-0.136281
2.01192e-07
-8.74304e-06
-1.09657e-05
5.25802e-13
-1.13687e-11
-1.82894e-11
0
0
0
0
0
-611.775
-131.984
-23.305
-449.265
-117.695
-35.1393
-74.8155
-123.551
-49.3265
-78.3052
-77.8625
-80.2879
21.7135
-52.1966
-50.3576
-18.6716
24.5225
-13.6613
-21.0377
35.9684
-15.4693
-15.3049
-15.2226
-15.7337
30.0614
-7.81986
28.9822
-25.4643
-15.675
-15.7779
-15.3229
-16.1174
32.6814
-50.6326
69.7637
-27.4358
-14.9116
-15.1776
-14.4712
-15.5491
33.7541
-90.5286
107.495
-28.2284
-13.2993
-13.5461
-12.8681
-13.9458
-125.596
29.892
144.26
-45.5109
-24.4838
868.219
88.8294
-39.7856
-174.159
-184.492
-177.794
-188.027
1038.71
132.825
-28.6757
1189.94
166.14
-28.646
1204.88
170.939
-29.0138
724.323
135.369
-25.5053
51.3956
29.3857
-9.42224
0.0368096
0.179595
-0.112112
1.07161e-07
6.62251e-06
-7.81886e-06
2.91323e-13
1.06937e-11
-1.40119e-11
0
0
0
0
0
-624.278
16.3423
-29.6598
-461.709
20.2975
-42.9805
-74.4408
25.4409
-57.5894
-76.6987
-77.0096
-79.1769
23.8409
-13.2252
-20.2755
32.4288
-15.094
-14.3531
-14.9199
-14.5754
7.86617
-6.28359
44.6195
11.3459
-6.8453
900.443
416.977
-25.7609
-196.637
-204.728
-201.079
-206.968
1074.26
426.136
-17.6597
1182.49
419.058
-22.3934
1182.91
388.975
-25.56
610.206
239.563
-25.7907
29.9213
36.0168
-8.6392
0.00866788
0.0556237
-0.0597224
2.12364e-08
5.85833e-07
-2.153e-06
4.9738e-14
8.31335e-13
-3.46034e-12
0
0
0
0
0
-610.254
165.759
-36.9908
-446.369
160.498
-53.0982
-75.6795
181.908
-67.3172
-70.9513
-78.9384
-74.0847
30.0997
-7.83054
29.0327
-25.4046
-15.6918
-15.7959
-15.3364
-16.1351
5.39572
-24.7183
56.1106
28.2621
-5.15226
1001.04
684.91
-19.5185
-237.86
-256.842
-238.381
-255.37
1054.47
659.342
-17.881
1087.92
594.414
-25.3593
986.969
481.261
-31.2264
285.178
194.217
-24.3217
2.50903
3.72057
-3.10128
3.76548e-05
0.00025349
-0.00228435
6.89653e-11
1.23514e-10
-8.25179e-09
0
0
-1.42109e-14
0
0
0
0
0
-591.433
348.878
-35.5553
-434.67
331.768
-51.7924
-74.738
356.199
-69.9272
-66.9725
-78.2674
-70.4158
32.6744
-50.7253
69.8753
-27.3936
-14.9041
-15.1747
-14.4684
-15.5406
4.99841
-37.233
68.8801
40.7392
-4.37064
937.446
812.994
-22.9562
-271.751
-251.062
-272.137
-253.743
910.945
729.909
-30.8918
837.238
610.143
-36.6924
449.545
307.278
-29.7428
15.5008
14.809
-8.48197
0.00141482
0.00233729
-0.0344554
3.18824e-09
2.0668e-09
-6.17825e-07
7.10543e-15
0
-6.75016e-13
0
0
0
0
0
0
0
0
-580.6
514.903
-33.3039
-414.303
492.94
-48.5695
-67.0617
511.862
-68.3332
-59.863
-71.172
-64.7337
33.7125
-90.6852
107.488
-28.212
-13.1473
-13.5064
-12.6659
-13.8732
5.71089
-45.6953
50.8574
48.937
-4.87137
701.479
661.214
-33.7107
-180.673
-100.186
-189.584
-113.68
574.983
518.796
-34.5976
288.551
213.887
-26.9709
15.5982
10.7726
-7.96488
0.00342763
0.00328562
-0.061218
9.63461e-09
8.74569e-09
-2.43022e-06
2.13163e-14
1.42109e-14
-2.8848e-12
0
0
0
0
0
0
0
0
0
0
0
-578.285
689.398
-28.9615
-399.22
669.729
-42.2822
-57.281
673.734
-55.5443
-59.4454
-60.7956
-65.512
-123.628
29.6096
-45.8558
144.515
-24.6716
6.91677
-2.0426
12.8939
46.8776
-10.1413
5.75983
-25.0007
28.6073
55.6329
-5.18166
5.46412
-37.4607
40.8275
67.7097
-4.49853
5.00433
-46.4793
49.2435
54.0181
-4.36361
-21.5803
-27.9855
2.05609
2.35079
6.95887
-6.63204
-19.0591
-25.7591
-21.7653
-23.6232
-29.3073
-25.6236
149.184
70.8458
-20.1248
-13.2826
-11.0187
-21.9496
-14.4753
90.1489
33.84
-14.4286
4.2947
1.84285
-3.45335
0.00151088
0.000800872
-0.0273345
6.00524e-09
7.79607e-09
-1.89997e-06
2.13163e-14
2.13163e-14
-4.08562e-12
0
0
0
0
0
0
0
0
0
0
0
0
0
0
-598.156
885.632
-23.0975
-359.96
857.488
-35.719
-164.627
853.707
-42.8343
91.0619
867.906
-46.7359
-174.323
-184.191
-177.604
-188.098
418.086
900.017
-40.1641
-196.861
-204.872
-201.151
-207.267
687.673
1000.37
-26.3547
-236.318
-253.761
-238.157
-254.706
820.974
939.024
-23.6216
-271.242
-254.18
-272.474
-256.05
685.721
714.582
-26.6119
-191.654
-114.628
-195.196
-121.217
75.8742
156.565
-14.2035
-17.797
-10.6207
-22.6778
-14.2815
1.77735
1.84671
-1.15503
0.101488
0.018886
-0.187037
0.000160256
3.26174e-05
-0.00268339
1.2239e-09
1.83864e-09
-4.04972e-07
-7.10543e-15
0
-2.25242e-12
-7.10543e-15
0
0
0
0
0
0
0
0
0
0
0
0
0
0
0
0
-610.614
1071.24
-20.2864
-326.747
1086.83
-33.0862
-101.659
1054.84
-35.7325
134.302
1038.66
-34.4815
427.277
1073.35
-30.753
663.244
1053.78
-26.1539
736.983
910.931
-32.1361
530.411
578.904
-31.8027
35.598
92.1366
-12.3395
0.0210842
0.108603
-0.139035
8.83177e-07
4.95431e-07
-2.22901e-05
2.89759e-11
5.86056e-11
-9.51923e-09
-1.42109e-13
-2.91323e-13
-3.69482e-13
-7.10543e-14
-7.10543e-15
0
0
0
0
0
0
0
0
0
0
0
0
0
0
0
0
0
0
-580.63
1117.23
-17.9163
-300.019
1216.36
-29.5984
-62.761
1229.18
-35.6501
166.228
1190.29
-33.8038
419.954
1182.56
-31.0088
597.665
1087.05
-32.0541
613.632
837.078
-39.3857
215.388
288.879
-27.2476
1.88048
4.2773
-3.29378
3.43859e-05
0.000155306
-0.00231886
6.22933e-11
9.27258e-12
-6.10187e-09
-5.54934e-12
-4.22062e-12
5.68434e-14
-1.42109e-14
-1.49214e-13
7.10543e-15
0
0
0
0
0
0
0
0
0
0
0
0
0
0
0
0
0
0
0
0
-506.694
947.086
-16.7453
-277.25
1219.71
-26.2346
-49.6119
1250.53
-31.8185
170.495
1205.27
-33.3799
390.173
1183.04
-31.7768
483.98
987.467
-36.6047
308.428
449.306
-32.3009
10.7995
15.5543
-8.31535
0.000801278
0.0014534
-0.0271069
1.83088e-09
9.82084e-10
-3.44621e-07
-5.68434e-13
-3.83693e-13
-1.7053e-13
-2.84217e-13
-2.84217e-14
7.10543e-15
0
0
0
0
0
0
0
0
0
0
0
0
0
0
0
0
0
0
0
0
0
0
0
-295.406
221.961
-11.0706
-202.824
627.553
-19.2405
-45.9477
805.265
-24.1978
135.302
725.524
-28.6149
240.51
613.377
-29.6229
195.868
286.656
-27.1922
14.8929
15.5692
-9.15697
0.00328417
0.00340789
-0.0637953
7.52833e-09
5.41849e-09
-1.95991e-06
-1.84741e-13
-1.63425e-13
-2.20268e-12
-9.9476e-14
-1.91847e-13
0
0
0
0
0
0
0
0
0
0
0
0
0
0
0
0
0
0
0
0
0
0
0
0
0
0
0
-33.9511
1.35664
-0.829576
-39.0928
27.8944
-5.46787
-18.8009
69.2228
-9.77563
29.3714
51.6375
-10.4363
36.436
30.2932
-9.55775
3.79046
2.54717
-3.4031
0.00237234
0.00142882
-0.0367716
8.41674e-09
9.41866e-09
-2.53603e-06
-3.55271e-14
-2.13163e-14
-3.75877e-12
-2.84217e-14
-8.52651e-14
0
0
0
0
0
0
0
0
0
0
0
0
0
0
0
0
0
0
0
0
0
0
0
0
0
0
0
0
0
0
-0.0381323
9.43775e-06
-0.000291873
-0.270307
0.00630137
-0.0272792
-0.174745
0.0660521
-0.151806
0.18012
0.0371421
-0.125011
0.0572611
0.0089059
-0.0657433
0.000261986
3.88824e-05
-0.00249772
2.14518e-09
3.22778e-09
-6.55146e-07
1.42109e-14
2.13163e-14
-2.97717e-12
0
-2.13163e-14
0
0
0
0
0
0
0
0
0
0
0
0
0
0
0
0
0
0
0
0
0
0
0
0
0
0
0
0
0
0
0
0
0
-2.58374e-07
2.18492e-11
-5.99684e-10
-1.11929e-05
1.42981e-08
-6.732e-07
-8.82858e-06
1.98693e-07
-1.22406e-05
6.70457e-06
1.0824e-07
-8.79729e-06
6.14947e-07
2.18846e-08
-2.38012e-06
1.29148e-10
7.10116e-11
-9.04624e-09
0
7.10543e-15
-7.17648e-13
0
0
0
0
0
0
0
0
0
0
0
0
0
0
0
0
0
0
0
0
0
0
0
0
0
0
0
0
0
0
0
0
0
0
0
0
0
0
-3.62377e-13
0
0
-1.59659e-11
2.84217e-14
-9.59233e-13
-1.15534e-11
5.18696e-13
-2.04565e-11
1.08002e-11
2.91323e-13
-1.57883e-11
8.73968e-13
4.9738e-14
-3.82272e-12
0
0
-1.42109e-14
0
0
0
0
0
0
0
0
0
0
0
0
0
0
0
0
0
0
0
0
0
0
0
0
0
0
0
0
0
0
0
0
0
0
0
0
0
0
0
0
0
0
0
0
0
0
0
0
0
0
0
0
0
0
0
0
0
0
0
0
0
0
0
0
0
0
0
0
0
0
0
0
0
0
0
0
0
0
0
0
0
0
0
0
0
0
0
0
0
0
0
0
0
0
0
0
0
0
0
0
0
0
0
0
0
0
0
0
0
0
0
0
0
0
0
0
0
0
0
0
0
0
0
0
0
0
0
0
0
0
0
0
0
0
0
0
0
0
0
-641.518
-641.115
-1.68217
-468.934
-616.634
-2.73301
-312.779
-630.611
-5.33282
-137.508
-628.411
-8.86499
11.9415
-640.789
-12.5369
163.307
-631.161
-15.1555
350.761
-613.89
-12.9432
519.678
-603.296
-9.55021
695.544
-597.523
-6.21266
889.367
-612.238
-4.1484
1076.61
-621.799
-3.31967
1126.43
-594.27
-3.12501
975.234
-522.357
-3.00676
249.77
-315.384
-1.78607
1.90348
-41.2006
-0.129628
1.76797e-05
-0.0563625
-4.81645e-05
3.50298e-11
-4.54564e-07
-9.67049e-11
0
-6.39488e-13
0
0
0
0
0
0
-617.048
-467.942
-2.67674
-446.791
-445.577
-4.53733
-291.312
-468.08
-8.88119
-126.782
-469.786
-14.8278
14.5938
-483.12
-20.5892
157.86
-471.704
-23.6374
332.291
-463.115
-19.4898
497.348
-447.527
-13.4908
677.394
-432.478
-8.24043
864.225
-381.58
-5.39818
1088.56
-340.171
-4.41358
1228.76
-310.727
-3.97916
1234.05
-287.797
-3.82466
682.384
-218.931
-2.89664
35.3124
-46.5294
-0.766525
0.0104714
-0.415159
-0.00389223
2.50825e-08
-2.17526e-05
-9.96815e-08
5.68434e-14
-3.12923e-11
-1.27898e-13
0
0
0
0
0
-630.962
-312.357
-5.2119
-469.358
-290.416
-8.67801
-304.998
-302.549
-15.9638
-138.38
-79.2976
-24.4561
-82.6548
-82.191
-84.6189
19.3043
-80.2896
-31.7437
-82.8604
-82.8698
-85.394
179.583
-82.7312
-35.3042
-77.962
-85.544
-80.9407
354.524
-81.9198
-32.3394
-74.1171
-84.9571
-77.5452
516.147
-74.5473
-23.5049
-68.181
-78.0851
-72.4623
684.04
-62.959
-12.9591
-67.9245
-65.9946
-70.5234
864.17
-186.718
-6.75661
1059.38
-121.394
-4.51943
1237.57
-78.5865
-4.17669
1265.01
-60.2453
-4.02345
861.564
-54.3176
-3.21175
85.2359
-23.8332
-1.18996
0.112579
-0.292833
-0.0176571
3.63433e-07
-1.95663e-05
-1.49983e-06
9.59233e-13
-2.66098e-11
-2.33058e-12
0
0
0
0
0
-628.168
-137.025
-8.77509
-470.533
-125.374
-14.4858
-80.5012
-134.439
-24.3305
-83.2819
-82.8622
-84.9798
15.3156
-57.4523
-55.3679
-12.0906
17.5038
-16.6919
-14.1099
40.001
-16.9888
-16.8541
-16.7677
-17.1465
20.7961
-5.4441
27.0325
-16.2969
-17.5146
-17.5613
-17.1326
-17.9325
22.3108
-49.0252
68.7033
-17.1016
-16.7334
-17.071
-16.3385
-17.4433
22.8794
-90.0227
108.38
-17.0567
-15.1223
-15.3742
-14.6821
-15.7435
-128.383
19.2778
148.873
-50.7543
-11.218
890.254
84.0623
-8.68569
-180.17
-191.172
-183.26
-194.158
1049.82
124.466
-5.17162
1202.18
155.643
-4.38018
1224.08
163.705
-4.54364
794.606
136.383
-3.85669
67.5408
33.9342
-1.33006
0.0715862
0.278419
-0.0161641
2.25667e-07
1.47021e-05
-1.24447e-06
6.25278e-13
2.34124e-11
-2.02505e-12
0
0
0
0
0
-641.004
11.9806
-12.4035
-482.32
14.7893
-20.2611
-79.7701
19.4859
-31.4515
-82.5293
-82.3913
-85.0724
16.8473
-16.4001
-13.4076
36.321
-16.5545
-15.6474
-16.3066
-15.9025
4.8428
-5.85253
46.7382
10.5505
-3.40101
915.053
426.049
-7.84935
-204.267
-209.665
-206.92
-210.682
1078.78
433.735
-6.28733
1204.9
426.365
-6.35806
1208.84
398.815
-5.96645
710.86
260.156
-4.35449
45.8772
50.1862
-1.08263
0.0224766
0.130474
-0.00763173
6.0121e-08
2.15973e-06
-3.29124e-07
1.49214e-13
3.0127e-12
-4.76064e-13
0
0
0
0
0
-630.571
163.207
-15.1563
-470.907
157.607
-23.6542
-82.5408
179.408
-35.3039
-77.9305
-85.3999
-80.8938
20.7337
-5.40242
27.0674
-16.1892
-17.5234
-17.5606
-17.1424
-17.9313
1.20212
-24.1419
56.6364
28.1936
-1.07325
1012.12
694.869
-2.54303
-239.212
-255.489
-238.544
-253.341
1066.62
676.519
-4.2757
1107.88
616.685
-4.70947
1046.91
510.407
-4.38073
375.259
245.627
-2.42707
5.65659
8.14436
-0.301953
0.000183737
0.00106946
-0.000279015
2.92275e-10
7.6804e-10
-1.38272e-09
0
0
0
0
0
0
0
0
-613.957
351.092
-12.9738
-463.417
332.554
-19.5489
-81.9284
354.83
-32.4896
-74.1576
-84.9929
-77.6442
22.2439
-49.1337
68.7697
-17.0822
-16.7256
-17.0629
-16.3284
-17.4378
0.441561
-37.9624
68.2163
41.3282
-0.367818
953.101
834.869
-0.0581368
-271.566
-254.447
-272.675
-258.076
937.551
765.77
-1.60429
887.469
652.722
-2.75091
568.987
386.372
-2.18296
31.8353
29.638
-0.63266
0.00673583
0.0106847
-0.00364924
1.70035e-08
1.05685e-08
-9.94997e-08
2.84217e-14
7.10543e-15
-9.9476e-14
0
0
0
0
0
0
0
0
-603.072
520.077
-9.67359
-447.23
498.131
-13.6989
-74.6209
518.358
-23.8418
-68.2037
-78.3981
-72.5976
22.9084
-90.0674
108.42
-17.1269
-15.2546
-15.385
-14.7332
-15.7779
1.84288
-46.4775
54.4326
49.5482
-0.460749
737.49
759.321
1.7081
-198.96
-129.071
-204.914
-138.818
647.746
627.187
-0.578536
383.114
294.262
-1.11138
32.4889
22.7205
-0.458961
0.0169119
0.0160844
-0.00573024
5.12356e-08
4.64186e-08
-5.58729e-07
1.06581e-13
5.68434e-14
-4.68958e-13
0
0
0
0
0
0
0
0
0
0
0
-596.907
695.727
-6.29174
-433.097
677.718
-8.1961
-63.3098
684.498
-12.2017
-67.9651
-66.8043
-71.3729
-128.825
20.0273
-50.6547
149.038
-11.7898
5.09691
-5.74577
10.5392
46.6589
-3.86503
1.74754
-24.2166
28.2429
56.7172
-1.11021
0.690849
-38.0132
41.345
68.4036
-0.308279
2.10188
-46.6437
49.754
54.7316
-0.961287
-52.4733
-39.6187
7.87103
19.8601
21.8793
-5.92055
-42.8256
-51.7374
-42.7669
-39.9646
-40.0146
-40.4104
212.912
121.222
1.06746
-29.5127
-16.1075
-38.734
-17.6357
138.815
62.1107
-0.00887417
10.3364
4.78302
-0.10654
0.00726736
0.00420865
-0.00189533
3.27082e-08
4.28299e-08
-2.09022e-07
1.06581e-13
1.20792e-13
-6.18172e-13
0
0
0
0
0
0
0
0
0
0
0
0
0
0
-612.366
889.36
-4.12555
-382.175
864.238
-5.02242
-191.457
864.467
-5.72878
78.3955
893.209
-4.16033
-180.263
-191.208
-183.372
-194.608
422.914
915.876
-2.00675
-203.835
-209.376
-206.301
-210.404
690.466
1014.3
-0.636912
-240.157
-257.087
-240.241
-256.866
820.082
951.704
-3.28693
-272.833
-254.499
-272.976
-255.111
717.378
729.526
-7.56683
-193.631
-120.408
-194.607
-121.524
97.6246
182.576
-5.75984
-24.02
-17.7963
-25.4799
-22.0719
4.20746
3.43712
-0.273138
0.335364
0.0696688
0.00226836
0.000783389
0.000193597
-6.3014e-05
6.73734e-09
1.07269e-08
-1.63985e-08
2.84217e-14
7.10543e-14
-9.73444e-13
-7.10543e-15
0
0
0
0
0
0
0
0
0
0
0
0
0
0
0
0
-622.408
1076.68
-3.30355
-341.132
1088.47
-3.9343
-124.968
1059.62
-3.59456
120.308
1052.11
-1.70024
431.212
1081.14
-1.25685
670.422
1066.82
-1.36344
752.623
935.484
-5.38793
591.412
631.838
-8.08255
50.2713
124.308
-4.23379
0.0452502
0.207697
-0.0696199
2.49554e-06
1.71944e-06
-5.52703e-06
1.53634e-10
3.47477e-10
8.39307e-10
-1.20792e-13
-2.27374e-13
4.9738e-14
-6.39488e-14
-7.10543e-15
0
0
0
0
0
0
0
0
0
0
0
0
0
0
0
0
0
0
-595.125
1126.57
-3.25809
-311.974
1229.14
-3.72263
-80.9331
1237.92
-3.49688
153.609
1203.55
-1.94024
423.76
1207.53
-3.04759
609.835
1108.8
-3.39998
643.82
884.524
-5.93344
279.159
370.452
-5.75292
4.01896
9.22579
-0.973411
0.00014417
0.00059233
-0.00107392
2.71839e-10
8.18972e-11
-8.53731e-09
-3.44613e-12
-2.18847e-12
1.42109e-13
-2.13163e-14
-1.27898e-13
0
0
0
0
0
0
0
0
0
0
0
0
0
0
0
0
0
0
0
0
0
-523.133
975.68
-3.19841
-288.443
1234.52
-3.81057
-61.4235
1265.73
-3.76944
162.771
1225.67
-3.0468
395.908
1211.37
-4.32309
505.2
1047.64
-4.48674
380.191
564.931
-4.82767
21.4801
31.3993
-1.67316
0.00366259
0.0066165
-0.00882276
9.42388e-09
4.92552e-09
-2.45617e-07
-4.47642e-13
-2.91323e-13
-4.54747e-13
-2.41585e-13
-3.55271e-14
0
0
0
0
0
0
0
0
0
0
0
0
0
0
0
0
0
0
0
0
0
0
0
0
-316.204
250.534
-1.95698
-219.768
684.168
-3.02041
-55.3257
864.089
-3.15375
135.788
797.713
-2.91606
258.834
713.076
-3.98567
242.958
375.949
-3.59373
28.9539
31.363
-1.52251
0.0150345
0.0160223
-0.0172827
3.91295e-08
2.81254e-08
-7.25487e-07
-7.81597e-14
-9.23706e-14
-8.10019e-13
-8.52651e-14
-1.56319e-13
0
0
0
0
0
0
0
0
0
0
0
0
0
0
0
0
0
0
0
0
0
0
0
0
0
0
0
-41.4702
1.9249
-0.144736
-46.9948
35.6006
-0.846834
-24.2968
85.9337
-1.2778
33.8639
68.3873
-1.17071
50.3064
46.3752
-1.39912
8.10915
5.71332
-0.554694
0.0104129
0.00657384
-0.00914644
4.30282e-08
4.78383e-08
-9.94422e-07
7.10543e-14
7.10543e-14
-1.64846e-12
-2.13163e-14
-6.39488e-14
0
0
0
0
0
0
0
0
0
0
0
0
0
0
0
0
0
0
0
0
0
0
0
0
0
0
0
0
0
0
-0.0571418
1.80424e-05
-5.50996e-05
-0.424597
0.010683
-0.00447512
-0.304042
0.115454
-0.0199574
0.282175
0.0744504
-0.0152094
0.132594
0.0231507
-0.0122564
0.0010779
0.000187852
-0.00058401
1.07936e-08
1.6755e-08
-2.38404e-07
5.68434e-14
9.9476e-14
-1.12976e-12
0
-1.42109e-14
0
0
0
0
0
0
0
0
0
0
0
0
0
0
0
0
0
0
0
0
0
0
0
0
0
0
0
0
0
0
0
0
0
-4.64115e-07
3.55769e-11
-1.12578e-10
-2.25575e-05
2.56596e-08
-1.18083e-07
-2.06864e-05
3.7443e-07
-1.86798e-06
1.522e-05
2.36299e-07
-1.3233e-06
2.22662e-06
6.22475e-08
-5.64675e-07
7.82798e-10
3.00126e-10
-2.97014e-09
7.10543e-15
2.84217e-14
-2.55795e-13
0
0
0
0
0
0
0
0
0
0
0
0
0
0
0
0
0
0
0
0
0
0
0
0
0
0
0
0
0
0
0
0
0
0
0
0
0
0
-6.53699e-13
0
0
-3.25286e-11
5.68434e-14
-1.49214e-13
-2.83649e-11
9.9476e-13
-3.0127e-12
2.43574e-11
6.60805e-13
-2.29505e-12
3.1406e-12
1.49214e-13
-8.66862e-13
0
0
0
0
0
0
0
0
0
0
0
0
0
0
0
0
0
0
0
0
0
0
0
0
0
0
0
0
0
0
0
0
0
0
0
0
0
0
0
0
0
0
0
0
0
0
0
0
0
0
0
0
0
0
0
0
0
0
0
0
0
0
0
0
0
0
0
0
0
0
0
0
0
0
0
0
0
0
0
0
0
0
0
0
0
0
0
0
0
0
0
0
0
0
0
0
0
0
0
0
0
0
0
0
0
0
0
0
0
0
0
0
0
0
0
0
0
0
0
0
0
0
0
0
0
0
0
0
0
0
0
0
0
0
0
0
0
0
0
0
0
0
-643.528
-643.563
-0.103865
-472.656
-620.515
-0.193425
-317.643
-638.051
-0.529741
-140.526
-640.257
-1.24913
9.14781
-655.905
-1.43985
162.335
-648.149
-1.82468
354.609
-629.82
-1.33187
524.156
-614.114
-0.792527
699.101
-603.867
-0.313838
890.82
-616.424
-0.0783568
1078.09
-624.841
-0.00937808
1129.22
-597.64
-0.0235724
983.653
-526.451
-0.020477
259.082
-320.84
-0.00352115
2.08195
-43.4467
-0.000402071
2.06718e-05
-0.0624573
-2.94749e-07
3.94067e-11
-5.21076e-07
-3.90799e-13
0
-7.24754e-13
0
0
0
0
0
0
-620.534
-472.373
-0.168965
-453.362
-453.065
-0.314833
-299.208
-479.742
-0.93529
-131.544
-486.421
-2.27377
11.7261
-499.281
-3.37243
158.342
-489.403
-3.84384
338.17
-484.58
-2.33139
504.102
-467.559
-1.10285
682.836
-445.532
-0.308625
866.947
-387.479
0.0340771
1089.18
-343.261
0.148461
1232.57
-313.662
0.148518
1238.57
-289.629
0.100624
698.391
-222.5
0.0741084
37.7246
-48.4271
0.0139532
0.0118705
-0.459123
4.92311e-05
2.86772e-08
-2.51545e-05
1.24442e-09
6.39488e-14
-3.59464e-11
0
0
0
0
0
0
-638.179
-317.252
-0.428476
-480.139
-298.511
-0.907509
-313.639
-313.435
-2.52878
-142.117
-83.7563
-5.02859
-86.4981
-85.807
-88.1268
16.1301
-84.0528
-7.38772
-86.5049
-85.9295
-88.5232
179.974
-86.2372
-8.30485
-81.9404
-88.5475
-84.5264
360.963
-86.105
-5.62935
-78.4712
-88.5421
-81.6428
527.609
-79.9961
-2.36226
-73.3719
-82.1675
-75.9376
694.326
-66.9159
-0.460984
-71.0919
-68.0633
-72.2221
869.371
-190.803
0.156393
1060.2
-123.173
0.309186
1239.64
-80.0269
0.340065
1269.04
-61.0324
0.265513
876.01
-55.3674
0.185221
90.1537
-24.9375
0.0491603
0.127464
-0.326456
0.000533901
4.16018e-07
-2.29455e-05
5.68554e-08
1.10134e-12
-3.11076e-11
-4.05009e-13
0
0
0
0
0
-640.462
-140.046
-0.83683
-486.822
-130.832
-1.88043
-83.9199
-143.527
-4.65216
-86.1896
-85.6274
-87.7024
9.59722
-59.2318
-59.5311
-4.95629
10.8115
-17.8106
-6.41163
38.9908
-17.593
-17.2269
-17.5875
-17.0613
12.6305
-4.33327
26.4998
-8.04123
-18.4963
-18.6406
-18.25
-18.8912
12.9022
-48.6014
68.7112
-7.46901
-17.6906
-18.0707
-17.3765
-18.3848
11.5298
-91.342
111.183
-4.5724
-16.119
-16.3267
-15.5969
-16.7223
-130.692
6.00552
154.803
-54.3177
-1.88337
897.988
85.3146
0.413742
-185.552
-196.933
-186.081
-197.968
1049.96
124.982
0.343898
1202.99
155.676
0.158142
1227.01
163.356
-0.132439
809.053
137.197
-0.264515
72.0462
35.2876
-0.156297
0.0821975
0.307225
-0.00271849
2.61932e-07
1.71569e-05
-2.19816e-07
7.24754e-13
2.70717e-11
-3.48166e-13
0
0
0
0
0
-655.713
9.67882
-1.97879
-498.641
12.2133
-4.0698
-83.3728
15.9815
-8.38156
-86.1076
-85.6803
-88.3911
10.6969
-18.5776
-7.02123
41.2731
-17.6403
-17.0342
-17.3061
-17.6851
1.83058
-1.14623
53.4232
13.325
-2.46843
919.281
430.995
-1.3933
-208.278
-211.247
-208.649
-211.484
1078.41
435.533
-2.22663
1207.77
427.257
-1.27932
1212.71
399.627
-1.48932
727.141
264.093
-0.975894
49.7491
53.1408
-0.187916
0.026526
0.150371
-0.00217243
7.16523e-08
2.64146e-06
-7.47817e-08
1.7053e-13
3.64508e-12
-8.52651e-14
0
0
0
0
0
-647.961
162.885
-2.02899
-489.133
158.802
-4.10487
-86.1607
180.25
-8.69059
-81.8798
-88.5204
-84.4897
12.5133
-4.13614
26.4594
-8.1018
-18.4763
-18.6127
-18.2341
-18.8693
-0.0269275
-25.5899
56.3527
29.3235
0.726301
1011.97
695.301
-0.924064
-238.549
-253.236
-239.307
-255.058
1066.26
677.852
-1.38025
1109.04
619.158