/*--------------------------------*- C++ -*----------------------------------*\
  =========                 |
  \\      /  F ield         | OpenFOAM: The Open Source CFD Toolbox
   \\    /   O peration     | Website:  https://openfoam.org
    \\  /    A nd           | Version:  9
     \\/     M anipulation  |
\*---------------------------------------------------------------------------*/
FoamFile
{
    format      ascii;
    class       volScalarField;
    location    "0.0005";
    object      rho;
}
// * * * * * * * * * * * * * * * * * * * * * * * * * * * * * * * * * * * * * //

dimensions      [1 -3 0 0 0 0 0];

internalField   nonuniform List<scalar> 
9720
(
78.2206
124.07
179.992
220.006
251.113
240.867
194.849
142.851
91.0629
55.5643
36.222
19.2728
6.92035
2.84866
1.34511
1.22515
1.225
1.225
1.225
1.225
124.077
190.497
272.881
328.553
371.181
359.663
296.806
222.933
150.127
88.4954
56.222
32.8163
12.8023
4.10922
1.78601
1.23043
1.225
1.225
1.225
1.225
179.996
272.881
387.775
463.986
506.777
497.932
434.38
334.177
228.126
127.136
74.6669
41.482
14.8987
4.55463
2.10183
1.24367
1.225
1.225
1.225
1.225
219.857
328.259
463.72
501.367
576.957
585.196
550.909
456.473
315.202
119.18
67.3411
36.9784
12.7785
4.08377
1.95656
1.2379
1.225
1.225
1.225
1.225
251.224
370.982
506.165
576.502
190.993
56.9016
36.9191
23.0494
9.88216
3.76646
1.71891
1.22934
1.225
1.225
1.225
1.225
240.992
359.778
497.874
584.177
44.1062
29.6473
27.8501
19.3988
7.88258
2.88357
1.33492
1.22511
1.225
1.225
1.225
1.225
194.832
296.842
434.595
550.959
15.861
13.3102
13.225
9.11592
3.56706
1.51434
1.22601
1.225
1.225
1.225
1.225
1.225
142.891
223.036
334.307
456.982
7.34515
3.61843
3.82922
2.756
1.48382
1.22664
1.225
1.225
1.225
1.225
1.225
1.225
91.1086
150.218
227.381
312.804
185.011
45.7942
15.9777
7.47997
1.24926
1.69397
1.62915
1.31009
1.22574
1.225
1.225
1.225
1.225
1.225
1.225
1.225
55.5809
88.4187
126.303
117.523
56.9968
29.7703
13.7516
3.88215
1.75
1.24666
1.22835
1.22506
1.225
1.225
1.225
1.225
1.225
1.225
1.225
1.225
36.2429
56.1903
74.339
66.9765
37.0139
27.7996
13.5095
3.98725
1.66771
1.2291
1.225
1.225
1.225
1.225
1.225
1.225
1.225
1.225
1.225
1.225
19.2726
32.7635
41.295
36.808
23.0696
19.3448
9.14224
2.79167
1.31491
1.22507
1.225
1.225
1.225
1.225
1.225
1.225
1.225
1.225
1.225
1.225
6.91096
12.7566
14.8183
12.7385
9.877
7.85479
3.56515
1.486
1.22575
1.225
1.225
1.225
1.225
1.225
1.225
1.225
1.225
1.225
1.225
1.225
2.84355
4.09777
4.5413
4.08184
3.76183
2.87358
1.51309
1.22663
1.225
1.225
1.225
1.225
1.225
1.225
1.225
1.225
1.225
1.225
1.225
1.225
1.34387
1.78138
2.09505
1.95274
1.71571
1.33301
1.22599
1.225
1.225
1.225
1.225
1.225
1.225
1.225
1.225
1.225
1.225
1.225
1.225
1.225
1.22515
1.23032
1.24324
1.23767
1.22926
1.22511
1.225
1.225
1.225
1.225
1.225
1.225
1.225
1.225
1.225
1.225
1.225
1.225
1.225
1.225
1.225
1.225
1.225
1.225
1.225
1.225
1.225
1.225
1.225
1.225
1.225
1.225
1.225
1.225
1.225
1.225
1.225
1.225
1.225
1.225
1.225
1.225
1.225
1.225
1.225
1.225
1.225
1.225
1.225
1.225
1.225
1.225
1.225
1.225
1.225
1.225
1.225
1.225
1.225
1.225
1.225
1.225
1.225
1.225
1.225
1.225
1.225
1.225
1.225
1.225
1.225
1.225
1.225
1.225
1.225
1.225
1.225
1.225
1.225
1.225
1.225
1.225
1.225
1.225
1.225
1.225
1.225
1.225
1.225
1.225
1.225
1.225
1.225
1.225
1.225
1.225
1.225
1.225
1.225
1.225
80.209
128.164
186.701
228.476
261
252.063
205.867
153.649
99.9044
60.2889
39.1383
20.8933
7.40356
2.95895
1.37212
1.22523
1.225
1.225
1.225
1.225
128.167
198.138
284.556
342.781
385.434
374.235
313.063
241.428
168.965
100.498
62.8797
36.7741
14.3488
4.35871
1.87131
1.23279
1.225
1.225
1.225
1.225
186.678
284.533
403.914
482.228
523.359
512.875
452.811
358.399
252.085
143.235
82.716
46.5222
17.0515
4.86521
2.22247
1.25224
1.22501
1.225
1.225
1.225
228.196
342.388
481.986
514.794
595.628
595.996
562.505
472.7
337.421
123.641
70.5858
39.8716
14.2741
4.27204
2.06293
1.24457
1.22501
1.225
1.225
1.225
261.02
385.197
522.829
593.159
170.015
58.991
38.7453
24.7806
10.9553
4.0522
1.86947
1.23407
1.225
1.225
1.225
1.225
252.102
374.202
512.891
596.182
38.622
30.9559
29.215
21.5674
9.40604
3.25568
1.43934
1.22547
1.225
1.225
1.225
1.225
205.796
313.006
452.853
562.55
14.3956
16.3886
16.1607
11.2484
4.36007
1.75222
1.22938
1.225
1.225
1.225
1.225
1.225
153.648
241.479
358.495
473.181
9.98819
5.14545
4.97474
3.33414
1.72163
1.2322
1.225
1.225
1.225
1.225
1.225
1.225
99.9293
169.018
251.598
333.953
167.185
39.3073
14.545
10.6576
1.9677
1.99233
1.92326
1.43151
1.22854
1.225
1.225
1.225
1.225
1.225
1.225
1.225
60.3
100.449
142.727
123.396
60.2784
31.605
16.6182
5.25301
2.01609
1.31001
1.23923
1.22541
1.225
1.225
1.225
1.225
1.225
1.225
1.225
1.225
39.1551
62.8587
82.5525
70.699
39.3802
29.5724
16.4203
5.03735
1.94282
1.24008
1.22501
1.225
1.225
1.225
1.225
1.225
1.225
1.225
1.225
1.225
20.8974
36.7587
46.4646
39.962
25.1117
21.7479
11.3233
3.3497
1.43394
1.22542
1.225
1.225
1.225
1.225
1.225
1.225
1.225
1.225
1.225
1.225
7.39993
14.3359
17.0464
14.3285
11.0598
9.46551
4.36933
1.72341
1.22854
1.225
1.225
1.225
1.225
1.225
1.225
1.225
1.225
1.225
1.225
1.225
2.9574
4.35587
4.86544
4.2843
4.06802
3.26372
1.75394
1.23221
1.225
1.225
1.225
1.225
1.225
1.225
1.225
1.225
1.225
1.225
1.225
1.225
1.37143
1.86968
2.22114
2.06543
1.87366
1.44101
1.22941
1.225
1.225
1.225
1.225
1.225
1.225
1.225
1.225
1.225
1.225
1.225
1.225
1.225
1.22523
1.23273
1.25209
1.24468
1.2342
1.22548
1.225
1.225
1.225
1.225
1.225
1.225
1.225
1.225
1.225
1.225
1.225
1.225
1.225
1.225
1.225
1.225
1.22501
1.22501
1.225
1.225
1.225
1.225
1.225
1.225
1.225
1.225
1.225
1.225
1.225
1.225
1.225
1.225
1.225
1.225
1.225
1.225
1.225
1.225
1.225
1.225
1.225
1.225
1.225
1.225
1.225
1.225
1.225
1.225
1.225
1.225
1.225
1.225
1.225
1.225
1.225
1.225
1.225
1.225
1.225
1.225
1.225
1.225
1.225
1.225
1.225
1.225
1.225
1.225
1.225
1.225
1.225
1.225
1.225
1.225
1.225
1.225
1.225
1.225
1.225
1.225
1.225
1.225
1.225
1.225
1.225
1.225
1.225
1.225
1.225
1.225
1.225
1.225
1.225
1.225
82.1346
132.437
194.101
238.015
271.811
263.551
217.558
165.125
108.632
64.8891
41.6593
22.1519
7.82736
3.05767
1.39883
1.22532
1.225
1.225
1.225
1.225
132.426
205.888
295.936
356.088
397.761
385.75
326.999
258.893
185.52
111.257
68.1008
39.6952
15.5083
4.56765
1.94452
1.2353
1.225
1.225
1.225
1.225
194.052
295.88
416.406
494.174
533.319
521.87
466.11
380.068
277.574
161.714
91.4042
51.2813
18.8559
5.13595
2.32489
1.26113
1.22502
1.225
1.225
1.225
237.668
355.528
493.621
522.654
604.312
605.9
575.407
492.816
361.247
149.295
84.9105
47.7309
16.9088
4.62871
2.18817
1.25309
1.22501
1.225
1.225
1.225
271.815
397.591
533.207
601.935
180.201
76.1168
48.8224
30.4884
13.0358
4.43252
2.01879
1.24025
1.225
1.225
1.225
1.225
263.627
385.825
522.162
606.475
49.283
40.4077
36.4865
26.0902
11.1644
3.63122
1.53986
1.22613
1.225
1.225
1.225
1.225
217.542
326.998
466.122
575.609
20.9837
20.9208
20.2848
13.8315
5.16174
1.97361
1.2352
1.225
1.225
1.225
1.225
1.225
165.113
258.864
380.238
493.168
12.3758
6.50323
6.05692
3.92778
1.94534
1.24173
1.225
1.225
1.225
1.225
1.225
1.225
108.548
185.45
278.978
362.836
182.376
49.2314
20.9036
12.4928
3.83035
2.23185
2.17218
1.55275
1.23366
1.225
1.225
1.225
1.225
1.225
1.225
1.225
64.8294
111.407
163.162
151.222
74.4188
39.6192
20.3525
6.02664
2.13984
1.36226
1.25528
1.22614
1.225
1.225
1.225
1.225
1.225
1.225
1.225
1.225
41.5945
68.1072
91.8684
85.0774
48.1098
36.1156
19.5966
5.73714
2.07877
1.24841
1.22502
1.225
1.225
1.225
1.225
1.225
1.225
1.225
1.225
1.225
22.1154
39.7085
51.4817
47.8029
30.1868
25.922
13.5407
3.81618
1.52557
1.22593
1.225
1.225
1.225
1.225
1.225
1.225
1.225
1.225
1.225
1.225
7.82461
15.5238
18.915
16.9355
12.9936
11.1258
5.1232
1.92393
1.23304
1.225
1.225
1.225
1.225
1.225
1.225
1.225
1.225
1.225
1.225
1.225
3.05954
4.57119
5.13997
4.62824
4.43142
3.63369
1.96704
1.24121
1.225
1.225
1.225
1.225
1.225
1.225
1.225
1.225
1.225
1.225
1.225
1.225
1.39973
1.94696
2.32786
2.19236
2.02216
1.54159
1.23509
1.225
1.225
1.225
1.225
1.225
1.225
1.225
1.225
1.225
1.225
1.225
1.225
1.225
1.22532
1.23541
1.26164
1.25369
1.24051
1.22615
1.225
1.225
1.225
1.225
1.225
1.225
1.225
1.225
1.225
1.225
1.225
1.225
1.225
1.225
1.225
1.225
1.22502
1.22501
1.225
1.225
1.225
1.225
1.225
1.225
1.225
1.225
1.225
1.225
1.225
1.225
1.225
1.225
1.225
1.225
1.225
1.225
1.225
1.225
1.225
1.225
1.225
1.225
1.225
1.225
1.225
1.225
1.225
1.225
1.225
1.225
1.225
1.225
1.225
1.225
1.225
1.225
1.225
1.225
1.225
1.225
1.225
1.225
1.225
1.225
1.225
1.225
1.225
1.225
1.225
1.225
1.225
1.225
1.225
1.225
1.225
1.225
1.225
1.225
1.225
1.225
1.225
1.225
1.225
1.225
1.225
1.225
1.225
1.225
1.225
1.225
1.225
1.225
1.225
1.225
83.3596
135.333
200.171
246.114
282.211
276.26
229.639
175.146
114.588
67.6268
43.1304
22.7992
8.02515
3.10141
1.40723
1.22535
1.225
1.225
1.225
1.225
135.373
211.895
308.524
375.013
420.004
409.571
350.053
278.336
197.942
117.463
71.0232
41.222
16.0369
4.6662
1.97082
1.23609
1.225
1.225
1.225
1.225
200.258
308.642
435.705
516.137
555.38
545.968
495.953
414.734
303.732
173.239
95.7987
53.4853
19.584
5.26209
2.36306
1.26373
1.22502
1.225
1.225
1.225
246.209
375.293
516.529
537.189
617.479
621.343
594.602
529.542
405.781
163.16
89.3981
49.9224
17.6144
4.75373
2.22675
1.25535
1.22501
1.225
1.225
1.225
282.59
420.477
555.759
618.966
209.478
81.9779
51.1289
31.7523
13.5378
4.55104
2.0566
1.24175
1.225
1.225
1.225
1.225
276.531
409.961
546.224
621.519
59.839
41.9139
37.9036
27.1474
11.6106
3.73335
1.56171
1.22629
1.225
1.225
1.225
1.225
229.8
350.315
496.193
594.815
23.1971
21.5966
21.138
14.4722
5.35696
2.0197
1.23654
1.225
1.225
1.225
1.225
1.225
175.145
278.33
414.874
529.82
14.7862
6.72363
6.29035
4.05889
1.98868
1.24381
1.22501
1.225
1.225
1.225
1.225
1.225
114.552
197.928
304.893
409.948
208.254
56.7879
21.8476
13.732
4.25855
2.28234
2.2172
1.57343
1.23473
1.225
1.225
1.225
1.225
1.225
1.225
1.225
67.6589
117.703
174.527
165.735
82.3155
41.5766
21.0905
6.30638
2.1975
1.37638
1.2576
1.22628
1.225
1.225
1.225
1.225
1.225
1.225
1.225
1.225
43.1513
71.1706
96.4105
90.2344
51.2137
37.8895
20.6247
6.0392
2.14525
1.25278
1.22503
1.225
1.225
1.225
1.225
1.225
1.225
1.225
1.225
1.225
22.825
41.3353
53.817
50.3629
31.8607
27.1996
14.2965
3.98573
1.55798
1.22616
1.225
1.225
1.225
1.225
1.225
1.225
1.225
1.225
1.225
1.225
8.04741
16.1121
19.7258
17.7812
13.6275
11.6664
5.35992
1.98428
1.23465
1.225
1.225
1.225
1.225
1.225
1.225
1.225
1.225
1.225
1.225
1.225
3.11026
4.68493
5.28806
4.78114
4.575
3.75437
2.02701
1.2442
1.225
1.225
1.225
1.225
1.225
1.225
1.225
1.225
1.225
1.225
1.225
1.225
1.40986
1.97826
2.37304
2.23834
2.06752
1.56868
1.23693
1.22501
1.225
1.225
1.225
1.225
1.225
1.225
1.225
1.225
1.225
1.225
1.225
1.225
1.22536
1.23639
1.26479
1.25641
1.24238
1.22636
1.225
1.225
1.225
1.225
1.225
1.225
1.225
1.225
1.225
1.225
1.225
1.225
1.225
1.225
1.225
1.225
1.22502
1.22501
1.225
1.225
1.225
1.225
1.225
1.225
1.225
1.225
1.225
1.225
1.225
1.225
1.225
1.225
1.225
1.225
1.225
1.225
1.225
1.225
1.225
1.225
1.225
1.225
1.225
1.225
1.225
1.225
1.225
1.225
1.225
1.225
1.225
1.225
1.225
1.225
1.225
1.225
1.225
1.225
1.225
1.225
1.225
1.225
1.225
1.225
1.225
1.225
1.225
1.225
1.225
1.225
1.225
1.225
1.225
1.225
1.225
1.225
1.225
1.225
1.225
1.225
1.225
1.225
1.225
1.225
1.225
1.225
1.225
1.225
1.225
1.225
1.225
1.225
1.225
1.225
83.5798
135.894
201.607
248.658
285.93
280.462
232.988
177.391
115.626
68.0236
43.3547
22.9149
8.05867
3.10712
1.40787
1.22535
1.225
1.225
1.225
1.225
135.912
213.234
312.791
382.991
431.224
421.637
359.211
283.275
200.082
118.198
71.3831
41.419
16.1105
4.67959
1.97305
1.23613
1.225
1.225
1.225
1.225
201.594
312.761
445.418
532.259
575.06
567.09
515.431
427.274
308.561
174.238
96.1069
53.6459
19.6492
5.27806
2.36579
1.26378
1.22502
1.225
1.225
1.225
248.441
382.53
531.938
567.858
650.35
655.456
635.274
569.742
427.071
163.83
89.4809
49.9653
17.6511
4.76841
2.22959
1.25543
1.22501
1.225
1.225
1.225
286.042
431.082
574.774
648.818
217.923
82.1635
50.8917
31.6722
13.5468
4.55965
2.05702
1.24173
1.225
1.225
1.225
1.225
280.616
421.878
567.351
655.266
55.5717
41.098
37.4599
26.9758
11.5781
3.72851
1.56
1.22628
1.225
1.225
1.225
1.225
233.06
359.392
515.685
635.514
21.4584
21.0773
20.7828
14.3121
5.32115
2.01223
1.23628
1.225
1.225
1.225
1.225
1.225
177.418
283.378
427.55
570.269
13.5579
6.55133
6.20247
4.02354
1.9786
1.2433
1.225
1.225
1.225
1.225
1.225
1.225
115.634
200.131
309.13
427.547
218.437
57.0272
21.9955
13.6135
4.27017
2.26897
2.20209
1.5656
1.23437
1.225
1.225
1.225
1.225
1.225
1.225
1.225
68.0456
118.316
174.804
164.996
82.9407
41.6476
21.2216
6.47433
2.23579
1.38035
1.25613
1.2262
1.225
1.225
1.225
1.225
1.225
1.225
1.225
1.225
43.3745
71.4582
96.4104
89.9732
51.3217
37.8897
20.8616
6.16397
2.18003
1.25508
1.22503
1.225
1.225
1.225
1.225
1.225
1.225
1.225
1.225
1.225
22.9485
41.5028
53.8475
50.2548
31.9382
27.2434
14.4201
4.03203
1.56792
1.22623
1.225
1.225
1.225
1.225
1.225
1.225
1.225
1.225
1.225
1.225
8.08309
16.1811
19.7668
17.7828
13.6809
11.7136
5.3866
1.99472
1.23492
1.225
1.225
1.225
1.225
1.225
1.225
1.225
1.225
1.225
1.225
1.225
3.11605
4.69867
5.30384
4.79286
4.59216
3.76535
2.03347
1.24453
1.225
1.225
1.225
1.225
1.225
1.225
1.225
1.225
1.225
1.225
1.225
1.225
1.4104
1.98041
2.37582
2.24029
2.07161
1.57099
1.23711
1.22501
1.225
1.225
1.225
1.225
1.225
1.225
1.225
1.225
1.225
1.225
1.225
1.225
1.22536
1.23642
1.26479
1.25639
1.24252
1.22638
1.225
1.225
1.225
1.225
1.225
1.225
1.225
1.225
1.225
1.225
1.225
1.225
1.225
1.225
1.225
1.225
1.22502
1.22501
1.225
1.225
1.225
1.225
1.225
1.225
1.225
1.225
1.225
1.225
1.225
1.225
1.225
1.225
1.225
1.225
1.225
1.225
1.225
1.225
1.225
1.225
1.225
1.225
1.225
1.225
1.225
1.225
1.225
1.225
1.225
1.225
1.225
1.225
1.225
1.225
1.225
1.225
1.225
1.225
1.225
1.225
1.225
1.225
1.225
1.225
1.225
1.225
1.225
1.225
1.225
1.225
1.225
1.225
1.225
1.225
1.225
1.225
1.225
1.225
1.225
1.225
1.225
1.225
1.225
1.225
1.225
1.225
1.225
1.225
1.225
1.225
1.225
1.225
1.225
1.225
83.579
135.898
201.636
248.744
285.951
280.481
233.021
177.415
115.642
68.0301
43.3617
22.9194
8.05965
3.10725
1.40787
1.22535
1.225
1.225
1.225
1.225
135.91
213.237
312.831
383.13
431.307
421.668
359.237
283.307
200.09
118.161
71.3663
41.4064
16.1045
4.67906
1.97303
1.23613
1.225
1.225
1.225
1.225
201.577
312.777
445.456
532.404
575.172
567.069
515.49
427.251
308.25
173.952
96.0118
53.5999
19.6377
5.2772
2.36587
1.26377
1.22502
1.225
1.225
1.225
248.377
382.528
531.963
572.046
658.168
663.715
640.867
571.015
426.149
163.474
89.4485
49.9546
17.6588
4.77211
2.23091
1.25552
1.22501
1.225
1.225
1.225
286.065
431.096
574.684
655.552
217.298
82.3057
50.9884
31.7075
13.5597
4.56298
2.05859
1.24181
1.225
1.225
1.225
1.225
280.602
421.858
567.406
664.193
56.8931
41.2739
37.46
26.9306
11.56
3.72688
1.5599
1.22628
1.225
1.225
1.225
1.225
233.02
359.347
515.637
641.14
21.8387
21.1658
20.8238
14.2829
5.30782
2.01004
1.23621
1.225
1.225
1.225
1.225
1.225
177.392
283.325
427.581
571.749
13.7698
6.64456
6.23489
4.02285
1.97668
1.24313
1.225
1.225
1.225
1.225
1.225
1.225
115.602
200.122
309.415
430.888
222.779
56.1266
21.8741
13.4692
4.47307
2.28376
2.21264
1.56644
1.23429
1.225
1.225
1.225
1.225
1.225
1.225
1.225
68.0363
118.368
175.166
165.435
82.0001
41.3809
21.1249
6.45008
2.24005
1.38332
1.25701
1.22621
1.225
1.225
1.225
1.225
1.225
1.225
1.225
1.225
43.3659
71.5045
96.6238
90.1994
51.1903
37.7657
20.7361
6.13481
2.17791
1.25459
1.22503
1.225
1.225
1.225
1.225
1.225
1.225
1.225
1.225
1.225
22.9371
41.5282
53.9519
50.3642
31.8718
27.1824
14.3553
4.0167
1.56336
1.22619
1.225
1.225
1.225
1.225
1.225
1.225
1.225
1.225
1.225
1.225
8.07934
16.1853
19.7866
17.8005
13.6546
11.6728
5.36276
1.98634
1.23461
1.225
1.225
1.225
1.225
1.225
1.225
1.225
1.225
1.225
1.225
1.225
3.1149
4.69778
5.30374
4.79203
4.58614
3.75669
2.0267
1.24404
1.225
1.225
1.225
1.225
1.225
1.225
1.225
1.225
1.225
1.225
1.225
1.225
1.4101
1.97987
2.37545
2.23944
2.06909
1.56834
1.23684
1.22501
1.225
1.225
1.225
1.225
1.225
1.225
1.225
1.225
1.225
1.225
1.225
1.225
1.22536
1.2364
1.26473
1.25628
1.24236
1.22635
1.225
1.225
1.225
1.225
1.225
1.225
1.225
1.225
1.225
1.225
1.225
1.225
1.225
1.225
1.225
1.225
1.22502
1.22501
1.225
1.225
1.225
1.225
1.225
1.225
1.225
1.225
1.225
1.225
1.225
1.225
1.225
1.225
1.225
1.225
1.225
1.225
1.225
1.225
1.225
1.225
1.225
1.225
1.225
1.225
1.225
1.225
1.225
1.225
1.225
1.225
1.225
1.225
1.225
1.225
1.225
1.225
1.225
1.225
1.225
1.225
1.225
1.225
1.225
1.225
1.225
1.225
1.225
1.225
1.225
1.225
1.225
1.225
1.225
1.225
1.225
1.225
1.225
1.225
1.225
1.225
1.225
1.225
1.225
1.225
1.225
1.225
1.225
1.225
1.225
1.225
1.225
1.225
1.225
1.225
83.3701
135.362
200.254
246.358
282.289
276.328
229.717
175.181
114.605
67.6533
43.1597
22.8184
8.0283
3.10124
1.40706
1.22535
1.225
1.225
1.225
1.225
135.386
211.938
308.655
375.469
420.237
409.637
350.115
278.352
197.906
117.411
71.0102
41.1995
16.0191
4.6629
1.96975
1.23605
1.225
1.225
1.225
1.225
200.231
308.667
435.797
516.572
555.686
545.95
496.035
414.623
303.274
172.78
95.5917
53.3634
19.5402
5.25559
2.36105
1.26354
1.22502
1.225
1.225
1.225
246.016
375.017
516.264
556.532
635.323
637.088
616.683
558.266
424.288
162.785
89.2395
49.8235
17.601
4.75751
2.22775
1.25542
1.22501
1.225
1.225
1.225
282.509
420.214
555.381
632.863
216.978
82.1223
50.9301
31.6583
13.5263
4.55213
2.05695
1.2418
1.225
1.225
1.225
1.225
276.464
409.899
546.277
637.536
56.8118
41.3346
37.4651
26.8938
11.5318
3.72143
1.5596
1.22628
1.225
1.225
1.225
1.225
229.725
350.265
496.207
616.761
21.8387
21.2144
20.8302
14.2606
5.30153
2.00963
1.23623
1.225
1.225
1.225
1.225
1.225
175.191
278.467
414.986
558.951
13.9609
6.66322
6.24268
4.0233
1.97683
1.24316
1.225
1.225
1.225
1.225
1.225
1.225
114.6
197.958
303.918
424.889
216.407
57.501
22.0291
13.9013
4.53544
2.28957
2.2157
1.56722
1.23432
1.225
1.225
1.225
1.225
1.225
1.225
1.225
67.6543
117.507
173.355
163.971
82.8485
41.5826
21.224
6.55453
2.25335
1.38873
1.25735
1.22622
1.225
1.225
1.225
1.225
1.225
1.225
1.225
1.225
43.1577
71.0512
95.8385
89.6502
51.2303
37.7552
20.8391
6.1784
2.19062
1.25583
1.22503
1.225
1.225
1.225
1.225
1.225
1.225
1.225
1.225
1.225
22.8268
41.2476
53.5127
50.0621
31.8454
27.1044
14.3359
4.02334
1.5668
1.22622
1.225
1.225
1.225
1.225
1.225
1.225
1.225
1.225
1.225
1.225
8.03887
16.0605
19.6177
17.6937
13.6074
11.6334
5.34671
1.98637
1.23465
1.225
1.225
1.225
1.225
1.225
1.225
1.225
1.225
1.225
1.225
1.225
3.10549
4.67291
5.27016
4.77113
4.57033
3.74583
2.02303
1.24395
1.225
1.225
1.225
1.225
1.225
1.225
1.225
1.225
1.225
1.225
1.225
1.225
1.40838
1.97375
2.3666
2.23345
2.0646
1.56643
1.23675
1.22501
1.225
1.225
1.225
1.225
1.225
1.225
1.225
1.225
1.225
1.225
1.225
1.225
1.22535
1.23621
1.26415
1.25595
1.24222
1.22634
1.225
1.225
1.225
1.225
1.225
1.225
1.225
1.225
1.225
1.225
1.225
1.225
1.225
1.225
1.225
1.225
1.22502
1.22501
1.225
1.225
1.225
1.225
1.225
1.225
1.225
1.225
1.225
1.225
1.225
1.225
1.225
1.225
1.225
1.225
1.225
1.225
1.225
1.225
1.225
1.225
1.225
1.225
1.225
1.225
1.225
1.225
1.225
1.225
1.225
1.225
1.225
1.225
1.225
1.225
1.225
1.225
1.225
1.225
1.225
1.225
1.225
1.225
1.225
1.225
1.225
1.225
1.225
1.225
1.225
1.225
1.225
1.225
1.225
1.225
1.225
1.225
1.225
1.225
1.225
1.225
1.225
1.225
1.225
1.225
1.225
1.225
1.225
1.225
1.225
1.225
1.225
1.225
1.225
1.225
82.1351
132.417
194.064
238.023
271.699
263.488
217.543
165.144
108.614
64.8669
41.6542
22.1561
7.82606
3.0564
1.39841
1.22532
1.225
1.225
1.225
1.225
132.451
205.895
295.937
356.124
397.758
385.707
326.955
258.897
185.404
111.113
68.0047
39.6274
15.4744
4.56182
1.94243
1.23522
1.225
1.225
1.225
1.225
194.09
295.91
416.448
494.149
533.446
521.894
466.057
380.013
277.099
161.121
91.0107
51.0535
18.7733
5.12322
2.32075
1.26077
1.22502
1.225
1.225
1.225
237.633
355.525
493.801
533.053
612.334
614.677
586.428
510.494
385.261
148.262
84.1097
47.3037
16.7881
4.615
2.18476
1.25292
1.22501
1.225
1.225
1.225
271.922
397.592
533.086
609.786
196.141
76.0114
48.2207
30.1115
12.898
4.40924
2.013
1.24008
1.225
1.225
1.225
1.225
263.691
385.869
522.178
615.001
56.7763
39.6856
35.8379
25.6404
11.0054
3.60588
1.53488
1.22609
1.225
1.225
1.225
1.225
217.559
327.043
466.234
586.662
21.9531
20.4786
19.8731
13.5496
5.09024
1.95914
1.23478
1.225
1.225
1.225
1.225
1.225
165.145
258.945
380.28
511.276
13.8088
6.38323
5.97735
3.88196
1.92973
1.24095
1.225
1.225
1.225
1.225
1.225
1.225
108.591
185.471
278.051
389.838
198.051
55.3228
21.8151
13.3623
4.35742
2.22597
2.15991
1.54396
1.2332
1.225
1.225
1.225
1.225
1.225
1.225
1.225
64.8518
111.258
162.057
149.389
74.8413
39.549
20.3321
6.1816
2.18617
1.37146
1.25417
1.22607
1.225
1.225
1.225
1.225
1.225
1.225
1.225
1.225
41.6313
68.0727
91.4414
84.4404
47.9228
35.7826
19.6472
5.8578
2.122
1.2514
1.22502
1.225
1.225
1.225
1.225
1.225
1.225
1.225
1.225
1.225
22.1383
39.6718
51.2585
47.4704
29.9927
25.6196
13.4615
3.83654
1.53236
1.22598
1.225
1.225
1.225
1.225
1.225
1.225
1.225
1.225
1.225
1.225
7.82508
15.4986
18.8343
16.828
12.8798
10.9993
5.07605
1.91934
1.23291
1.225
1.225
1.225
1.225
1.225
1.225
1.225
1.225
1.225
1.225
1.225
3.05777
4.56681
5.13123
4.61668
4.40692
3.60464
1.95469
1.24065
1.225
1.225
1.225
1.225
1.225
1.225
1.225
1.225
1.225
1.225
1.225
1.225
1.39895
1.9446
2.32405
2.18661
2.01244
1.53414
1.23466
1.225
1.225
1.225
1.225
1.225
1.225
1.225
1.225
1.225
1.225
1.225
1.225
1.225
1.22532
1.2353
1.26113
1.25313
1.24005
1.22609
1.225
1.225
1.225
1.225
1.225
1.225
1.225
1.225
1.225
1.225
1.225
1.225
1.225
1.225
1.225
1.225
1.22502
1.22501
1.225
1.225
1.225
1.225
1.225
1.225
1.225
1.225
1.225
1.225
1.225
1.225
1.225
1.225
1.225
1.225
1.225
1.225
1.225
1.225
1.225
1.225
1.225
1.225
1.225
1.225
1.225
1.225
1.225
1.225
1.225
1.225
1.225
1.225
1.225
1.225
1.225
1.225
1.225
1.225
1.225
1.225
1.225
1.225
1.225
1.225
1.225
1.225
1.225
1.225
1.225
1.225
1.225
1.225
1.225
1.225
1.225
1.225
1.225
1.225
1.225
1.225
1.225
1.225
1.225
1.225
1.225
1.225
1.225
1.225
1.225
1.225
1.225
1.225
1.225
1.225
80.2076
128.15
186.692
228.571
260.938
251.972
205.81
153.626
99.9059
60.2893
39.1379
20.8892
7.40065
2.95778
1.37176
1.22523
1.225
1.225
1.225
1.225
128.18
198.144
284.585
343.01
385.458
374.146
312.99
241.369
168.981
100.487
62.8813
36.7647
14.3339
4.35513
1.86992
1.23275
1.225
1.225
1.225
1.225
186.695
284.54
403.956
482.385
523.242
512.75
452.731
358.28
252.009
143.166
82.7186
46.5106
17.032
4.86043
2.22041
1.25205
1.22501
1.225
1.225
1.225
228.113
342.22
481.949
523.551
600.914
601.114
570.38
484.918
353.839
123.43
70.7253
39.9391
14.2901
4.27481
2.06251
1.24449
1.22501
1.225
1.225
1.225
261.106
385.23
523.013
598.784
172.684
58.5837
38.851
24.86
10.9939
4.0562
1.86953
1.23405
1.225
1.225
1.225
1.225
252.197
374.302
513.048
601.424
45.0189
31.071
29.2079
21.5416
9.38333
3.25007
1.43813
1.22547
1.225
1.225
1.225
1.225
205.845
313.064
452.928
570.604
19.2606
16.4601
16.1677
11.2029
4.3409
1.74802
1.2293
1.225
1.225
1.225
1.225
1.225
153.689
241.531
358.594
485.735
12.0233
5.17231
5.00507
3.3351
1.71758
1.23203
1.225
1.225
1.225
1.225
1.225
1.225
99.9294
169.047
251.842
350.349
174.707
46.0495
19.169
12.6778
3.01027
2.00833
1.93394
1.43121
1.22846
1.225
1.225
1.225
1.225
1.225
1.225
1.225
60.2807
100.467
143.003
123.778
59.426
31.1795
16.4764
5.18185
2.00598
1.30899
1.23963
1.22541
1.225
1.225
1.225
1.225
1.225
1.225
1.225
1.225
39.1262
62.85
82.636
70.8219
39.1661
29.3516
16.1936
4.98596
1.92787
1.23907
1.22501
1.225
1.225
1.225
1.225
1.225
1.225
1.225
1.225
1.225
20.8686
36.7306
46.4629
39.9821
25.0281
21.6544
11.2019
3.32141
1.42609
1.22538
1.225
1.225
1.225
1.225
1.225
1.225
1.225
1.225
1.225
1.225
7.38855
14.3079
17.0086
14.3031
11.0409
9.40613
4.33026
1.71015
1.22829
1.225
1.225
1.225
1.225
1.225
1.225
1.225
1.225
1.225
1.225
1.225
2.95413
4.34828
4.85428
4.27691
4.06208
3.24993
1.74244
1.23177
1.225
1.225
1.225
1.225
1.225
1.225
1.225
1.225
1.225
1.225
1.225
1.225
1.37078
1.86746
2.21768
2.06208
1.86895
1.43636
1.22916
1.225
1.225
1.225
1.225
1.225
1.225
1.225
1.225
1.225
1.225
1.225
1.225
1.225
1.22522
1.23267
1.25187
1.24445
1.23398
1.22545
1.225
1.225
1.225
1.225
1.225
1.225
1.225
1.225
1.225
1.225
1.225
1.225
1.225
1.225
1.225
1.225
1.22501
1.22501
1.225
1.225
1.225
1.225
1.225
1.225
1.225
1.225
1.225
1.225
1.225
1.225
1.225
1.225
1.225
1.225
1.225
1.225
1.225
1.225
1.225
1.225
1.225
1.225
1.225
1.225
1.225
1.225
1.225
1.225
1.225
1.225
1.225
1.225
1.225
1.225
1.225
1.225
1.225
1.225
1.225
1.225
1.225
1.225
1.225
1.225
1.225
1.225
1.225
1.225
1.225
1.225
1.225
1.225
1.225
1.225
1.225
1.225
1.225
1.225
1.225
1.225
1.225
1.225
1.225
1.225
1.225
1.225
1.225
1.225
1.225
1.225
1.225
1.225
1.225
1.225
78.2196
124.065
180.01
220.187
251.131
240.833
194.825
142.84
91.0636
55.5736
36.2326
19.2766
6.91969
2.84774
1.34493
1.22515
1.225
1.225
1.225
1.225
124.084
190.503
272.922
328.865
371.209
359.664
296.807
222.918
150.139
88.4932
56.2228
32.8026
12.7888
4.10611
1.78497
1.23041
1.225
1.225
1.225
1.225
179.989
272.869
387.799
464.141
506.433
497.717
434.406
334.193
227.937
126.932
74.5944
41.4315
14.8729
4.54998
2.10013
1.24357
1.225
1.225
1.225
1.225
219.701
327.997
463.638
512.491
589.486
592.441
559.445
466.991
327.594
118.775
67.2752
36.9519
12.7722
4.08394
1.95593
1.23785
1.225
1.225
1.225
1.225
251.238
370.998
506.555
587.405
169.678
56.9893
36.9591
23.0726
9.88725
3.76609
1.71814
1.22932
1.225
1.225
1.225
1.225
241.042
359.8
498.127
593.272
38.8224
29.5689
27.7926
19.4155
7.88676
2.88096
1.33413
1.22511
1.225
1.225
1.225
1.225
194.859
296.85
434.597
559.693
13.7141
13.5036
13.3403
9.10316
3.55913
1.51238
1.22599
1.225
1.225
1.225
1.225
1.225
142.965
223.15
334.383
467.497
9.67634
3.76616
3.8965
2.7633
1.48191
1.22661
1.225
1.225
1.225
1.225
1.225
1.225
91.1428
150.234
226.944
325.438
174.082
38.6358
13.8874
8.83527
1.40833
1.71922
1.64387
1.31088
1.22573
1.225
1.225
1.225
1.225
1.225
1.225
1.225
55.5559
88.3183
125.742
116.696
57.4169
29.7654
13.9563
3.96999
1.76148
1.24826
1.2286
1.22506
1.225
1.225
1.225
1.225
1.225
1.225
1.225
1.225
36.212
56.0899
73.9807
66.6854
37.2143
27.9333
13.6574
4.03461
1.67483
1.22922
1.225
1.225
1.225
1.225
1.225
1.225
1.225
1.225
1.225
1.225
19.24
32.6732
41.1064
36.6891
23.2314
19.5192
9.1932
2.80349
1.31646
1.22507
1.225
1.225
1.225
1.225
1.225
1.225
1.225
1.225
1.225
1.225
6.89238
12.7006
14.7442
12.7154
9.95656
7.92135
3.58279
1.49026
1.22578
1.225
1.225
1.225
1.225
1.225
1.225
1.225
1.225
1.225
1.225
1.225
2.83777
4.08453
4.52625
4.07781
3.77558
2.88498
1.51858
1.22669
1.225
1.225
1.225
1.225
1.225
1.225
1.225
1.225
1.225
1.225
1.225
1.225
1.34258
1.77659
2.08781
1.94909
1.7206
1.33585
1.22604
1.225
1.225
1.225
1.225
1.225
1.225
1.225
1.225
1.225
1.225
1.225
1.225
1.225
1.22515
1.2302
1.24284
1.2375
1.22937
1.22511
1.225
1.225
1.225
1.225
1.225
1.225
1.225
1.225
1.225
1.225
1.225
1.225
1.225
1.225
1.225
1.225
1.225
1.225
1.225
1.225
1.225
1.225
1.225
1.225
1.225
1.225
1.225
1.225
1.225
1.225
1.225
1.225
1.225
1.225
1.225
1.225
1.225
1.225
1.225
1.225
1.225
1.225
1.225
1.225
1.225
1.225
1.225
1.225
1.225
1.225
1.225
1.225
1.225
1.225
1.225
1.225
1.225
1.225
1.225
1.225
1.225
1.225
1.225
1.225
1.225
1.225
1.225
1.225
1.225
1.225
1.225
1.225
1.225
1.225
1.225
1.225
1.225
1.225
1.225
1.225
1.225
1.225
1.225
1.225
1.225
1.225
1.225
1.225
1.225
1.225
1.225
1.225
1.225
1.225
586.375
640.276
653.528
589.164
597.273
663.573
674.794
569.199
653.052
633.023
592.948
580.003
673.27
649.613
509.507
625.686
573.912
559.493
520.679
641.541
587.985
381.41
542.722
439.859
467.024
394.114
557.086
446.115
641.881
585.458
651.731
587.742
659.576
596.916
674.424
122.942
56.2971
63.5873
173.367
114.081
49.6283
58.3303
651.595
568.777
632.132
592.758
672.84
579.93
649.466
37.7128
19.422
20.8613
38.5527
35.2152
16.9892
18.755
625.213
510.023
574.762
559.623
641.456
521.206
588.98
15.2987
8.48097
8.40624
13.731
13.9887
10.8869
10.484
543.319
381.148
434.765
467.503
558.052
394.114
443.677
4.83125
1.45015
2.35764
8.7027
6.34862
3.41033
2.93871
58.9305
123.277
65.474
170.111
49.7908
112.605
58.442
19.7727
38.9079
21.3659
38.7892
17.2949
35.6026
18.9492
9.21586
15.5394
8.95758
13.9501
11.2515
14.0683
10.7187
1.72869
5.21943
2.61664
9.53714
3.67844
7.04807
3.11577
601.697
664.134
675.08
600.892
607.098
667.301
677.222
584.481
673.424
649.54
600.966
590.921
676.049
654.872
525.347
641.87
588.205
570.474
535.015
647.352
597.374
401.743
558.141
448.863
485.249
415.759
570.041
469.943
658.633
601.288
675.325
598.729
660.245
606.951
678.472
112.105
49.2495
57.3837
178.239
121.971
54.6193
63.2646
673.575
584.535
649.565
601.493
677.068
591.161
655.422
35.9946
17.8833
19.3965
44.4989
41.6919
23.7217
23.8937
641.794
525.754
589.092
570.454
647.541
535.12
597.501
14.1779
11.5375
11.2938
18.9638
17.6055
13.8409
13.929
559.059
401.119
443.832
485.579
570.258
415.473
468.537
8.14211
4.49988
3.37753
12.0878
10.1234
6.73694
4.11167
50.7483
115.635
60.2431
177.343
56.4119
123.374
64.7671
18.3592
37.3202
19.8385
45.9936
24.551
43.1824
24.7789
11.678
14.4311
11.3874
19.5651
13.8345
18.0747
13.8939
4.34016
8.60292
3.44665
12.2702
5.86781
10.1122
4.03134
610.946
666.889
680.083
611.698
619.764
673.581
692.661
596.995
679.366
658.677
614.646
606.07
692.489
674.037
541.164
651.269
601.222
586.371
553.546
666.881
618.469
425.44
574.566
469.558
510.665
446.206
595.521
497.482
660.067
610.903
681.125
610.493
671.055
619.675
693.196
122.935
59.2925
67.887
200.226
153.541
74.6824
83.783
680.219
597.4
659.363
614.888
692.795
606.418
674.379
48.6097
26.3156
28.4648
59.3789
55.7915
29.6696
30.9795
651.68
541.238
601.118
586.656
667.29
553.647
618.375
20.4844
14.498
14.8703
23.229
21.9796
15.708
16.0859
574.582
426.204
471.74
510.962
595.475
448.393
505.564
10.4732
6.69795
4.48514
14.6251
12.5182
6.69202
5.18502
59.5226
125.38
68.2857
197.743
68.6206
143.987
78.1117
26.2444
48.3036
28.13
55.7503
27.6744
52.3042
29.3744
14.541
20.241
15.0442
21.8604
15.5131
21.0434
15.7305
6.37729
10.4074
4.29783
13.5646
6.96488
10.892
4.4538
625.996
677.228
697.192
633.467
641.817
695.536
716.652
613.901
696.837