/*--------------------------------*- C++ -*----------------------------------*\
  =========                 |
  \\      /  F ield         | OpenFOAM: The Open Source CFD Toolbox
   \\    /   O peration     | Website:  https://openfoam.org
    \\  /    A nd           | Version:  9
     \\/     M anipulation  |
\*---------------------------------------------------------------------------*/
FoamFile
{
    format      ascii;
    class       volScalarField;
    location    "0.0005";
    object      rho.Air;
}
// * * * * * * * * * * * * * * * * * * * * * * * * * * * * * * * * * * * * * //

dimensions      [1 -3 0 0 0 0 0];

internalField   nonuniform List<scalar> 
9720
(
0.267272
0.202406
0.243256
0.275571
0.307024
0.301555
0.260053
0.216992
0.17176
0.163849
0.222502
0.748189
2.72086
2.71532
1.34504
1.22515
1.225
1.225
1.225
1.225
0.202229
0.160415
0.210226
0.245204
0.277923
0.272121
0.231073
0.186545
0.13297
0.102472
0.105872
0.217507
1.32087
3.08188
1.78202
1.23043
1.225
1.225
1.225
1.225
0.243075
0.21014
0.311252
0.376771
0.422742
0.413773
0.35759
0.278774
0.193532
0.117083
0.114556
0.189218
0.967657
3.06307
2.0907
1.24367
1.225
1.225
1.225
1.225
0.275094
0.244803
0.375895
0.408886
0.501799
0.510605
0.469232
0.385405
0.276968
0.0921577
0.0881533
0.167172
0.969699
2.93992
1.94973
1.2379
1.225
1.225
1.225
1.225
0.306655
0.277576
0.421688
0.501341
0.136125
0.0381559
0.0489706
0.182607
1.33604
3.002
1.71625
1.22934
1.225
1.225
1.225
1.225
0.301472
0.272095
0.413272
0.509102
0.0353328
0.0431793
0.127325
0.693103
2.71022
2.69922
1.33482
1.22511
1.225
1.225
1.225
1.225
0.26012
0.231256
0.357832
0.468617
0.0459443
0.710948
1.15339
2.54441
2.89462
1.51196
1.22601
1.225
1.225
1.225
1.225
1.225
0.217342
0.187056
0.27978
0.385994
5.97228
2.12663
2.56359
2.48191
1.48095
1.22664
1.225
1.225
1.225
1.225
1.225
1.225
0.171999
0.13343
0.19309
0.27321
0.134425
0.0382342
0.047783
5.32709
1.24926
1.68188
1.62313
1.30991
1.22574
1.225
1.225
1.225
1.225
1.225
1.225
1.225
0.163983
0.102498
0.116527
0.0897746
0.0390184
0.0441742
0.645986
2.1303
1.73323
1.24666
1.22835
1.22506
1.225
1.225
1.225
1.225
1.225
1.225
1.225
1.225
0.222721
0.105947
0.114238
0.0873848
0.049995
0.126149
1.1273
2.59861
1.66027
1.2291
1.225
1.225
1.225
1.225
1.225
1.225
1.225
1.225
1.225
1.225
0.74932
0.218484
0.190173
0.168171
0.185193
0.693377
2.55226
2.51074
1.31472
1.22507
1.225
1.225
1.225
1.225
1.225
1.225
1.225
1.225
1.225
1.225
2.72256
1.32814
0.976101
0.979748
1.34426
2.70977
2.90262
1.48324
1.22575
1.225
1.225
1.225
1.225
1.225
1.225
1.225
1.225
1.225
1.225
1.225
2.7114
3.08197
3.06719
2.94574
3.00065
2.69139
1.51079
1.22663
1.225
1.225
1.225
1.225
1.225
1.225
1.225
1.225
1.225
1.225
1.225
1.225
1.3438
1.7775
2.08421
1.94601
1.71307
1.33292
1.22599
1.225
1.225
1.225
1.225
1.225
1.225
1.225
1.225
1.225
1.225
1.225
1.225
1.225
1.22515
1.23032
1.24324
1.23767
1.22926
1.22511
1.225
1.225
1.225
1.225
1.225
1.225
1.225
1.225
1.225
1.225
1.225
1.225
1.225
1.225
1.225
1.225
1.225
1.225
1.225
1.225
1.225
1.225
1.225
1.225
1.225
1.225
1.225
1.225
1.225
1.225
1.225
1.225
1.225
1.225
1.225
1.225
1.225
1.225
1.225
1.225
1.225
1.225
1.225
1.225
1.225
1.225
1.225
1.225
1.225
1.225
1.225
1.225
1.225
1.225
1.225
1.225
1.225
1.225
1.225
1.225
1.225
1.225
1.225
1.225
1.225
1.225
1.225
1.225
1.225
1.225
1.225
1.225
1.225
1.225
1.225
1.225
1.225
1.225
1.225
1.225
1.225
1.225
1.225
1.225
1.225
1.225
1.225
1.225
1.225
1.225
1.225
1.225
1.225
1.225
0.269941
0.20555
0.246835
0.278577
0.309973
0.30467
0.263194
0.22211
0.177571
0.168019
0.222989
0.71836
2.66279
2.79041
1.37201
1.22523
1.225
1.225
1.225
1.225
0.205336
0.163397
0.21225
0.244876
0.275792
0.270096
0.230666
0.190463
0.140706
0.105147
0.10677
0.203462
1.20058
3.07742
1.86509
1.23279
1.225
1.225
1.225
1.225
0.246672
0.212091
0.295131
0.338499
0.36892
0.35808
0.315104
0.257938
0.186583
0.115207
0.111658
0.173371
0.847028
2.97664
2.20476
1.25223
1.22501
1.225
1.225
1.225
0.278069
0.244602
0.335964
0.3512
0.41572
0.400382
0.379085
0.296363
0.243656
0.0700377
0.073297
0.141138
0.808197
2.81584
2.05161
1.24457
1.22501
1.225
1.225
1.225
0.309534
0.275527
0.367629
0.405996
0.0552173
0.028065
0.0387749
0.141918
1.0536
2.94861
1.86322
1.23407
1.225
1.225
1.225
1.225
0.304557
0.270054
0.357999
0.40051
0.0264365
0.034946
0.0831467
0.466301
2.30945
2.86663
1.43888
1.22547
1.225
1.225
1.225
1.225
0.263287
0.230882
0.31572
0.377831
0.0310934
0.315707
0.801719
2.19513
3.04795
1.74192
1.22938
1.225
1.225
1.225
1.225
1.225
0.222448
0.190912
0.259177
0.297887
0.849655
1.96313
2.55993
2.74811
1.71049
1.2322
1.225
1.225
1.225
1.225
1.225
1.225
0.177881
0.141369
0.186257
0.238385
0.0535549
0.0295667
0.034355
0.531571
1.9675
1.93084
1.89696
1.43063
1.22854
1.225
1.225
1.225
1.225
1.225
1.225
1.225
0.168186
0.105256
0.114862
0.0696852
0.0295168
0.0366371
0.284838
1.93086
1.95045
1.30998
1.23923
1.22541
1.225
1.225
1.225
1.225
1.225
1.225
1.225
1.225
0.223169
0.106843
0.111485
0.0732182
0.0399193
0.084013
0.791721
2.57284
1.91532
1.24008
1.22501
1.225
1.225
1.225
1.225
1.225
1.225
1.225
1.225
1.225
0.719065
0.203716
0.173513
0.141487
0.143084
0.466553
2.20897
2.76301
1.43307
1.22542
1.225
1.225
1.225
1.225
1.225
1.225
1.225
1.225
1.225
1.225
2.66515
1.20333
0.848832
0.809442
1.05283
2.30719
3.05682
1.71245
1.22854
1.225
1.225
1.225
1.225
1.225
1.225
1.225
1.225
1.225
1.225
1.225
2.78969
3.07917
2.97806
2.8189
2.95016
2.86958
1.74361
1.23221
1.225
1.225
1.225
1.225
1.225
1.225
1.225
1.225
1.225
1.225
1.225
1.225
1.37133
1.86352
2.20348
2.054
1.86726
1.44054
1.22941
1.225
1.225
1.225
1.225
1.225
1.225
1.225
1.225
1.225
1.225
1.225
1.225
1.225
1.22523
1.23273
1.25209
1.24467
1.2342
1.22548
1.225
1.225
1.225
1.225
1.225
1.225
1.225
1.225
1.225
1.225
1.225
1.225
1.225
1.225
1.225
1.225
1.22501
1.22501
1.225
1.225
1.225
1.225
1.225
1.225
1.225
1.225
1.225
1.225
1.225
1.225
1.225
1.225
1.225
1.225
1.225
1.225
1.225
1.225
1.225
1.225
1.225
1.225
1.225
1.225
1.225
1.225
1.225
1.225
1.225
1.225
1.225
1.225
1.225
1.225
1.225
1.225
1.225
1.225
1.225
1.225
1.225
1.225
1.225
1.225
1.225
1.225
1.225
1.225
1.225
1.225
1.225
1.225
1.225
1.225
1.225
1.225
1.225
1.225
1.225
1.225
1.225
1.225
1.225
1.225
1.225
1.225
1.225
1.225
1.225
1.225
1.225
1.225
1.225
1.225
0.272237
0.208438
0.250007
0.280568
0.310655
0.30467
0.263781
0.225832
0.182626
0.171677
0.222839
0.688569
2.59518
2.85128
1.39867
1.22532
1.225
1.225
1.225
1.225
0.208216
0.166206
0.213019
0.241919
0.269134
0.262305
0.226394
0.192564
0.147492
0.108628
0.108848
0.195357
1.11243
3.07035
1.93598
1.2353
1.225
1.225
1.225
1.225
0.249779
0.212912
0.271354
0.299555
0.326328
0.32107
0.288006
0.248606
0.190923
0.119196
0.114772
0.170927
0.790806
2.92358
2.30061
1.26113
1.22502
1.225
1.225
1.225
0.279924
0.240912
0.302431
0.251396
0.33158
0.333189
0.3091
0.269705
0.225845
0.0771575
0.0816719
0.149192
0.78188
2.81165
2.17119
1.25309
1.22501
1.225
1.225
1.225
0.310221
0.268738
0.327102
0.333771
0.0335424
0.0354979
0.0463065
0.146493
0.991909
2.98616
2.00804
1.24025
1.225
1.225
1.225
1.225
0.304668
0.262391
0.32154
0.333813
0.0310794
0.0442657
0.0875703
0.433327
2.18982
3.03723
1.53874
1.22613
1.225
1.225
1.225
1.225
0.263936
0.226616
0.288507
0.309681
0.0434757
0.265196
0.738008
2.08638
3.18504
1.95053
1.2352
1.225
1.225
1.225
1.225
1.225
0.226089
0.192887
0.248523
0.271124
0.543013
1.96006
2.59588
2.96345
1.91935
1.24172
1.225
1.225
1.225
1.225
1.225
1.225
0.182785
0.147989
0.192077
0.223752
0.0326915
0.0310156
0.0435808
0.573173
3.82936
2.11198
2.11728
1.55027
1.23366
1.225
1.225
1.225
1.225
1.225
1.225
1.225
0.171682
0.108799
0.120299
0.0773009
0.0320208
0.0412221
0.330295
2.06582
2.05516
1.36218
1.25527
1.22614
1.225
1.225
1.225
1.225
1.225
1.225
1.225
1.225
0.222535
0.108857
0.115229
0.0814813
0.0436218
0.0861762
0.792156
2.60439
2.03711
1.2484
1.22502
1.225
1.225
1.225
1.225
1.225
1.225
1.225
1.225
1.225
0.686643
0.194235
0.169758
0.146811
0.141804
0.429074
2.08662
2.91563
1.52349
1.22593
1.225
1.225
1.225
1.225
1.225
1.225
1.225
1.225
1.225
1.225
2.59157
1.10491
0.780351
0.765901
0.973414
2.17672
3.16565
1.89868
1.23304
1.225
1.225
1.225
1.225
1.225
1.225
1.225
1.225
1.225
1.225
1.225
2.85241
3.06616
2.91101
2.79589
2.97511
3.03759
1.94397
1.24121
1.225
1.225
1.225
1.225
1.225
1.225
1.225
1.225
1.225
1.225
1.225
1.225
1.39957
1.9383
2.30316
2.17499
2.01122
1.54045
1.23509
1.225
1.225
1.225
1.225
1.225
1.225
1.225
1.225
1.225
1.225
1.225
1.225
1.225
1.22532
1.23541
1.26164
1.25369
1.24051
1.22615
1.225
1.225
1.225
1.225
1.225
1.225
1.225
1.225
1.225
1.225
1.225
1.225
1.225
1.225
1.225
1.225
1.22502
1.22501
1.225
1.225
1.225
1.225
1.225
1.225
1.225
1.225
1.225
1.225
1.225
1.225
1.225
1.225
1.225
1.225
1.225
1.225
1.225
1.225
1.225
1.225
1.225
1.225
1.225
1.225
1.225
1.225
1.225
1.225
1.225
1.225
1.225
1.225
1.225
1.225
1.225
1.225
1.225
1.225
1.225
1.225
1.225
1.225
1.225
1.225
1.225
1.225
1.225
1.225
1.225
1.225
1.225
1.225
1.225
1.225
1.225
1.225
1.225
1.225
1.225
1.225
1.225
1.225
1.225
1.225
1.225
1.225
1.225
1.225
1.225
1.225
1.225
1.225
1.225
1.225
0.274484
0.211202
0.254789
0.286499
0.317925
0.313282
0.271971
0.234075
0.18893
0.176273
0.226658
0.690575
2.60093
2.88186
1.40704
1.22535
1.225
1.225
1.225
1.225
0.211109
0.169876
0.2189
0.248619
0.276657
0.271564
0.236852
0.203692
0.155859
0.11335
0.113011
0.19967
1.11721
3.0976
1.96149
1.23609
1.225
1.225
1.225
1.225
0.25468
0.218891
0.276683
0.308989
0.330951
0.327291
0.299105
0.265882
0.207499
0.126015
0.119708
0.176096
0.800761
2.95182
2.33694
1.26373
1.22502
1.225
1.225
1.225
0.286273
0.248536
0.309742
0.238453
0.329403
0.332758
0.312296
0.281975
0.255211
0.081878
0.0858548
0.153947
0.793318
2.84816
2.20837
1.25535
1.22501
1.225
1.225
1.225
0.317985
0.276812
0.330733
0.328504
0.0385856
0.0375899
0.0483358
0.14953
0.999623
3.02876
2.04484
1.24175
1.225
1.225
1.225
1.225
0.313463
0.27177
0.327477
0.333078
0.0437987
0.0459953
0.0899373
0.439745
2.21398
3.09726
1.56042
1.22629
1.225
1.225
1.225
1.225
0.272247
0.237129
0.299455
0.312704
0.0547529
0.28045
0.763772
2.12694
3.24375
1.99386
1.23654
1.225
1.225
1.225
1.225
1.225
0.234181
0.203779
0.265595
0.28287
0.261276
2.03322
2.6595
3.02365
1.9595
1.2438
1.22501
1.225
1.225
1.225
1.225
1.225
0.189091
0.15639
0.207648
0.244201
0.0407697
0.0364341
0.0474133
0.535489
4.25211
2.15699
2.15829
1.5706
1.23472
1.225
1.225
1.225
1.225
1.225
1.225
1.225
0.176418
0.113688
0.127047
0.0825608
0.0358876
0.0444068
0.313049
2.0601
2.09898
1.37628
1.25759
1.22628
1.225
1.225
1.225
1.225
1.225
1.225
1.225
1.225
0.226585
0.113247
0.12041
0.0863916
0.0469643
0.0889798
0.785983
2.63112
2.09569
1.25277
1.22503
1.225
1.225
1.225
1.225
1.225
1.225
1.225
1.225
1.225
0.688897
0.199148
0.175767
0.153067
0.146759
0.434961
2.10796
2.98405
1.55542
1.22616
1.225
1.225
1.225
1.225
1.225
1.225
1.225
1.225
1.225
1.225
2.59755
1.11085
0.793809
0.784296
0.987513
2.19922
3.22972
1.95475
1.23464
1.225
1.225
1.225
1.225
1.225
1.225
1.225
1.225
1.225
1.225
1.225
2.88795
3.09784
2.94515
2.84199
3.02519
3.10407
2.00022
1.24419
1.225
1.225
1.225
1.225
1.225
1.225
1.225
1.225
1.225
1.225
1.225
1.225
1.40968
1.96866
2.34612
2.21927
2.05528
1.56733
1.23693
1.22501
1.225
1.225
1.225
1.225
1.225
1.225
1.225
1.225
1.225
1.225
1.225
1.225
1.22536
1.23639
1.26479
1.25641
1.24238
1.22636
1.225
1.225
1.225
1.225
1.225
1.225
1.225
1.225
1.225
1.225
1.225
1.225
1.225
1.225
1.225
1.225
1.22502
1.22501
1.225
1.225
1.225
1.225
1.225
1.225
1.225
1.225
1.225
1.225
1.225
1.225
1.225
1.225
1.225
1.225
1.225
1.225
1.225
1.225
1.225
1.225
1.225
1.225
1.225
1.225
1.225
1.225
1.225
1.225
1.225
1.225
1.225
1.225
1.225
1.225
1.225
1.225
1.225
1.225
1.225
1.225
1.225
1.225
1.225
1.225
1.225
1.225
1.225
1.225
1.225
1.225
1.225
1.225
1.225
1.225
1.225
1.225
1.225
1.225
1.225
1.225
1.225
1.225
1.225
1.225
1.225
1.225
1.225
1.225
1.225
1.225
1.225
1.225
1.225
1.225
0.274976
0.211866
0.256355
0.289275
0.321996
0.31787
0.275689
0.236605
0.190366
0.177174
0.227649
0.692508
2.60578
2.8862
1.40769
1.22535
1.225
1.225
1.225
1.225
0.211716
0.170834
0.221549
0.253032
0.282718
0.278199
0.24247
0.207395
0.158298
0.114197
0.113768
0.200949
1.12235
3.1043
1.96367
1.23613
1.225
1.225
1.225
1.225
0.25625
0.221501
0.282531
0.320095
0.34166
0.339585
0.311178
0.275119
0.210062
0.126725
0.120337
0.177096
0.805206
2.95975
2.33957
1.26377
1.22502
1.225
1.225
1.225
0.288779
0.252647
0.319519
0.247581
0.344517
0.348873
0.331065
0.301592
0.254779
0.0816748
0.0857609
0.154099
0.797072
2.85612
2.21112
1.25543
1.22501
1.225
1.225
1.225
0.321623
0.282269
0.341976
0.344161
0.0436504
0.0366986
0.0476438
0.149236
1.0027
3.03287
2.04521
1.24172
1.225
1.225
1.225
1.225
0.317856
0.278212
0.339708
0.348724
0.0355039
0.0451384
0.0893284
0.440221
2.21836
3.09535
1.55872
1.22628
1.225
1.225
1.225
1.225
0.275854
0.242622
0.311325
0.331209
0.0467752
0.286056
0.770168
2.13633
3.24205
1.98703
1.23628
1.225
1.225
1.225
1.225
1.225
0.236741
0.207506
0.275091
0.301921
0.578211
2.04525
2.6678
3.01846
1.95063
1.24329
1.225
1.225
1.225
1.225
1.225
1.225
0.190497
0.158351
0.210675
0.254792
0.044792
0.03705
0.0482443
0.451394
4.26803
2.15047
2.14605
1.56296
1.23437
1.225
1.225
1.225
1.225
1.225
1.225
1.225
0.177293
0.114341
0.12724
0.0822753
0.0368074
0.0454087
0.293892
2.04704
2.12671
1.38024
1.25612
1.2262
1.225
1.225
1.225
1.225
1.225
1.225
1.225
1.225
0.227618
0.113878
0.120674
0.0862321
0.047694
0.0894021
0.775938
2.64731
2.12624
1.25507
1.22503
1.225
1.225
1.225
1.225
1.225
1.225
1.225
1.225
1.225
0.69121
0.200551
0.176873
0.153799
0.148182
0.43605
2.1219
3.01014
1.56523
1.22623
1.225
1.225
1.225
1.225
1.225
1.225
1.225
1.225
1.225
1.225
2.60318
1.11716
0.800357
0.791123
0.993891
2.20526
3.24552
1.96499
1.23491
1.225
1.225
1.225
1.225
1.225
1.225
1.225
1.225
1.225
1.225
1.225
2.89235
3.10538
2.95586
2.85217
3.03373
3.11029
2.0065
1.24452
1.225
1.225
1.225
1.225
1.225
1.225
1.225
1.225
1.225
1.225
1.225
1.225
1.41021
1.97077
2.34887
2.22123
2.05926
1.56961
1.2371
1.22501
1.225
1.225
1.225
1.225
1.225
1.225
1.225
1.225
1.225
1.225
1.225
1.225
1.22536
1.23642
1.26479
1.25639
1.24252
1.22638
1.225
1.225
1.225
1.225
1.225
1.225
1.225
1.225
1.225
1.225
1.225
1.225
1.225
1.225
1.225
1.225
1.22502
1.22501
1.225
1.225
1.225
1.225
1.225
1.225
1.225
1.225
1.225
1.225
1.225
1.225
1.225
1.225
1.225
1.225
1.225
1.225
1.225
1.225
1.225
1.225
1.225
1.225
1.225
1.225
1.225
1.225
1.225
1.225
1.225
1.225
1.225
1.225
1.225
1.225
1.225
1.225
1.225
1.225
1.225
1.225
1.225
1.225
1.225
1.225
1.225
1.225
1.225
1.225
1.225
1.225
1.225
1.225
1.225
1.225
1.225
1.225
1.225
1.225
1.225
1.225
1.225
1.225
1.225
1.225
1.225
1.225
1.225
1.225
1.225
1.225
1.225
1.225
1.225
1.225
0.27498
0.211936
0.256429
0.289434
0.32213
0.317928
0.275713
0.236607
0.190374
0.177178
0.227676
0.692628
2.60597
2.88634
1.40769
1.22535
1.225
1.225
1.225
1.225
0.211663
0.170849
0.221657
0.253248
0.282868
0.278249
0.242479
0.207384
0.15835
0.114167
0.11374
0.200997
1.12291
3.1049
1.96366
1.23613
1.225
1.225
1.225
1.225
0.256205
0.221474
0.282519
0.320485
0.341471
0.339529
0.311196
0.275246
0.209582
0.126461
0.12021
0.177099
0.805801
2.96029
2.33967
1.26377
1.22502
1.225
1.225
1.225
0.288644
0.25252
0.318922
0.249045
0.347297
0.352903
0.333749
0.302266
0.255112
0.0815019
0.0856559
0.154149
0.797637
2.85725
2.21238
1.25552
1.22501
1.225
1.225
1.225
0.321509
0.282143
0.342078
0.349262
0.0481541
0.0372408
0.0479345
0.149585
1.00308
3.03325
2.04672
1.24181
1.225
1.225
1.225
1.225
0.317796
0.27814
0.33968
0.353041
0.0379769
0.0457897
0.0896337
0.440816
2.21928
3.09511
1.55862
1.22628
1.225
1.225
1.225
1.225
0.275819
0.242585
0.311266
0.333885
0.0493183
0.275236
0.765873
2.14144
3.24484
1.98515
1.23621
1.225
1.225
1.225
1.225
1.225
0.236751
0.207543
0.274933
0.302998
0.390896
2.02842
2.66666
3.02163
1.94921
1.24312
1.225
1.225
1.225
1.225
1.225
1.225
0.190446
0.158115
0.211427
0.259545
0.0416228
0.0355006
0.0467576
0.5306
4.47027
2.15947
2.15494
1.56381
1.23429
1.225
1.225
1.225
1.225
1.225
1.225
1.225
0.177288
0.114345
0.127584
0.0826893
0.0361736
0.0447073
0.302656
2.06835
2.13268
1.38322
1.257
1.22621
1.225
1.225
1.225
1.225
1.225
1.225
1.225
1.225
0.22765
0.113917
0.120903
0.0865053
0.0473453
0.0896266
0.785133
2.65974
2.12544
1.25458
1.22503
1.225
1.225
1.225
1.225
1.225
1.225
1.225
1.225
1.225
0.691476
0.200666
0.177146
0.154195
0.148718
0.439815
2.13071
3.00836
1.56074
1.22619
1.225
1.225
1.225
1.225
1.225
1.225
1.225
1.225
1.225
1.225
2.60343
1.1175
0.801122
0.792685
0.998215
2.21476
3.24406
1.95724
1.23461
1.225
1.225
1.225
1.225
1.225
1.225
1.225
1.225
1.225
1.225
1.225
2.89146
3.10507
2.9568
2.85378
3.03613
3.1095
2.00034
1.24403
1.225
1.225
1.225
1.225
1.225
1.225
1.225
1.225
1.225
1.225
1.225
1.225
1.40991
1.97025
2.34856
2.22046
2.0569
1.567
1.23684
1.22501
1.225
1.225
1.225
1.225
1.225
1.225
1.225
1.225
1.225
1.225
1.225
1.225
1.22536
1.2364
1.26473
1.25628
1.24235
1.22635
1.225
1.225
1.225
1.225
1.225
1.225
1.225
1.225
1.225
1.225
1.225
1.225
1.225
1.225
1.225
1.225
1.22502
1.22501
1.225
1.225
1.225
1.225
1.225
1.225
1.225
1.225
1.225
1.225
1.225
1.225
1.225
1.225
1.225
1.225
1.225
1.225
1.225
1.225
1.225
1.225
1.225
1.225
1.225
1.225
1.225
1.225
1.225
1.225
1.225
1.225
1.225
1.225
1.225
1.225
1.225
1.225
1.225
1.225
1.225
1.225
1.225
1.225
1.225
1.225
1.225
1.225
1.225
1.225
1.225
1.225
1.225
1.225
1.225
1.225
1.225
1.225
1.225
1.225
1.225
1.225
1.225
1.225
1.225
1.225
1.225
1.225
1.225
1.225
1.225
1.225
1.225
1.225
1.225
1.225
0.27451
0.21136
0.254923
0.286893
0.318325
0.313466
0.272016
0.234039
0.189005
0.176326
0.226782
0.691082
2.60179
2.88185
1.40688
1.22535
1.225
1.225
1.225
1.225
0.21101
0.169929
0.219129
0.248992
0.277121
0.271704
0.236862
0.203624
0.156523
0.113399
0.113013
0.199846
1.11929
3.09878
1.96047
1.23605
1.225
1.225
1.225
1.225
0.254621
0.218922
0.276646
0.310558
0.330479
0.327241
0.299135
0.265934
0.205421
0.125434
0.119431
0.175957
0.801843
2.95209
2.33506
1.26354
1.22502
1.225
1.225
1.225
0.285949
0.248158
0.309043
0.243024
0.335345
0.339004
0.321405
0.294386
0.253071
0.0810955
0.0853172
0.153428
0.793207
2.84927
2.2093
1.25542
1.22501
1.225
1.225
1.225
0.317576
0.276347
0.331054
0.337091
0.04809
0.0371657
0.047871
0.148807
0.997527
3.02606
2.0451
1.2418
1.225
1.225
1.225
1.225
0.313242
0.27156
0.327326
0.33906
0.0379049
0.0458395
0.0893468
0.438111
2.20962
3.09067
1.55833
1.22628
1.225
1.225
1.225
1.225
0.272156
0.237012
0.299207
0.321485
0.0493269
0.274541
0.7613
2.1316
3.24071
1.98474
1.23622
1.225
1.225
1.225
1.225
1.225
0.234267
0.203807
0.26596
0.294779
0.41397
2.02663
2.66243
3.02023
1.94933
1.24315
1.225
1.225
1.225
1.225
1.225
1.225
0.18917
0.156587
0.206208
0.252988
0.0473488
0.0385471
0.0498426
0.382146
4.5314
2.16416
2.15749
1.56457
1.23432
1.225
1.225
1.225
1.225
1.225
1.225
1.225
0.17644
0.113526
0.126005
0.0817002
0.0371074
0.045721
0.283332
2.02962
2.13793
1.38862
1.25734
1.22622
1.225
1.225
1.225
1.225
1.225
1.225
1.225
1.225
0.226777
0.113098
0.119754
0.0857708
0.0477632
0.0892999
0.766083
2.64725
2.13548
1.25582
1.22503
1.225
1.225
1.225
1.225
1.225
1.225
1.225
1.225
1.225
0.690199
0.199435
0.175707
0.153189
0.147921
0.435354
2.1203
3.01201
1.56414
1.22622
1.225
1.225
1.225
1.225
1.225
1.225
1.225
1.225
1.225
1.225
2.59957
1.11472
0.797503
0.788773
0.991932
2.20095
3.23936
1.9576
1.23465
1.225
1.225
1.225
1.225
1.225
1.225
1.225
1.225
1.225
1.225
1.225
2.88463
3.09765
2.94738
2.84531
3.02616
3.09968
1.99686
1.24394
1.225
1.225
1.225
1.225
1.225
1.225
1.225
1.225
1.225
1.225
1.225
1.225
1.4082
1.96431
2.34014
2.21465
2.05245
1.56509
1.23675
1.22501
1.225
1.225
1.225
1.225
1.225
1.225
1.225
1.225
1.225
1.225
1.225
1.225
1.22535
1.23621
1.26414
1.25595
1.24222
1.22634
1.225
1.225
1.225
1.225
1.225
1.225
1.225
1.225
1.225
1.225
1.225
1.225
1.225
1.225
1.225
1.225
1.22502
1.22501
1.225
1.225
1.225
1.225
1.225
1.225
1.225
1.225
1.225
1.225
1.225
1.225
1.225
1.225
1.225
1.225
1.225
1.225
1.225
1.225
1.225
1.225
1.225
1.225
1.225
1.225
1.225
1.225
1.225
1.225
1.225
1.225
1.225
1.225
1.225
1.225
1.225
1.225
1.225
1.225
1.225
1.225
1.225
1.225
1.225
1.225
1.225
1.225
1.225
1.225
1.225
1.225
1.225
1.225
1.225
1.225
1.225
1.225
1.225
1.225
1.225
1.225
1.225
1.225
1.225
1.225
1.225
1.225
1.225
1.225
1.225
1.225
1.225
1.225
1.225
1.225
0.272234
0.208517
0.250066
0.280766
0.310853
0.304762
0.263746
0.225808
0.182643
0.171631
0.222827
0.688888
2.59604
2.85051
1.39825
1.22532
1.225
1.225
1.225
1.225
0.208144
0.166239
0.213157
0.242198
0.269373
0.262375
0.226326
0.192578
0.148037
0.108559
0.108724
0.195319
1.11475
3.07135
1.93396
1.23522
1.225
1.225
1.225
1.225
0.249725
0.212926
0.271675
0.300716
0.32677
0.321245
0.287925
0.248256
0.18912
0.118586
0.114297
0.170295
0.79026
2.92275
2.29671
1.26077
1.22502
1.225
1.225
1.225
0.279684
0.240753
0.302558
0.242806
0.32891
0.332141
0.309587
0.27288
0.229521
0.0758085
0.0805035
0.147428
0.776306
2.80627
2.16786
1.25292
1.22501
1.225
1.225
1.225
0.30999
0.268554
0.32703
0.330262
0.0455694
0.0344902
0.045254
0.143697
0.97967
2.97299
2.00233
1.24008
1.225
1.225
1.225
1.225
0.304502
0.262232
0.32126
0.33212
0.0379283
0.0435562
0.0859306
0.425724
2.1726
3.02263
1.5338
1.22609
1.225
1.225
1.225
1.225
0.263853
0.226456
0.287999
0.309672
0.0495942
0.266909
0.737247
2.08543
3.17579
1.93719
1.23477
1.225
1.225
1.225
1.225
1.225
0.226068
0.192803
0.24806
0.273533
0.382979
1.97083
2.60363
2.95596
1.90553
1.24094
1.225
1.225
1.225
1.225
1.225
1.225
0.182758
0.147824
0.190809
0.234049
0.0388871
0.0348481
0.0465883
0.534724
4.35477
2.11079
2.10735
1.54166
1.2332
1.225
1.225
1.225
1.225
1.225
1.225
1.225
0.171714
0.108639
0.119398
0.076485
0.0333618
0.0425547
0.292103
2.01186
2.08646
1.37137
1.25416
1.22606
1.225
1.225
1.225
1.225
1.225
1.225
1.225
1.225
0.222821
0.108789
0.114708
0.0808353
0.0444807
0.0859705
0.759989
2.60183
2.07475
1.25139
1.22502
1.225
1.225
1.225
1.225
1.225
1.225
1.225
1.225
1.225
0.688295
0.194974
0.170134
0.147072
0.142682
0.427334
2.08481
2.93079
1.53021
1.22598
1.225
1.225
1.225
1.225
1.225
1.225
1.225
1.225
1.225
1.225
2.59471
1.11145
0.786666
0.772062
0.977126
2.17493
3.16533
1.89529
1.23291
1.225
1.225
1.225
1.225
1.225
1.225
1.225
1.225
1.225
1.225
1.225
2.85143
3.07021
2.91958
2.80216
2.97145
3.02243
1.93276
1.24064
1.225
1.225
1.225
1.225
1.225
1.225
1.225
1.225
1.225
1.225
1.225
1.225
1.39879
1.93606
2.29976
2.16959
2.00179
1.53306
1.23466
1.225
1.225
1.225
1.225
1.225
1.225
1.225
1.225
1.225
1.225
1.225
1.225
1.225
1.22532
1.2353
1.26113
1.25313
1.24005
1.22609
1.225
1.225
1.225
1.225
1.225
1.225
1.225
1.225
1.225
1.225
1.225
1.225
1.225
1.225
1.225
1.225
1.22502
1.22501
1.225
1.225
1.225
1.225
1.225
1.225
1.225
1.225
1.225
1.225
1.225
1.225
1.225
1.225
1.225
1.225
1.225
1.225
1.225
1.225
1.225
1.225
1.225
1.225
1.225
1.225
1.225
1.225
1.225
1.225
1.225
1.225
1.225
1.225
1.225
1.225
1.225
1.225
1.225
1.225
1.225
1.225
1.225
1.225
1.225
1.225
1.225
1.225
1.225
1.225
1.225
1.225
1.225
1.225
1.225
1.225
1.225
1.225
1.225
1.225
1.225
1.225
1.225
1.225
1.225
1.225
1.225
1.225
1.225
1.225
1.225
1.225
1.225
1.225
1.225
1.225
0.269937
0.205621
0.24691
0.278816
0.310096
0.304655
0.263102
0.222036
0.177563
0.168007
0.22303
0.718691
2.66351
2.78962
1.37165
1.22523
1.225
1.225
1.225
1.225
0.205277
0.163432
0.212388
0.245237
0.275989
0.270116
0.230571
0.190354
0.140921
0.105153
0.106784
0.203688
1.20254
3.07805
1.86374
1.23275
1.225
1.225
1.225
1.225
0.246628
0.212178
0.295835
0.339456
0.369792
0.358246
0.31491
0.257894
0.18593
0.115077
0.111646
0.173639
0.84936
2.97871
2.20285
1.25205
1.22501
1.225
1.225
1.225
0.277837
0.243784
0.346946
0.283593
0.354132
0.345593
0.321951
0.276147
0.226313
0.069779
0.0732848
0.141727
0.811647
2.81983
2.05124
1.24449
1.22501
1.225
1.225
1.225
0.309411
0.275544
0.368374
0.349497
0.0340268
0.0283232
0.0390547
0.143035
1.05769
2.95092
1.86329
1.23405
1.225
1.225
1.225
1.225
0.30449
0.270021
0.358157
0.345844
0.0293517
0.0351897
0.0834767
0.468509
2.31298
2.86447
1.43768
1.22547
1.225
1.225
1.225
1.225
0.263185
0.230638
0.315022
0.321857
0.0404049
0.306389
0.800258
2.20537
3.04912
1.73801
1.2293
1.225
1.225
1.225
1.225
1.225
0.22234
0.190597
0.258098
0.276787
0.519416
1.96267
2.57434
2.75458
1.7068
1.23203
1.225
1.225
1.225
1.225
1.225
1.225
0.177722
0.140857
0.18591
0.22355
0.0378503
0.0320494
0.0428362
0.375564
3.0092
1.94499
1.90712
1.43035
1.22846
1.225
1.225
1.225
1.225
1.225
1.225
1.225
0.168095
0.105092
0.114828
0.0697578
0.0286271
0.0357572
0.302415
1.96153
1.94508
1.30895
1.23963
1.22541
1.225
1.225
1.225
1.225
1.225
1.225
1.225
1.225
0.223141
0.106723
0.111457
0.0733349
0.0395347
0.0848135
0.810577
2.5893
1.90226
1.23907
1.22501
1.225
1.225
1.225
1.225
1.225
1.225
1.225
1.225
1.225
0.719304
0.20374
0.173656
0.142095
0.144536
0.475467
2.2304
2.75428
1.42528
1.22538
1.225
1.225
1.225
1.225
1.225
1.225
1.225
1.225
1.225
1.225
2.66463
1.20382
0.850226
0.813014
1.06384
2.32913
3.05473
1.69981
1.22829
1.225
1.225
1.225
1.225
1.225
1.225
1.225
1.225
1.225
1.225
1.225
2.78708
3.07689
2.97771
2.82102
2.95571
2.86711
1.73272
1.23177
1.225
1.225
1.225
1.225
1.225
1.225
1.225
1.225
1.225
1.225
1.225
1.225
1.37068
1.86136
2.20022
2.05082
1.86273
1.43592
1.22916
1.225
1.225
1.225
1.225
1.225
1.225
1.225
1.225
1.225
1.225
1.225
1.225
1.225
1.22522
1.23267
1.25187
1.24445
1.23398
1.22545
1.225
1.225
1.225
1.225
1.225
1.225
1.225
1.225
1.225
1.225
1.225
1.225
1.225
1.225
1.225
1.225
1.22501
1.22501
1.225
1.225
1.225
1.225
1.225
1.225
1.225
1.225
1.225
1.225
1.225
1.225
1.225
1.225
1.225
1.225
1.225
1.225
1.225
1.225
1.225
1.225
1.225
1.225
1.225
1.225
1.225
1.225
1.225
1.225
1.225
1.225
1.225
1.225
1.225
1.225
1.225
1.225
1.225
1.225
1.225
1.225
1.225
1.225
1.225
1.225
1.225
1.225
1.225
1.225
1.225
1.225
1.225
1.225
1.225
1.225
1.225
1.225
1.225
1.225
1.225
1.225
1.225
1.225
1.225
1.225
1.225
1.225
1.225
1.225
1.225
1.225
1.225
1.225
1.225
1.225
0.26727
0.20248
0.243302
0.27582
0.307166
0.301552
0.259974
0.216912
0.171745
0.163821
0.222476
0.748059
2.72042
2.7145
1.34487
1.22515
1.225
1.225
1.225
1.225
0.20217
0.160446
0.210325
0.245589
0.278137
0.272177
0.231001
0.186413
0.133134
0.102452
0.105854
0.217654
1.32195
3.08169
1.78101
1.23041
1.225
1.225
1.225
1.225
0.243072
0.210275
0.311864
0.377641
0.423072
0.413732
0.357431
0.278989
0.192725
0.116703
0.114354
0.18946
0.969896
3.06403
2.0891
1.24357
1.225
1.225
1.225
1.225
0.274875
0.244701
0.376854
0.401708
0.483448
0.489788
0.453581
0.357974
0.286356
0.0895564
0.0873394
0.167463
0.97377
2.94259
1.94914
1.23785
1.225
1.225
1.225
1.225
0.306535
0.277674
0.423085
0.480109
0.134184
0.0380407
0.0491696
0.184109
1.34249
3.00325
1.71548
1.22932
1.225
1.225
1.225
1.225
0.301421
0.272108
0.413961
0.490665
0.028755
0.0433235
0.126953
0.697537
2.71435
2.6973
1.33404
1.22511
1.225
1.225
1.225
1.225
0.260027
0.231009
0.357466
0.45352
0.0331936
0.661148
1.14229
2.55172
2.89478
1.51005
1.22599
1.225
1.225
1.225
1.225
1.225
0.217272
0.186724
0.279217
0.358609
1.06664
2.13451
2.58445
2.49138
1.47916
1.22661
1.225
1.225
1.225
1.225
1.225
1.225
0.171892
0.132844
0.192553
0.373355
0.336683
0.0269326
0.0318747
1.66646
1.40833
1.70484
1.63733
1.3107
1.22573
1.225
1.225
1.225
1.225
1.225
1.225
1.225
0.163854
0.102251
0.115717
0.0887657
0.0386438
0.0438674
0.614112
2.15614
1.74437
1.24826
1.2286
1.22506
1.225
1.225
1.225
1.225
1.225
1.225
1.225
1.225
0.222603
0.105728
0.113611
0.0861125
0.0498526
0.123768
1.13087
2.61784
1.66726
1.22922
1.225
1.225
1.225
1.225
1.225
1.225
1.225
1.225
1.225
1.225
0.749805
0.218569
0.19001
0.167834
0.184761
0.687511
2.55861
2.52157
1.31627
1.22507
1.225
1.225
1.225
1.225
1.225
1.225
1.225
1.225
1.225
1.225
2.72387
1.33207
0.978972
0.981412
1.33744
2.69909
2.91121
1.48747
1.22578
1.225
1.225
1.225
1.225
1.225
1.225
1.225
1.225
1.225
1.225
1.225
2.70717
3.07964
3.06571
2.94436
3.00039
2.6975
1.51619
1.22669
1.225
1.225
1.225
1.225
1.225
1.225
1.225
1.225
1.225
1.225
1.225
1.225
1.34252
1.77281
2.07718
1.94241
1.71787
1.33575
1.22604
1.225
1.225
1.225
1.225
1.225
1.225
1.225
1.225
1.225
1.225
1.225
1.225
1.225
1.22515
1.2302
1.24284
1.2375
1.22937
1.22511
1.225
1.225
1.225
1.225
1.225
1.225
1.225
1.225
1.225
1.225
1.225
1.225
1.225
1.225
1.225
1.225
1.225
1.225
1.225
1.225
1.225
1.225
1.225
1.225
1.225
1.225
1.225
1.225
1.225
1.225
1.225
1.225
1.225
1.225
1.225
1.225
1.225
1.225
1.225
1.225
1.225
1.225
1.225
1.225
1.225
1.225
1.225
1.225
1.225
1.225
1.225
1.225
1.225
1.225
1.225
1.225
1.225
1.225
1.225
1.225
1.225
1.225
1.225
1.225
1.225
1.225
1.225
1.225
1.225
1.225
1.225
1.225
1.225
1.225
1.225
1.225
1.225
1.225
1.225
1.225
1.225
1.225
1.225
1.225
1.225
1.225
1.225
1.225
1.225
1.225
1.225
1.225
1.225
1.225
0.51374
0.571966
0.5864
0.481585
0.494286
0.550398
0.573313
0.49002
0.584286
0.553704
0.490056
0.469124
0.573421
0.536227
0.429473
0.544207
0.498872
0.453973
0.398781
0.529485
0.43795
0.314193
0.472817
0.382903
0.358267
0.273721
0.393417
14.8352
0.574486
0.51262
0.584802
0.478122
0.54307
0.492915
0.572147
0.10723
0.0345346
0.0365219
0.162675
0.0932144
0.0239581
0.0217097
0.58267
0.488852
0.552019
0.489015
0.572219
0.468274
0.534866
0.0313466
0.0379071
0.0341237
0.0265237
0.027167
0.03076
0.0284579
0.542985
0.429656
0.499359
0.45344
0.528221
0.399192
0.438838
2.22045e-16
2.0324
1.42734
0.0313911
2.22045e-16
0.330505
0.522574
0.473064
0.315537
0.38339
0.359366
0.395216
0.27708
14.6118
3.91953
1.45015
2.35614
1.61395
3.15974
3.41032
2.8936
0.037485
0.106752
0.0397315
0.146994
0.0261415
0.0828804
0.0240546
0.0411881
0.0342232
0.0366127
0.0290015
0.0334715
0.0294221
0.0303546
1.58027
2.22045e-16
1.21253
0.0337968
0.238101
2.22045e-16
0.395726
1.72869
3.96307
2.61664
1.05284
3.67367
2.83195
2.97375
0.409589
0.548986
0.574673
0.352059
0.349461
0.00286334
0.000886404
0.38674
0.575443
0.540147
0.34492
0.333304
0.000128705
8.27929e-06
0.334799
0.55231
0.382575
0.322176
0.296488
2.98008e-05
0.103491
0.251985
0.338357
2.22045e-16
0.276465
0.246941
0.107979
1.67479
0.535917
0.408435
0.573753
0.347505
2.22045e-16
0.351155
0.00089844
0.0312201
0.023245
0.0234351
0.0373693
0.0273758
0.0253331
0.0264326
0.57487
0.386587
0.53874
0.345914