/*--------------------------------*- C++ -*----------------------------------*\
  =========                 |
  \\      /  F ield         | OpenFOAM: The Open Source CFD Toolbox
   \\    /   O peration     | Website:  https://openfoam.org
    \\  /    A nd           | Version:  9
     \\/     M anipulation  |
\*---------------------------------------------------------------------------*/
FoamFile
{
    format      ascii;
    class       volScalarField;
    location    "0.0005";
    object      rho.C4;
}
// * * * * * * * * * * * * * * * * * * * * * * * * * * * * * * * * * * * * * //

dimensions      [1 -3 0 0 0 0 0];

internalField   nonuniform List<scalar> 
9720
(
264.985
259.563
331.128
377.411
419.025
407.973
346.835
284.112
220.285
179.611
185.771
232.667
344.095
495.066
68.8996
2.8315e-07
2.22045e-16
2.22045e-16
2.22045e-16
2.22045e-16
259.48
254.95
328.865
377.855
421.511
411.13
347.47
278.046
213.967
158.535
146.668
167.909
235.374
366.496
453.117
0.0573677
9.0725e-16
2.22045e-16
2.22045e-16
2.22045e-16
330.967
328.808
426.238
491.827
533.894
525.411
462.648
367.682
273.359
182.87
152.14
159.816
191.516
271.694
352.674
0.555561
2.15346e-13
2.22045e-16
2.22045e-16
2.22045e-16
376.902
377.414
491.538
524.412
602.231
610.076
573.704
478.732
340.8
144.962
114.842
121.386
146.241
207.607
264.398
0.231911
3.31281e-14
2.22045e-16
2.22045e-16
2.22045e-16
418.701
421.107
533.254
602.043
210.667
76.6954
68.9619
82.153
122.741
198.135
246.456
0.0322889
5.60358e-16
2.22045e-16
2.22045e-16
2.22045e-16
407.94
411.179
525.335
609.019
72.8379
67.0129
78.8245
107.267
166.113
244.372
97.8133
3.33559e-06
2.22045e-16
2.22045e-16
2.22045e-16
2.22045e-16
346.803
347.498
462.856
573.751
71.0446
90.3919
113.145
170.355
254.64
290.689
0.0164183
2.22045e-16
2.22045e-16
2.22045e-16
2.22045e-16
2.22045e-16
284.247
278.219
367.877
479.209
250.339
136.792
184.678
260.435
299.721
0.130002
5.78355e-15
2.22045e-16
2.22045e-16
2.22045e-16
2.22045e-16
2.22045e-16
220.366
214.084
272.489
338.272
206.793
76.9563
71.5641
246.203
0.229963
179.327
239.297
176.334
0.0258837
6.63273e-15
2.22045e-16
2.22045e-16
2.22045e-16
2.22045e-16
2.22045e-16
2.22045e-16
179.569
158.383
181.871
143.476
77.7052
68.2518
91.2424
139.4
183.051
1.80326
0.12088
2.41515e-05
3.53006e-16
2.22045e-16
2.22045e-16
2.22045e-16
2.22045e-16
2.22045e-16
2.22045e-16
2.22045e-16
185.791
146.647
151.82
114.821
69.9662
79.6168
114.057
185.513
243.394
0.14974
4.97422e-14
2.22045e-16
2.22045e-16
2.22045e-16
2.22045e-16
2.22045e-16
2.22045e-16
2.22045e-16
2.22045e-16
2.22045e-16
232.761
167.934
159.697
121.557
83.1913
108.11
171.237
261.977
184.012
1.73326e-05
2.22045e-16
2.22045e-16
2.22045e-16
2.22045e-16
2.22045e-16
2.22045e-16
2.22045e-16
2.22045e-16
2.22045e-16
2.22045e-16
344.237
235.465
191.609
146.72
124.015
167.305
255.945
299.58
0.0234916
2.22045e-16
2.22045e-16
2.22045e-16
2.22045e-16
2.22045e-16
2.22045e-16
2.22045e-16
2.22045e-16
2.22045e-16
2.22045e-16
2.22045e-16
494.996
366.546
271.983
208.477
199.983
246.024
292.329
0.118805
4.98044e-15
2.22045e-16
2.22045e-16
2.22045e-16
2.22045e-16
2.22045e-16
2.22045e-16
2.22045e-16
2.22045e-16
2.22045e-16
2.22045e-16
2.22045e-16
67.4376
451.366
352.543
265.359
248.663
95.2564
0.0152193
3.83482e-15
2.22045e-16
2.22045e-16
2.22045e-16
2.22045e-16
2.22045e-16
2.22045e-16
2.22045e-16
2.22045e-16
2.22045e-16
2.22045e-16
2.22045e-16
2.22045e-16
2.65048e-07
0.0544748
0.528129
0.224199
0.0314251
2.93549e-06
2.22045e-16
2.22045e-16
2.22045e-16
2.22045e-16
2.22045e-16
2.22045e-16
2.22045e-16
2.22045e-16
2.22045e-16
2.22045e-16
2.22045e-16
2.22045e-16
2.22045e-16
2.22045e-16
2.22045e-16
8.19921e-16
1.85476e-13
3.06623e-14
5.21887e-16
2.22045e-16
2.22045e-16
2.22045e-16
2.22045e-16
2.22045e-16
2.22045e-16
2.22045e-16
2.22045e-16
2.22045e-16
2.22045e-16
2.22045e-16
2.22045e-16
2.22045e-16
2.22045e-16
2.22045e-16
2.22045e-16
2.22045e-16
2.22045e-16
2.22045e-16
2.22045e-16
2.22045e-16
2.22045e-16
2.22045e-16
2.22045e-16
2.22045e-16
2.22045e-16
2.22045e-16
2.22045e-16
2.22045e-16
2.22045e-16
2.22045e-16
2.22045e-16
2.22045e-16
2.22045e-16
2.22045e-16
2.22045e-16
2.22045e-16
2.22045e-16
2.22045e-16
2.22045e-16
2.22045e-16
2.22045e-16
2.22045e-16
2.22045e-16
2.22045e-16
2.22045e-16
2.22045e-16
2.22045e-16
2.22045e-16
2.22045e-16
2.22045e-16
2.22045e-16
2.22045e-16
2.22045e-16
2.22045e-16
2.22045e-16
2.22045e-16
2.22045e-16
2.22045e-16
2.22045e-16
2.22045e-16
2.22045e-16
2.22045e-16
2.22045e-16
2.22045e-16
2.22045e-16
2.22045e-16
2.22045e-16
2.22045e-16
2.22045e-16
2.22045e-16
2.22045e-16
2.22045e-16
2.22045e-16
2.22045e-16
270.376
265.71
339.268
385.735
427.605
417.286
356.508
295.969
233.224
186.962
190.336
233.78
338.989
489.11
108.761
1.22586e-06
2.22045e-16
2.22045e-16
2.22045e-16
2.22045e-16
265.601
261.786
337.543
386.613
428.386
417.595
356.133
290.001
228.388
167.72
150.24
168.553
230.186
355.988
450.285
0.129804
4.88278e-15
2.22045e-16
2.22045e-16
2.22045e-16
339.052
337.45
435.63
499.524
538.003
527.701
468.921
379.679
284.743
189.771
151.888
157.433
185.819
260.32
343.828
1.30919
3.03384e-12
2.22045e-16
2.22045e-16
2.22045e-16
385.046
386.055
499.223
521.534
597.847
597.681
564.107
474.644
342.255
140.433
108.952
114.36
136.693
192.952
251.393
0.597141
5.52562e-13
2.22045e-16
2.22045e-16
2.22045e-16
427.088
427.909
537.397
595.408
176.509
76.4057
66.8432
76.9628
110.257
178.971
235.251
0.166473
1.74718e-14
2.22045e-16
2.22045e-16
2.22045e-16
417.163
417.512
527.711
597.856
63.8788
67.312
75.0585
98.0005
149.346
227.047
252.506
0.000677887
2.22045e-16
2.22045e-16
2.22045e-16
2.22045e-16
356.45
356.102
468.982
564.158
57.2166
88.1859
109.457
157.763
238.404
289.275
0.325862
4.02002e-14
2.22045e-16
2.22045e-16
2.22045e-16
2.22045e-16
296.06
290.104
379.816
475.095
143.387
138.693
178.693
253.189
305.648
1.7024
5.56836e-12
2.22045e-16
2.22045e-16
2.22045e-16
2.22045e-16
2.22045e-16
233.297
228.468
284.237
338.902
176.273
67.2034
59.1211
130.189
194.043
193.958
248.453
286.731
0.36012
6.27605e-12
2.22045e-16
2.22045e-16
2.22045e-16
2.22045e-16
2.22045e-16
2.22045e-16
186.966
167.649
189.215
140.372
78.6722
69.7261
89.2292
137.546
191.257
32.3594
1.98302
0.00243244
6.02631e-14
2.22045e-16
2.22045e-16
2.22045e-16
2.22045e-16
2.22045e-16
2.22045e-16
2.22045e-16
190.402
150.23
151.726
109.304
68.3443
76.6685
111.453
180.344
250.125
2.04234
8.51276e-11
2.22045e-16
2.22045e-16
2.22045e-16
2.22045e-16
2.22045e-16
2.22045e-16
2.22045e-16
2.22045e-16
2.22045e-16
233.924
168.598
157.394
114.736
78.3246
99.3035
159.888
255.999
289.087
0.00196375
2.22045e-16
2.22045e-16
2.22045e-16
2.22045e-16
2.22045e-16
2.22045e-16
2.22045e-16
2.22045e-16
2.22045e-16
2.22045e-16
339.214
230.324
185.963
137.183
111.549
150.778
240.624
308.177
0.337533
3.8136e-14
2.22045e-16
2.22045e-16
2.22045e-16
2.22045e-16
2.22045e-16
2.22045e-16
2.22045e-16
2.22045e-16
2.22045e-16
2.22045e-16
489.316
356.217
260.615
193.663
180.547
229.018
291.639
1.66133
5.4005e-12
2.22045e-16
2.22045e-16
2.22045e-16
2.22045e-16
2.22045e-16
2.22045e-16
2.22045e-16
2.22045e-16
2.22045e-16
2.22045e-16
2.22045e-16
107.477
450.289
344.124
252.417
237.324
254.857
0.328728
4.55789e-12
2.22045e-16
2.22045e-16
2.22045e-16
2.22045e-16
2.22045e-16
2.22045e-16
2.22045e-16
2.22045e-16
2.22045e-16
2.22045e-16
2.22045e-16
2.22045e-16
1.17949e-06
0.127543
1.29914
0.607524
0.173516
0.000705908
3.91563e-14
2.22045e-16
2.22045e-16
2.22045e-16
2.22045e-16
2.22045e-16
2.22045e-16
2.22045e-16
2.22045e-16
2.22045e-16
2.22045e-16
2.22045e-16
2.22045e-16
2.22045e-16
2.22045e-16
4.71068e-15
2.95405e-12
5.76876e-13
1.88447e-14
2.22045e-16
2.22045e-16
2.22045e-16
2.22045e-16
2.22045e-16
2.22045e-16
2.22045e-16
2.22045e-16
2.22045e-16
2.22045e-16
2.22045e-16
2.22045e-16
2.22045e-16
2.22045e-16
2.22045e-16
2.22045e-16
2.22045e-16
2.22045e-16
2.22045e-16
2.22045e-16
2.22045e-16
2.22045e-16
2.22045e-16
2.22045e-16
2.22045e-16
2.22045e-16
2.22045e-16
2.22045e-16
2.22045e-16
2.22045e-16
2.22045e-16
2.22045e-16
2.22045e-16
2.22045e-16
2.22045e-16
2.22045e-16
2.22045e-16
2.22045e-16
2.22045e-16
2.22045e-16
2.22045e-16
2.22045e-16
2.22045e-16
2.22045e-16
2.22045e-16
2.22045e-16
2.22045e-16
2.22045e-16
2.22045e-16
2.22045e-16
2.22045e-16
2.22045e-16
2.22045e-16
2.22045e-16
2.22045e-16
2.22045e-16
2.22045e-16
2.22045e-16
2.22045e-16
2.22045e-16
2.22045e-16
2.22045e-16
2.22045e-16
2.22045e-16
2.22045e-16
2.22045e-16
2.22045e-16
2.22045e-16
2.22045e-16
2.22045e-16
2.22045e-16
2.22045e-16
2.22045e-16
2.22045e-16
2.22045e-16
275.676
271.881
347.592
393.887
435.103
424.522
365.337
307.626
244.93
194.084
194.165
233.247
333.614
483.538
161.838
4.89984e-06
2.22045e-16
2.22045e-16
2.22045e-16
2.22045e-16
271.747
268.659
346.141
395.378
434.881
422.627
364.078
302.735
242.172
178.005
154.87
170.847
228.215
350.084
447.553
0.23609
1.66688e-14
2.22045e-16
2.22045e-16
2.22045e-16
347.32
346.022
443.584
506.79
543.215
531.786
477.271
396.397
305.998
206.804
160.156
163.233
188.682
259.589
345.234
2.37165
1.84376e-11
2.22045e-16
2.22045e-16
2.22045e-16
393.085
394.677
506.202
525.54
604.541
606.081
575.645
493.28
363.815
166.79
126.688
129.814
149.532
203.31
264.752
1.26625
4.86693e-12
2.22045e-16
2.22045e-16
2.22045e-16
434.672
434.561
543.07
602.134
186.075
96.9231
81.7834
90.2404
121.319
189.348
252.595
0.475151
2.36179e-13
2.22045e-16
2.22045e-16
2.22045e-16
424.53
422.701
532.09
606.647
77.9646
85.2816
90.2251
110.79
160.029
240.699
276.921
0.00422894
2.22045e-16
2.22045e-16
2.22045e-16
2.22045e-16
365.368
364.12
477.308
575.849
78.5511
105.906
124.948
170.125
251.12
314.989
1.60965
4.07614e-12
2.22045e-16
2.22045e-16
2.22045e-16
2.22045e-16
307.675
302.707
396.552
493.647
155.047
156.191
193.79
270.24
333.664
7.84774
4.99273e-10
2.22045e-16
2.22045e-16
2.22045e-16
2.22045e-16
2.22045e-16
244.88
242.101
307.456
365.378
188.433
77.8841
78.8358
157.999
413.691
215.659
274.034
320.552
1.81901
5.51361e-10
2.22045e-16
2.22045e-16
2.22045e-16
2.22045e-16
2.22045e-16
2.22045e-16
194.063
178.24
208.372
168.419
93.8404
82.7807
105.742
159.464
220.149
84.8281
8.45585
0.0154558
6.10908e-12
2.22045e-16
2.22045e-16
2.22045e-16
2.22045e-16
2.22045e-16
2.22045e-16
2.22045e-16
193.985
154.815
160.592
126.363
79.8903
88.7666
124
195.329
273.369
4.56386
3.29777e-09
2.22045e-16
2.22045e-16
2.22045e-16
2.22045e-16
2.22045e-16
2.22045e-16
2.22045e-16
2.22045e-16
2.22045e-16
232.823
170.676
163.325
129.26
88.5641
109.76
169.469
270.224
319.145
0.010074
2.22045e-16
2.22045e-16
2.22045e-16
2.22045e-16
2.22045e-16
2.22045e-16
2.22045e-16
2.22045e-16
2.22045e-16
2.22045e-16
333.022
227.834
188.362
148.665
119.782
159.071
250.92
332.871
1.68332
4.5154e-12
2.22045e-16
2.22045e-16
2.22045e-16
2.22045e-16
2.22045e-16
2.22045e-16
2.22045e-16
2.22045e-16
2.22045e-16
2.22045e-16
482.951
349.539
258.903
202.141
187.708
239.683
314.398
7.80061
5.333e-10
2.22045e-16
2.22045e-16
2.22045e-16
2.22045e-16
2.22045e-16
2.22045e-16
2.22045e-16
2.22045e-16
2.22045e-16
2.22045e-16
2.22045e-16
163.343
447.158
344.593
263.851
250.854
276.741
1.61678
4.68461e-10
2.22045e-16
2.22045e-16
2.22045e-16
2.22045e-16
2.22045e-16
2.22045e-16
2.22045e-16
2.22045e-16
2.22045e-16
2.22045e-16
2.22045e-16
2.22045e-16
5.08587e-06
0.241931
2.45072
1.32373
0.491716
0.00436461
4.12362e-12
2.22045e-16
2.22045e-16
2.22045e-16
2.22045e-16
2.22045e-16
2.22045e-16
2.22045e-16
2.22045e-16
2.22045e-16
2.22045e-16
2.22045e-16
2.22045e-16
2.22045e-16
2.22045e-16
1.75497e-14
2.04899e-11
5.62476e-12
2.6556e-13
2.22045e-16
2.22045e-16
2.22045e-16
2.22045e-16
2.22045e-16
2.22045e-16
2.22045e-16
2.22045e-16
2.22045e-16
2.22045e-16
2.22045e-16
2.22045e-16
2.22045e-16
2.22045e-16
2.22045e-16
2.22045e-16
2.22045e-16
2.22045e-16
2.22045e-16
2.22045e-16
2.22045e-16
2.22045e-16
2.22045e-16
2.22045e-16
2.22045e-16
2.22045e-16
2.22045e-16
2.22045e-16
2.22045e-16
2.22045e-16
2.22045e-16
2.22045e-16
2.22045e-16
2.22045e-16
2.22045e-16
2.22045e-16
2.22045e-16
2.22045e-16
2.22045e-16
2.22045e-16
2.22045e-16
2.22045e-16
2.22045e-16
2.22045e-16
2.22045e-16
2.22045e-16
2.22045e-16
2.22045e-16
2.22045e-16
2.22045e-16
2.22045e-16
2.22045e-16
2.22045e-16
2.22045e-16
2.22045e-16
2.22045e-16
2.22045e-16
2.22045e-16
2.22045e-16
2.22045e-16
2.22045e-16
2.22045e-16
2.22045e-16
2.22045e-16
2.22045e-16
2.22045e-16
2.22045e-16
2.22045e-16
2.22045e-16
2.22045e-16
2.22045e-16
2.22045e-16
2.22045e-16
2.22045e-16
2.22045e-16
279.476
276.964
356.629
404.301
447.676
440.455
381.654
323.198
256.185
200.724
199.359
237.18
337.096
488.134
181.299
7.21286e-06
2.22045e-16
2.22045e-16
2.22045e-16
2.22045e-16
276.931
275.457
359.362
414.603
457.19
446.551
387.592
323.432
256.659
186.715
160.497
176.017
232.94
354.97
455.626
0.277442
2.26436e-14
2.22045e-16
2.22045e-16
2.22045e-16
356.561
359.457
462.735
528.334
564.808
555.408
506.757
431.256
333.446
220.474
167.077
169.402
194.378
265.191
351.918
2.71426
2.66918e-11
2.22045e-16
2.22045e-16
2.22045e-16
404.125
414.833
528.711
539.797
617.629
621.464
594.771
529.864
408.461
181.835
133.044
135.485
155.16
209.723
272.875
1.46186
7.06127e-12
2.22045e-16
2.22045e-16
2.22045e-16
447.872
457.597
565.17
619.121
220.459
104
85.5141
93.9346
125.73
195.64
261.083
0.561356
3.63948e-13
2.22045e-16
2.22045e-16
2.22045e-16
440.702
446.935
555.658
621.643
96.9664
88.2412
93.6929
115.31
166.297
249.787
290.308
0.00544487
2.22045e-16
2.22045e-16
2.22045e-16
2.22045e-16
381.912
387.895
507.012
594.984
88.7685
109.544
130.174
177.415
261.015
327.459
1.9957
7.24863e-12
2.22045e-16
2.22045e-16
2.22045e-16
2.22045e-16
323.228
323.419
431.383
530.165
146.008
161.755
201.388
280.96
346.737
9.63716
8.58957e-10
2.22045e-16
2.22045e-16
2.22045e-16
2.22045e-16
2.22045e-16
256.21
256.684
334.702
412.5
216.459
89.8055
82.9919
164.013
412.924
222.712
284.142
335.404
2.25056
9.45136e-10
2.22045e-16
2.22045e-16
2.22045e-16
2.22045e-16
2.22045e-16
2.22045e-16
200.922
187.148
222.045
184.502
104.13
87.4007
108.898
161.731
223.04
99.5899
9.58014
0.0192748
1.07325e-11
2.22045e-16
2.22045e-16
2.22045e-16
2.22045e-16
2.22045e-16
2.22045e-16
2.22045e-16
199.456
160.829
168.027
134.062
85.3966
93.6009
129.417
201.242
282.449
6.40133
4.96085e-09
2.22045e-16
2.22045e-16
2.22045e-16
2.22045e-16
2.22045e-16
2.22045e-16
2.22045e-16
2.22045e-16
2.22045e-16
237.098
176.289
170.14
136.257
93.8056
115.36
177.067
280.889
331.975
0.0147443
2.22045e-16
2.22045e-16
2.22045e-16
2.22045e-16
2.22045e-16
2.22045e-16
2.22045e-16
2.22045e-16
2.22045e-16
2.22045e-16
336.947
233.169
194.886
155.658
125.51
166.186
261.184
347.372
2.26228
9.99151e-12
2.22045e-16
2.22045e-16
2.22045e-16
2.22045e-16
2.22045e-16
2.22045e-16
2.22045e-16
2.22045e-16
2.22045e-16
2.22045e-16
488.281
355.248
265.57
210.035
195.21
249.663
328.19
10.2808
1.12501e-09
2.22045e-16
2.22045e-16
2.22045e-16
2.22045e-16
2.22045e-16
2.22045e-16
2.22045e-16
2.22045e-16
2.22045e-16
2.22045e-16
2.22045e-16
186.394
457.288
352.669
273.492
260.785
290.339
2.15794
9.96972e-10
2.22045e-16
2.22045e-16
2.22045e-16
2.22045e-16
2.22045e-16
2.22045e-16
2.22045e-16
2.22045e-16
2.22045e-16
2.22045e-16
2.22045e-16
2.22045e-16
8.00081e-06
0.293123
2.87451
1.57065
0.607155
0.00601786
9.07209e-12
2.22045e-16
2.22045e-16
2.22045e-16
2.22045e-16
2.22045e-16
2.22045e-16
2.22045e-16
2.22045e-16
2.22045e-16
2.22045e-16
2.22045e-16
2.22045e-16
2.22045e-16
2.22045e-16
2.52557e-14
3.17226e-11
8.77182e-12
4.64903e-13
2.22045e-16
2.22045e-16
2.22045e-16
2.22045e-16
2.22045e-16
2.22045e-16
2.22045e-16
2.22045e-16
2.22045e-16
2.22045e-16
2.22045e-16
2.22045e-16
2.22045e-16
2.22045e-16
2.22045e-16
2.22045e-16
2.22045e-16
2.22045e-16
2.22045e-16
2.22045e-16
2.22045e-16
2.22045e-16
2.22045e-16
2.22045e-16
2.22045e-16
2.22045e-16
2.22045e-16
2.22045e-16
2.22045e-16
2.22045e-16
2.22045e-16
2.22045e-16
2.22045e-16
2.22045e-16
2.22045e-16
2.22045e-16
2.22045e-16
2.22045e-16
2.22045e-16
2.22045e-16
2.22045e-16
2.22045e-16
2.22045e-16
2.22045e-16
2.22045e-16
2.22045e-16
2.22045e-16
2.22045e-16
2.22045e-16
2.22045e-16
2.22045e-16
2.22045e-16
2.22045e-16
2.22045e-16
2.22045e-16
2.22045e-16
2.22045e-16
2.22045e-16
2.22045e-16
2.22045e-16
2.22045e-16
2.22045e-16
2.22045e-16
2.22045e-16
2.22045e-16
2.22045e-16
2.22045e-16
2.22045e-16
2.22045e-16
2.22045e-16
2.22045e-16
2.22045e-16
2.22045e-16
2.22045e-16
2.22045e-16
280.195
278.046
358.989
408.128
453.19
446.658
386.809
327.044
258.321
201.789
200.293
238.239
338.427
489.8
182.885
7.3781e-06
2.22045e-16
2.22045e-16
2.22045e-16
2.22045e-16
277.953
277.097
364.173
423.234
469.213
459.447
397.497
329.005
259.353
187.878
161.358
176.953
234.147
356.58
457.426
0.279606
2.28871e-14
2.22045e-16
2.22045e-16
2.22045e-16
358.765
364.076
472.865
544.715
584.722
576.756
526.514
444.179
338.695
221.835
167.795
170.169
195.336
266.509
353.427
2.72652
2.68035e-11
2.22045e-16
2.22045e-16
2.22045e-16
407.518
422.605
544.33
570.533
650.497
655.573
635.439
570.085
429.714
182.756
133.412
135.886
155.724
210.585
273.917
1.4748
7.19344e-12
2.22045e-16
2.22045e-16
2.22045e-16
452.813
468.827
584.34
648.961
226.302
104.899
85.6872
94.2441
126.329
196.684
262.312
0.564912
3.67411e-13
2.22045e-16
2.22045e-16
2.22045e-16
446.677
459.64
576.996
655.383
88.2411
87.7136
93.7324
115.816
167.355
251.347
291.853
0.00535262
2.22045e-16
2.22045e-16
2.22045e-16
2.22045e-16
386.969
397.736
526.795
635.679
81.7614
108.563
130.093
178.312
262.719
329.103
1.91485
6.34668e-12
2.22045e-16
2.22045e-16
2.22045e-16
2.22045e-16
327.177
329.151
444.47
570.611
165.421
159.588
200.464
281.517
347.889
9.04594
6.93953e-10
2.22045e-16
2.22045e-16
2.22045e-16
2.22045e-16
2.22045e-16
258.435
259.451
339.317
430.196
226.906
90.7406
84
157.309
438.841
219.19
281.555
331.896
2.05819
7.68339e-10
2.22045e-16
2.22045e-16
2.22045e-16
2.22045e-16
2.22045e-16
2.22045e-16
201.922
188.089
222.506
183.933
105.627
88.4958
109.481
161.501
222.582
102.738
8.7087
0.0171348
8.21893e-12
2.22045e-16
2.22045e-16
2.22045e-16
2.22045e-16
2.22045e-16
2.22045e-16
2.22045e-16
200.35
161.495
168.216
133.982
86.1522
94.441
130.902
202.943
285.782
7.56483
4.67738e-09
2.22045e-16
2.22045e-16
2.22045e-16
2.22045e-16
2.22045e-16
2.22045e-16
2.22045e-16
2.22045e-16
2.22045e-16
238.217
177.066
170.498
136.34
94.6037
116.306
179.063
284.052
336.919
0.0160447
2.22045e-16
2.22045e-16
2.22045e-16
2.22045e-16
2.22045e-16
2.22045e-16
2.22045e-16
2.22045e-16
2.22045e-16
2.22045e-16
338.379
234.272
195.62
156.073
126.57
167.635
263.644
350.776
2.29105
9.93378e-12
2.22045e-16
2.22045e-16
2.22045e-16
2.22045e-16
2.22045e-16
2.22045e-16
2.22045e-16
2.22045e-16
2.22045e-16
2.22045e-16
490.027
356.786
266.777
210.866
196.83
251.833
331.029
10.3269
1.11222e-09
2.22045e-16
2.22045e-16
2.22045e-16
2.22045e-16
2.22045e-16
2.22045e-16
2.22045e-16
2.22045e-16
2.22045e-16
2.22045e-16
2.22045e-16
187.952
458.987
354.062
274.491
262.86
292.812
2.194
9.85894e-10
2.22045e-16
2.22045e-16
2.22045e-16
2.22045e-16
2.22045e-16
2.22045e-16
2.22045e-16
2.22045e-16
2.22045e-16
2.22045e-16
2.22045e-16
2.22045e-16
8.16411e-06
0.294862
2.87582
1.56989
0.618121
0.00618407
9.33058e-12
2.22045e-16
2.22045e-16
2.22045e-16
2.22045e-16
2.22045e-16
2.22045e-16
2.22045e-16
2.22045e-16
2.22045e-16
2.22045e-16
2.22045e-16
2.22045e-16
2.22045e-16
2.22045e-16
2.54378e-14
3.14662e-11
8.68515e-12
4.83057e-13
2.22045e-16
2.22045e-16
2.22045e-16
2.22045e-16
2.22045e-16
2.22045e-16
2.22045e-16
2.22045e-16
2.22045e-16
2.22045e-16
2.22045e-16
2.22045e-16
2.22045e-16
2.22045e-16
2.22045e-16
2.22045e-16
2.22045e-16
2.22045e-16
2.22045e-16
2.22045e-16
2.22045e-16
2.22045e-16
2.22045e-16
2.22045e-16
2.22045e-16
2.22045e-16
2.22045e-16
2.22045e-16
2.22045e-16
2.22045e-16
2.22045e-16
2.22045e-16
2.22045e-16
2.22045e-16
2.22045e-16
2.22045e-16
2.22045e-16
2.22045e-16
2.22045e-16
2.22045e-16
2.22045e-16
2.22045e-16
2.22045e-16
2.22045e-16
2.22045e-16
2.22045e-16
2.22045e-16
2.22045e-16
2.22045e-16
2.22045e-16
2.22045e-16
2.22045e-16
2.22045e-16
2.22045e-16
2.22045e-16
2.22045e-16
2.22045e-16
2.22045e-16
2.22045e-16
2.22045e-16
2.22045e-16
2.22045e-16
2.22045e-16
2.22045e-16
2.22045e-16
2.22045e-16
2.22045e-16
2.22045e-16
2.22045e-16
2.22045e-16
2.22045e-16
2.22045e-16
2.22045e-16
2.22045e-16
2.22045e-16
280.202
278.094
359.092
408.322
453.332
446.719
386.846
327.063
258.333
201.782
200.295
238.246
338.427
489.786
182.828
7.36941e-06
2.22045e-16
2.22045e-16
2.22045e-16
2.22045e-16
277.921
277.105
364.242
423.427
469.364
459.495
397.515
329.038
259.367
187.835
161.356
176.959
234.159
356.588
457.377
0.279111
2.28076e-14
2.22045e-16
2.22045e-16
2.22045e-16
358.69
364.077
472.906
544.881
584.864
576.741
526.567
444.16
338.379
221.563
167.752
170.173
195.391
266.592
353.516
2.72431
2.67205e-11
2.22045e-16
2.22045e-16
2.22045e-16
407.352
422.558
544.333
574.735
658.332
663.839
641.033
571.348
428.814
182.521
133.541
136.042
155.938
210.888
274.328
1.48423
7.31296e-12
2.22045e-16
2.22045e-16
2.22045e-16
452.7
468.763
584.213
655.681
226.231
105.424
86.1657
94.6767
126.794
197.316
263.194
0.571322
3.77969e-13
2.22045e-16
2.22045e-16
2.22045e-16
446.615
459.599
577.043
664.307
91.7895
88.6828
94.2419
116.13
167.713
251.917
292.604
0.00533835
2.22045e-16
2.22045e-16
2.22045e-16
2.22045e-16
386.922
397.694
526.75
641.308
84.4862
109.162
130.706
178.854
263.284
329.676
1.87923
5.96126e-12
2.22045e-16
2.22045e-16
2.22045e-16
2.22045e-16
327.159
329.105
444.505
572.107
152.785
160.258
201.884
283.029
348.887
8.7618
6.15742e-10
2.22045e-16
2.22045e-16
2.22045e-16
2.22045e-16
2.22045e-16
258.403
259.448
339.613
433.438
229.528
88.4191
83.0011
163.844
461.564
220.288
284.624
334.008
1.98071
6.83324e-10
2.22045e-16
2.22045e-16
2.22045e-16
2.22045e-16
2.22045e-16
2.22045e-16
201.935
188.162
222.899
184.323
104.073
87.5869
109.184
162.157
223.588
106.934
9.23271
0.0168556
7.19617e-12
2.22045e-16
2.22045e-16
2.22045e-16
2.22045e-16
2.22045e-16
2.22045e-16
2.22045e-16
200.363
161.579
168.507
134.223
85.728
93.8587
130.108
201.547
282.894
7.24187
4.98725e-09
2.22045e-16
2.22045e-16
2.22045e-16
2.22045e-16
2.22045e-16
2.22045e-16
2.22045e-16
2.22045e-16
2.22045e-16
238.195
177.162
170.76
136.564
94.3236
115.987
178.309
282.015
332.74
0.0151941
2.22045e-16
2.22045e-16
2.22045e-16
2.22045e-16
2.22045e-16
2.22045e-16
2.22045e-16
2.22045e-16
2.22045e-16
2.22045e-16
338.381
234.381
195.831
156.271
126.486
167.463
262.991
348.974
2.19715
8.78936e-12
2.22045e-16
2.22045e-16
2.22045e-16
2.22045e-16
2.22045e-16
2.22045e-16
2.22045e-16
2.22045e-16
2.22045e-16
2.22045e-16
490.058
356.902
266.948
211.046
196.904
251.633
330.125
9.88989
9.79709e-10
2.22045e-16
2.22045e-16
2.22045e-16
2.22045e-16
2.22045e-16
2.22045e-16
2.22045e-16
2.22045e-16
2.22045e-16
2.22045e-16
2.22045e-16
187.555
459.044
354.214
274.642
262.905
292.456
2.09328
8.72864e-10
2.22045e-16
2.22045e-16
2.22045e-16
2.22045e-16
2.22045e-16
2.22045e-16
2.22045e-16
2.22045e-16
2.22045e-16
2.22045e-16
2.22045e-16
2.22045e-16
8.0962e-06
0.293877
2.8629
1.55469
0.602607
0.00589721
8.07153e-12
2.22045e-16
2.22045e-16
2.22045e-16
2.22045e-16
2.22045e-16
2.22045e-16
2.22045e-16
2.22045e-16
2.22045e-16
2.22045e-16
2.22045e-16
2.22045e-16
2.22045e-16
2.22045e-16
2.52585e-14
3.10013e-11
8.41333e-12
4.459e-13
2.22045e-16
2.22045e-16
2.22045e-16
2.22045e-16
2.22045e-16
2.22045e-16
2.22045e-16
2.22045e-16
2.22045e-16
2.22045e-16
2.22045e-16
2.22045e-16
2.22045e-16
2.22045e-16
2.22045e-16
2.22045e-16
2.22045e-16
2.22045e-16
2.22045e-16
2.22045e-16
2.22045e-16
2.22045e-16
2.22045e-16
2.22045e-16
2.22045e-16
2.22045e-16
2.22045e-16
2.22045e-16
2.22045e-16
2.22045e-16
2.22045e-16
2.22045e-16
2.22045e-16
2.22045e-16
2.22045e-16
2.22045e-16
2.22045e-16
2.22045e-16
2.22045e-16
2.22045e-16
2.22045e-16
2.22045e-16
2.22045e-16
2.22045e-16
2.22045e-16
2.22045e-16
2.22045e-16
2.22045e-16
2.22045e-16
2.22045e-16
2.22045e-16
2.22045e-16
2.22045e-16
2.22045e-16
2.22045e-16
2.22045e-16
2.22045e-16
2.22045e-16
2.22045e-16
2.22045e-16
2.22045e-16
2.22045e-16
2.22045e-16
2.22045e-16
2.22045e-16
2.22045e-16
2.22045e-16
2.22045e-16
2.22045e-16
2.22045e-16
2.22045e-16
2.22045e-16
2.22045e-16
2.22045e-16
2.22045e-16
279.523
277.098
356.869
404.802
448.12
440.656
381.723
323.176
256.157
200.743
199.427
237.299
337.194
488.143
180.789
7.13718e-06
2.22045e-16
2.22045e-16
2.22045e-16
2.22045e-16
276.901
275.522
359.564
415.194
457.608
446.659
387.629
323.419
256.617
186.684
160.572
176.105
233.021
355.006
455.32
0.274537
2.21753e-14
2.22045e-16
2.22045e-16
2.22045e-16
356.43
359.452
462.839
528.823
565.195
555.405
506.825
431.138
332.993
220.105
167.024
169.42
194.448
265.274
351.907
2.69042
2.59749e-11
2.22045e-16
2.22045e-16
2.22045e-16
403.713
414.451
528.4
559.169
635.482
637.207
616.842
558.588
426.934
181.756
133.228
135.679
155.428
210.159
273.477
1.47499
7.22607e-12
2.22045e-16
2.22045e-16
2.22045e-16
447.422
457.154
564.72
632.988
225.891
105.2
86.066
94.5161
126.465
196.73
262.559
0.570367
3.78242e-13
2.22045e-16
2.22045e-16
2.22045e-16
440.476
446.819
555.692
637.646
91.6715
88.8171
94.2367
115.926
167.245
251.22
291.999
0.00534511
2.22045e-16
2.22045e-16
2.22045e-16
2.22045e-16
381.831
387.858
507.036
616.924
84.5082
109.391
130.66
178.437
262.587
329.028
1.88291
5.99491e-12
2.22045e-16
2.22045e-16
2.22045e-16
2.22045e-16
323.366
323.615
431.531
559.277
156.099
160.541
201.819
282.609
348.365
8.77936
6.29766e-10
2.22045e-16
2.22045e-16
2.22045e-16
2.22045e-16
2.22045e-16
256.292
256.732
333.693
427.54
225.347
92.7317
85.0709
152.386
440.932
220.61
284.838
333.94
1.98988
6.97482e-10
2.22045e-16
2.22045e-16
2.22045e-16
2.22045e-16
2.22045e-16
2.22045e-16
200.845
186.857
220.763
182.932
105.773
88.779
109.406
161.108
221.836
114.669
9.36102
0.0169495
7.17368e-12
2.22045e-16
2.22045e-16
2.22045e-16
2.22045e-16
2.22045e-16
2.22045e-16
2.22045e-16
199.451
160.635
167.317
133.625
86.1713
94.3677
130.6
201.767
283.933
8.06786
5.76957e-09
2.22045e-16
2.22045e-16
2.22045e-16
2.22045e-16
2.22045e-16
2.22045e-16
2.22045e-16
2.22045e-16
2.22045e-16
237.235
176.135
169.603
135.97
94.5187
115.955
178.209
282.059
333.532
0.0157362
2.22045e-16
2.22045e-16
2.22045e-16
2.22045e-16
2.22045e-16
2.22045e-16
2.22045e-16
2.22045e-16
2.22045e-16
2.22045e-16
337.102
233.035
194.548
155.582
126.239
166.94
262.103
348.064
2.1498
8.3712e-12
2.22045e-16
2.22045e-16
2.22045e-16
2.22045e-16
2.22045e-16
2.22045e-16
2.22045e-16
2.22045e-16
2.22045e-16
2.22045e-16
488.212
355.055
265.333
210.16
196.145
250.69
328.919
9.68219
9.15987e-10
2.22045e-16
2.22045e-16
2.22045e-16
2.22045e-16
2.22045e-16
2.22045e-16
2.22045e-16
2.22045e-16
2.22045e-16
2.22045e-16
2.22045e-16
183.499
456.234
352.207
273.569
261.903
291.536
2.07545
8.20844e-10
2.22045e-16
2.22045e-16
2.22045e-16
2.22045e-16
2.22045e-16
2.22045e-16
2.22045e-16
2.22045e-16
2.22045e-16
2.22045e-16
2.22045e-16
2.22045e-16
7.54161e-06
0.283574
2.78358
1.52943
0.599097
0.00588425
7.92881e-12
2.22045e-16
2.22045e-16
2.22045e-16
2.22045e-16
2.22045e-16
2.22045e-16
2.22045e-16
2.22045e-16
2.22045e-16
2.22045e-16
2.22045e-16
2.22045e-16
2.22045e-16
2.22045e-16
2.36478e-14
2.87899e-11
8.07324e-12
4.42321e-13
2.22045e-16
2.22045e-16
2.22045e-16
2.22045e-16
2.22045e-16
2.22045e-16
2.22045e-16
2.22045e-16
2.22045e-16
2.22045e-16
2.22045e-16
2.22045e-16
2.22045e-16
2.22045e-16
2.22045e-16
2.22045e-16
2.22045e-16
2.22045e-16
2.22045e-16
2.22045e-16
2.22045e-16
2.22045e-16
2.22045e-16
2.22045e-16
2.22045e-16
2.22045e-16
2.22045e-16
2.22045e-16
2.22045e-16
2.22045e-16
2.22045e-16
2.22045e-16
2.22045e-16
2.22045e-16
2.22045e-16
2.22045e-16
2.22045e-16
2.22045e-16
2.22045e-16
2.22045e-16
2.22045e-16
2.22045e-16
2.22045e-16
2.22045e-16
2.22045e-16
2.22045e-16
2.22045e-16
2.22045e-16
2.22045e-16
2.22045e-16
2.22045e-16
2.22045e-16
2.22045e-16
2.22045e-16
2.22045e-16
2.22045e-16
2.22045e-16
2.22045e-16
2.22045e-16
2.22045e-16
2.22045e-16
2.22045e-16
2.22045e-16
2.22045e-16
2.22045e-16
2.22045e-16
2.22045e-16
2.22045e-16
2.22045e-16
2.22045e-16
2.22045e-16
2.22045e-16
2.22045e-16
2.22045e-16
2.22045e-16
275.689
271.922
347.653
394.077
435.265
424.564
365.29
307.595
244.832
193.967
194.096
233.266
333.628
483.425
160.816
4.78989e-06
2.22045e-16
2.22045e-16
2.22045e-16
2.22045e-16
271.729
268.675
346.185
395.5
435.023
422.631
364.018
302.708
242.017
177.814
154.743
170.739
228.109
349.951
447.207
0.232068
1.61022e-14
2.22045e-16
2.22045e-16
2.22045e-16
347.264
346.018
443.629
506.807
543.409
531.832
477.211
396.331
305.506
206.199
159.705
162.85
188.36
259.281
344.746
2.32871
1.74813e-11
2.22045e-16
2.22045e-16
2.22045e-16
392.839
394.579
506.335
535.747
612.509
614.808
586.599
510.821
387.761
165.847
125.775
128.978
148.775
202.659
264.08
1.25702
4.78702e-12
2.22045e-16
2.22045e-16
2.22045e-16
434.474
434.397
542.874
609.926
204.41
97.5105
81.4696
89.8513
120.831
188.937
252.24
0.469087
2.28382e-13
2.22045e-16
2.22045e-16
2.22045e-16
424.456
422.677
532.075
615.123
91.6498
85.1229
90.0181
110.521
159.956
240.937
276.263
0.00397351
2.22045e-16
2.22045e-16
2.22045e-16
2.22045e-16
365.405
364.175
477.426
586.836
84.8866
105.485
124.899
170.375
251.785
315.37
1.47625
3.11867e-12
2.22045e-16
2.22045e-16
2.22045e-16
2.22045e-16
307.772
302.835
396.63
511.628
152.394
155.166
193.844
270.845
333.072
7.00641
3.53609e-10
2.22045e-16
2.22045e-16
2.22045e-16
2.22045e-16
2.22045e-16
244.941
242.143
306.513
392.211
204.35
87.1552
82.7941
163.726
449.845
214.062
273.701
320.45
1.58381
3.87644e-10
2.22045e-16
2.22045e-16
2.22045e-16
2.22045e-16
2.22045e-16
2.22045e-16
194.052
178.043
207.213
166.767
95.2385
83.8771
105.154
155.654
214.655
92.9487
7.74905
0.0133668
4.04279e-12
2.22045e-16
2.22045e-16
2.22045e-16
2.22045e-16
2.22045e-16
2.22045e-16
2.22045e-16
194.096
154.849
160.207
125.876
80.3295
89.0336
123.917
193.511
272.276
5.95175
3.13391e-09
2.22045e-16
2.22045e-16
2.22045e-16
2.22045e-16
2.22045e-16
2.22045e-16
2.22045e-16
2.22045e-16
2.22045e-16
233.138
170.798
163.159
128.969
88.8686
109.648
169.253
269.66
318.807
0.010717
2.22045e-16
2.22045e-16
2.22045e-16
2.22045e-16
2.22045e-16
2.22045e-16
2.22045e-16
2.22045e-16
2.22045e-16
2.22045e-16
333.495
228.132
188.449
148.593
119.963
158.974
250.507
331.531
1.53719
3.44643e-12
2.22045e-16
2.22045e-16
2.22045e-16