/*--------------------------------*- C++ -*----------------------------------*\
  =========                 |
  \\      /  F ield         | OpenFOAM: The Open Source CFD Toolbox
   \\    /   O peration     | Website:  https://openfoam.org
    \\  /    A nd           | Version:  9
     \\/     M anipulation  |
\*---------------------------------------------------------------------------*/
FoamFile
{
    format      ascii;
    class       volScalarField;
    location    "0.0005";
    object      rhoE;
}
// * * * * * * * * * * * * * * * * * * * * * * * * * * * * * * * * * * * * * //

dimensions      [1 -1 -2 0 0 0 0];

internalField   nonuniform List<scalar> 
9720
(
9.51019e+08
1.24322e+09
1.6375e+09
1.86551e+09
2.1146e+09
1.99886e+09
1.63024e+09
1.27078e+09
9.04931e+08
6.63216e+08
5.4612e+08
3.22788e+08
1.14722e+08
2.35699e+07
1.07092e+06
306475
306250
306250
306250
306250
1.24253e+09
1.5765e+09
2.08802e+09
2.36281e+09
2.65877e+09
2.53509e+09
2.10158e+09
1.65326e+09
1.22809e+09
8.21349e+08
6.76278e+08
5.2291e+08
2.18601e+08
5.38329e+07
5.51655e+06
323290
306250
306250
306250
306250
1.63639e+09
2.08756e+09
2.6889e+09
3.0046e+09
3.22151e+09
3.16242e+09
2.87674e+09
2.34995e+09
1.77409e+09
1.09449e+09
7.84723e+08
5.86323e+08
2.36779e+08
6.20403e+07
9.15096e+06
377013
306254
306250
306250
306250
1.86253e+09
2.35914e+09
3.00194e+09
3.09037e+09
3.48127e+09
3.62084e+09
3.61274e+09
3.19441e+09
2.3199e+09
1.03599e+09
6.95296e+08
4.99671e+08
1.90456e+08
4.98958e+07
6.942e+06
347439
306252
306250
306250
306250
2.11699e+09
2.65821e+09
3.21683e+09
3.47349e+09
1.53245e+09
5.31225e+08
4.15735e+08
3.30082e+08
1.50596e+08
4.2126e+07
4.29603e+06
317593
306250
306250
306250
306250
2.0002e+09
2.53644e+09
3.1616e+09
3.61117e+09
4.79795e+08
3.66124e+08
3.69856e+08
2.77576e+08
1.14861e+08
2.09156e+07
889515
306403
306250
306250
306250
306250
1.63002e+09
2.10229e+09
2.87936e+09
3.61327e+09
2.31525e+08
1.83232e+08
1.78667e+08
1.2128e+08
3.13454e+07
2.12626e+06
308075
306250
306250
306250
306250
306250
1.27104e+09
1.65444e+09
2.35215e+09
3.20049e+09
9.65933e+07
4.01835e+07
3.76393e+07
1.69332e+07
1.76436e+06
309043
306250
306250
306250
306250
306250
306250
9.05528e+08
1.22866e+09
1.76693e+09
2.30291e+09
1.47595e+09
4.99005e+08
2.33643e+08
1.03653e+08
328360
4.50348e+06
3.23189e+06
675705
307369
306250
306250
306250
306250
306250
306250
306250
6.63444e+08
8.20261e+08
1.0858e+09
1.01796e+09
5.32066e+08
3.6714e+08
1.90789e+08
4.52895e+07
5.30944e+06
370219
314462
306328
306250
306250
306250
306250
306250
306250
306250
306250
5.46286e+08
6.75739e+08
7.80965e+08
6.90836e+08
4.16753e+08
3.69381e+08
1.84231e+08
4.07701e+07
3.62546e+06
316710
306250
306250
306250
306250
306250
306250
306250
306250
306250
306250
3.22615e+08
5.21759e+08
5.83651e+08
4.9779e+08
3.30401e+08
2.77631e+08
1.22705e+08
1.75679e+07
703296
306339
306250
306250
306250
306250
306250
306250
306250
306250
306250
306250
1.14448e+08
2.1766e+08
2.35349e+08
1.89952e+08
1.5061e+08
1.14872e+08
3.15258e+07
1.79159e+06
307401
306250
306250
306250
306250
306250
306250
306250
306250
306250
306250
306250
2.34446e+07
5.35035e+07
6.16941e+07
4.98384e+07
4.20825e+07
2.08602e+07
2.13007e+06
309056
306250
306250
306250
306250
306250
306250
306250
306250
306250
306250
306250
306250
1.06046e+06
5.45591e+06
9.0522e+06
6.9004e+06
4.27325e+06
880551
308051
306250
306250
306250
306250
306250
306250
306250
306250
306250
306250
306250
306250
306250
306470
322848
375013
346632
317385
306397
306250
306250
306250
306250
306250
306250
306250
306250
306250
306250
306250
306250
306250
306250
306250
306250
306254
306252
306250
306250
306250
306250
306250
306250
306250
306250
306250
306250
306250
306250
306250
306250
306250
306250
306250
306250
306250
306250
306250
306250
306250
306250
306250
306250
306250
306250
306250
306250
306250
306250
306250
306250
306250
306250
306250
306250
306250
306250
306250
306250
306250
306250
306250
306250
306250
306250
306250
306250
306250
306250
306250
306250
306250
306250
306250
306250
306250
306250
306250
306250
306250
306250
306250
306250
306250
306250
306250
306250
306250
306250
306250
306250
306250
306250
9.81276e+08
1.3021e+09
1.72757e+09
1.97479e+09
2.24118e+09
2.14094e+09
1.76444e+09
1.40205e+09
1.01895e+09
7.33507e+08
5.98766e+08
3.56836e+08
1.26123e+08
2.63232e+07
1.31732e+06
306622
306250
306250
306250
306250
1.30103e+09
1.67812e+09
2.23312e+09
2.53019e+09
2.81738e+09
2.69983e+09
2.28064e+09
1.85693e+09
1.4432e+09
9.74382e+08
7.706e+08
5.95635e+08
2.50036e+08
6.07971e+07
6.68828e+06
333098
306251
306250
306250
306250
1.72556e+09
2.23182e+09
2.869e+09
3.19048e+09
3.36914e+09
3.29274e+09
3.03721e+09
2.5756e+09
2.0248e+09
1.2755e+09
8.84191e+08
6.62668e+08
2.76883e+08
7.00071e+07
1.10291e+07
421190
306258
306250
306250
306250
1.96972e+09
2.52461e+09
3.18817e+09
3.22229e+09
3.59733e+09
3.62629e+09
3.60624e+09
3.24691e+09
2.47941e+09
1.09015e+09
7.27717e+08
5.35483e+08
2.15248e+08
5.49698e+07
8.39314e+06
375247
306254
306250
306250
306250
2.24353e+09
2.81806e+09
3.36833e+09
3.58229e+09
1.3399e+09
5.57539e+08
4.31071e+08
3.56807e+08
1.69921e+08
5.04776e+07
6.18445e+06
334311
306251
306250
306250
306250
2.14106e+09
2.69928e+09
3.29252e+09
3.62828e+09
4.24782e+08
3.91301e+08
3.98417e+08
3.20985e+08
1.46152e+08
2.98393e+07
1.72727e+06
307152
306250
306250
306250
306250
1.7637e+09
2.28056e+09
3.03843e+09
3.60713e+09
2.22005e+08
2.45051e+08
2.35731e+08
1.62444e+08
4.8428e+07
4.491e+06
317606
306250
306250
306250
306250
306250
1.40187e+09
1.85735e+09
2.57675e+09
3.25227e+09
1.50857e+08
7.18514e+07
6.19236e+07
2.79808e+07
3.92794e+06
324043
306251
306250
306250
306250
306250
306250
1.01931e+09
1.44346e+09
2.02054e+09
2.45363e+09
1.32424e+09
4.31273e+08
2.19563e+08
1.63272e+08
4.79454e+06
9.59616e+06
6.78095e+06
1.48458e+06
314100
306250
306250
306250
306250
306250
306250
306250
7.33632e+08
9.7362e+08
1.27059e+09
1.08807e+09
5.71191e+08
3.98519e+08
2.4948e+08
7.4259e+07
1.00599e+07
687982
353326
306975
306250
306250
306250
306250
306250
306250
306250
306250
5.98907e+08
7.702e+08
8.8234e+08
7.29101e+08
4.38367e+08
4.03067e+08
2.40281e+08
6.33532e+07
7.02737e+06
357046
306255
306250
306250
306250
306250
306250
306250
306250
306250
306250
3.5679e+08
5.95245e+08
6.61846e+08
5.37073e+08
3.61509e+08
3.24018e+08
1.6399e+08
2.82707e+07
1.50364e+06
306996
306250
306250
306250
306250
306250
306250
306250
306250
306250
306250
1.25998e+08
2.49714e+08
2.76715e+08
2.1625e+08
1.71626e+08
1.47311e+08
4.86353e+07
3.94852e+06
314154
306250
306250
306250
306250
306250
306250
306250
306250
306250
306250
306250
2.62666e+07
6.06832e+07
6.99726e+07
5.52137e+07
5.08279e+07
3.00377e+07
4.51263e+06
324141
306250
306250
306250
306250
306250
306250
306250
306250
306250
306250
306250
306250
1.31111e+06
6.66244e+06
1.10044e+07
8.42786e+06
6.24137e+06
1.74352e+06
317714
306251
306250
306250
306250
306250
306250
306250
306250
306250
306250
306250
306250
306250
306618
332837
420416
375788
334892
307173
306250
306250
306250
306250
306250
306250
306250
306250
306250
306250
306250
306250
306250
306250
306250
306251
306258
306254
306251
306250
306250
306250
306250
306250
306250
306250
306250
306250
306250
306250
306250
306250
306250
306250
306250
306250
306250
306250
306250
306250
306250
306250
306250
306250
306250
306250
306250
306250
306250
306250
306250
306250
306250
306250
306250
306250
306250
306250
306250
306250
306250
306250
306250
306250
306250
306250
306250
306250
306250
306250
306250
306250
306250
306250
306250
306250
306250
306250
306250
306250
306250
306250
306250
306250
306250
306250
306250
306250
306250
306250
306250
306250
306250
306250
1.01097e+09
1.36486e+09
1.82911e+09
2.10097e+09
2.38814e+09
2.29772e+09
1.91253e+09
1.54379e+09
1.13194e+09
8.00451e+08
6.43825e+08
3.84026e+08
1.36197e+08
2.89909e+07
1.57387e+06
306830
306250
306250
306250
306250
1.36387e+09
1.7891e+09
2.39022e+09
2.70873e+09
2.98379e+09
2.86e+09
2.45952e+09
2.06927e+09
1.64986e+09
1.11583e+09
8.46273e+08
6.50026e+08
2.74567e+08
6.6724e+07
7.77894e+06
344529
306251
306250
306250
306250
1.82737e+09
2.38923e+09
3.04099e+09
3.35235e+09
3.50134e+09
3.41348e+09
3.1903e+09
2.8116e+09
2.3165e+09
1.49423e+09
9.98179e+08
7.35412e+08
3.11297e+08
7.70487e+07
1.27708e+07
472800
306266
306250
306250
306250
2.09638e+09
2.70377e+09
3.35008e+09
3.3515e+09
3.70021e+09
3.72706e+09
3.71976e+09
3.42319e+09
2.72538e+09
1.38598e+09
9.10136e+08
6.49819e+08
2.61466e+08
6.32342e+07
1.0244e+07
417674
306259
306250
306250
306250
2.39042e+09
2.98471e+09
3.5027e+09
3.68799e+09
1.46968e+09
7.52254e+08
5.57116e+08
4.45625e+08
2.07804e+08
6.01522e+07
8.28717e+06
361742
306252
306250
306250
306250
2.29768e+09
2.85948e+09
3.41478e+09
3.7322e+09
5.51623e+08
5.21181e+08
5.06129e+08
3.99424e+08
1.80884e+08
3.90544e+07
2.71165e+06
308947
306250
306250
306250
306250
1.91254e+09
2.46009e+09
3.19142e+09
3.72187e+09
3.25437e+08
3.22015e+08
3.07436e+08
2.10344e+08
6.60765e+07
7.28699e+06
339976
306251
306250
306250
306250
306250
1.54361e+09
2.06821e+09
2.81144e+09
3.42728e+09
1.90759e+08
9.88033e+07
8.40285e+07
4.00027e+07
6.58819e+06
359708
306253
306250
306250
306250
306250
306250
1.13055e+09
1.64977e+09
2.33195e+09
2.73903e+09
1.48974e+09
5.52331e+08
3.2502e+08
1.9449e+08
2.85675e+07
1.43109e+07
1.04791e+07
2.5236e+06
331426
306253
306250
306250
306250
306250
306250
306250
7.99452e+08
1.11832e+09
1.51082e+09
1.41005e+09
7.32889e+08
5.12977e+08
3.10725e+08
8.83498e+07
1.21374e+07
1.07549e+06
433128
308855
306251
306250
306250
306250
306250
306250
306250
306250
6.42833e+08
8.46685e+08
1.00445e+09
9.15056e+08
5.48915e+08
5.01409e+08
2.94088e+08
7.69999e+07
9.02024e+06
396970
306269
306250
306250
306250
306250
306250
306250
306250
306250
306250
3.83492e+08
6.50534e+08
7.3846e+08
6.51409e+08
4.42032e+08
3.96028e+08
2.03894e+08
3.7474e+07
2.27649e+06
308312
306250
306250
306250
306250
306250
306250
306250
306250
306250
306250
1.362e+08
2.74991e+08
3.12417e+08
2.62142e+08
2.07446e+08
1.79693e+08
6.48328e+07
6.27178e+06
328914
306250
306250
306250
306250
306250
306250
306250
306250
306250
306250
306250
2.90547e+07
6.68696e+07
7.72176e+07
6.33589e+07
6.0225e+07
3.89598e+07
7.15647e+06
356816
306252
306250
306250
306250
306250
306250
306250
306250
306250
306250
306250
306250
1.58218e+06
7.81656e+06
1.28319e+07
1.03153e+07
8.32961e+06
2.71447e+06
339164
306253
306250
306250
306250
306250
306250
306250
306250
306250
306250
306250
306250
306250
306838
345035
475624
420428
362726
308975
306251
306250
306250
306250
306250
306250
306250
306250
306250
306250
306250
306250
306250
306250
306250
306251
306266
306260
306253
306250
306250
306250
306250
306250
306250
306250
306250
306250
306250
306250
306250
306250
306250
306250
306250
306250
306250
306250
306250
306250
306250
306250
306250
306250
306250
306250
306250
306250
306250
306250
306250
306250
306250
306250
306250
306250
306250
306250
306250
306250
306250
306250
306250
306250
306250
306250
306250
306250
306250
306250
306250
306250
306250
306250
306250
306250
306250
306250
306250
306250
306250
306250
306250
306250
306250
306250
306250
306250
306250
306250
306250
306250
306250
306250
1.02816e+09
1.4036e+09
1.90564e+09
2.20427e+09
2.52791e+09
2.45863e+09
2.05524e+09
1.66078e+09
1.20721e+09
8.39905e+08
6.69364e+08
3.97505e+08
1.40738e+08
3.00458e+07
1.65708e+06
306904
306250
306250
306250
306250
1.40384e+09
1.8704e+09
2.54908e+09
2.93438e+09
3.24301e+09
3.13209e+09
2.72571e+09
2.29672e+09
1.80207e+09
1.19566e+09
8.88362e+08
6.782e+08
2.85892e+08
6.92222e+07
8.16796e+06
348508
306251
306250
306250
306250
1.90627e+09
2.55016e+09
3.26999e+09
3.60084e+09
3.7367e+09
3.65791e+09
3.50252e+09
3.18809e+09
2.62195e+09
1.63294e+09
1.05484e+09
7.69691e+08
3.25452e+08
7.99856e+07
1.33827e+07
489359
306268
306250
306250
306250
2.20561e+09
2.93751e+09
3.6043e+09
3.53287e+09
3.85051e+09
3.87803e+09
3.89752e+09
3.78461e+09
3.21447e+09
1.55675e+09
9.67362e+08
6.80757e+08
2.73844e+08
6.58415e+07
1.07913e+07
430042
306261
306250
306250
306250
2.5329e+09
3.24652e+09
3.73692e+09
3.85669e+09
1.81637e+09
8.24046e+08
5.86701e+08
4.65184e+08
2.17052e+08
6.2803e+07
8.81297e+06
369176
306253
306250
306250
306250
2.46159e+09
3.13557e+09
3.65966e+09
3.87799e+09
6.88339e+08
5.42253e+08
5.26607e+08
4.17022e+08
1.89558e+08
4.13056e+07
2.93944e+06
309454
306250
306250
306250
306250
2.05733e+09
2.7288e+09
3.50576e+09
3.89966e+09
3.5383e+08
3.32164e+08
3.21266e+08
2.21719e+08
7.01091e+07
7.90525e+06
345925
306251
306250
306250
306250
306250
1.66094e+09
2.29651e+09
3.18907e+09
3.78874e+09
2.42318e+08
1.02676e+08
8.81401e+07
4.24326e+07
7.13884e+06
368862
306254
306250
306250
306250
306250
306250
1.20644e+09
1.80183e+09
2.63352e+09
3.24861e+09
1.78178e+09
6.51874e+08
3.39593e+08
2.16741e+08
3.62037e+07
1.50398e+07
1.10832e+07
2.71588e+06
335697
306253
306250
306250
306250
306250
306250
306250
8.4006e+08
1.19834e+09
1.64685e+09
1.58599e+09
8.27132e+08
5.39899e+08
3.2316e+08
9.38834e+07
1.32389e+07
1.18411e+06
446367
309270
306251
306250
306250
306250
306250
306250
306250
306250
6.69763e+08
8.90342e+08
1.06244e+09
9.78839e+08
5.88634e+08
5.27411e+08
3.1183e+08
8.29292e+07
9.99615e+06
419502
306274
306250
306250
306250
306250
306250
306250
306250
306250
306250
3.9824e+08
6.80547e+08
7.74853e+08
6.87812e+08
4.6795e+08
4.17826e+08
2.17931e+08
4.08723e+07
2.57259e+06
308949
306250
306250
306250
306250
306250
306250
306250
306250
306250
306250
1.41318e+08
2.8761e+08
3.28276e+08
2.77009e+08
2.19019e+08
1.90357e+08
6.99765e+07
7.05003e+06
335124
306251
306250
306250
306250
306250
306250
306250
306250
306250
306250
306250
3.02857e+07
6.97649e+07
8.06636e+07
6.65238e+07
6.34409e+07
4.17286e+07
7.9773e+06
369720
306253
306250
306250
306250
306250
306250
306250
306250
306250
306250
306250
306250
1.68227e+06
8.28185e+06
1.35611e+07
1.09724e+07
8.9717e+06
3.00295e+06
347295
306254
306250
306250
306250
306250
306250
306250
306250
306250
306250
306250
306250
306250
306930
349916
495777
435523
372077
309641
306251
306250
306250
306250
306250
306250
306250
306250
306250
306250
306250
306250
306250
306250
306250
306251
306269
306262
306253
306250
306250
306250
306250
306250
306250
306250
306250
306250
306250
306250
306250
306250
306250
306250
306250
306250
306250
306250
306250
306250
306250
306250
306250
306250
306250
306250
306250
306250
306250
306250
306250
306250
306250
306250
306250
306250
306250
306250
306250
306250
306250
306250
306250
306250
306250
306250
306250
306250
306250
306250
306250
306250
306250
306250
306250
306250
306250
306250
306250
306250
306250
306250
306250
306250
306250
306250
306250
306250
306250
306250
306250
306250
306250
306250
1.03105e+09
1.41101e+09
1.92354e+09
2.23488e+09
2.57162e+09
2.50777e+09
2.09285e+09
1.6864e+09
1.22035e+09
8.45538e+08
6.73067e+08
3.99728e+08
1.41452e+08
3.01697e+07
1.66397e+06
306909
306250
306250
306250
306250
1.41032e+09
1.88785e+09
2.60018e+09
3.02487e+09
3.36444e+09
3.26198e+09
2.82527e+09
2.3522e+09
1.82696e+09
1.20446e+09
8.93252e+08
6.81641e+08
2.87355e+08
6.95157e+07
8.20042e+06
348742
306251
306250
306250
306250
1.92189e+09
2.59871e+09
3.37745e+09
3.77046e+09
3.93165e+09
3.86649e+09
3.70202e+09
3.32251e+09
2.67735e+09
1.64453e+09
1.05846e+09
7.72255e+08
3.26679e+08
8.03003e+07
1.34234e+07
489818
306268
306250
306250
306250
2.23078e+09
3.01856e+09
3.76706e+09
3.84412e+09
4.15506e+09
4.19625e+09
4.29664e+09
4.21322e+09
3.44577e+09
1.56496e+09
9.68654e+08
6.81968e+08
2.74636e+08
6.61292e+07
1.08329e+07
430593
306261
306250
306250
306250
2.57421e+09
3.36525e+09
3.93186e+09
4.14697e+09
1.89215e+09
8.26326e+08
5.8448e+08
4.64386e+08
2.1727e+08
6.29622e+07
8.82026e+06
369071
306253
306250
306250
306250
2.50942e+09
3.2642e+09
3.86883e+09
4.19455e+09
6.3564e+08
5.31322e+08
5.1989e+08
4.13831e+08
1.88883e+08
4.11835e+07
2.92129e+06
309399
306250
306250
306250
306250
2.094e+09
2.82777e+09
3.70572e+09
4.29961e+09
3.31976e+08
3.22684e+08
3.15091e+08
2.18855e+08
6.93807e+07
7.80398e+06
344772
306251
306250
306250
306250
306250
1.68677e+09
2.35327e+09
3.32548e+09
4.21972e+09
2.09963e+08
9.94361e+07
8.64326e+07
4.16951e+07
7.00512e+06
366622
306254
306250
306250
306250
306250
306250
1.22024e+09
1.8274e+09
2.6832e+09
3.4495e+09
1.89608e+09
6.53241e+08
3.40299e+08
2.14794e+08
3.60605e+07
1.47034e+07
1.08183e+07
2.64293e+06
334345
306253
306250
306250
306250
306250
306250
306250
8.45665e+08
1.20563e+09
1.65065e+09
1.57793e+09
8.34476e+08
5.40056e+08
3.25561e+08
9.73797e+07
1.39925e+07
1.21101e+06
438018
309071
306251
306250
306250
306250
306250
306250
306250
306250
6.73466e+08
8.94157e+08
1.06208e+09
9.74922e+08
5.89905e+08
5.27258e+08
3.16339e+08
8.54424e+07
1.05026e+07
431689
306274
306250
306250
306250
306250
306250
306250
306250
306250
306250
4.00605e+08
6.83419e+08
7.75407e+08
6.86285e+08
4.68965e+08
4.18866e+08
2.20664e+08
4.18534e+07
2.6641e+06
309152
306250
306250
306250
306250
306250
306250
306250
306250
306250
306250
1.42079e+08
2.88978e+08
3.29066e+08
2.77071e+08
2.19954e+08
1.91519e+08
7.06959e+07
7.19517e+06
336283
306251
306250
306250
306250
306250
306250
306250
306250
306250
306250
306250
3.04112e+07
7.00638e+07
8.09683e+07
6.67273e+07
6.38106e+07
4.20462e+07
8.07932e+06
371457
306253
306250
306250
306250
306250
306250
306250
306250
306250
306250
306250
306250
1.68841e+06
8.31367e+06
1.36015e+07
1.09992e+07
9.03576e+06
3.0329e+06
348162
306254
306250
306250
306250
306250
306250
306250
306250
306250
306250
306250
306250
306250
306934
350118
496014
435568
372874
309704
306251
306250
306250
306250
306250
306250
306250
306250
306250
306250
306250
306250
306250
306250
306250
306251
306269
306262
306253
306250
306250
306250
306250
306250
306250
306250
306250
306250
306250
306250
306250
306250
306250
306250
306250
306250
306250
306250
306250
306250
306250
306250
306250
306250
306250
306250
306250
306250
306250
306250
306250
306250
306250
306250
306250
306250
306250
306250
306250
306250
306250
306250
306250
306250
306250
306250
306250
306250
306250
306250
306250
306250
306250
306250
306250
306250
306250
306250
306250
306250
306250
306250
306250
306250
306250
306250
306250
306250
306250
306250
306250
306250
306250
306250
1.03105e+09
1.4114e+09
1.92444e+09
2.23669e+09
2.57135e+09
2.50827e+09
2.09318e+09
1.68674e+09
1.22067e+09
8.45661e+08
6.73172e+08
3.99808e+08
1.41471e+08
3.01717e+07
1.66404e+06
306909
306250
306250
306250
306250
1.40996e+09
1.8879e+09
2.601e+09
3.02664e+09
3.36452e+09
3.26269e+09
2.8252e+09
2.35262e+09
1.82697e+09
1.20393e+09
8.92994e+08
6.8144e+08
2.87258e+08
6.95057e+07
8.20001e+06
348731
306251
306250
306250
306250
1.92111e+09
2.59858e+09
3.37803e+09
3.77147e+09
3.93164e+09
3.86674e+09
3.70199e+09
3.32235e+09
2.67402e+09
1.64132e+09
1.05729e+09
7.71652e+08
3.26516e+08
8.02947e+07
1.34256e+07
489824
306268
306250
306250
306250
2.22918e+09
3.01822e+09
3.76823e+09
3.88744e+09
4.22465e+09
4.27137e+09
4.35066e+09
4.22584e+09
3.43824e+09
1.56036e+09
9.68003e+08
6.81996e+08
2.74876e+08
6.62274e+07
1.0855e+07
431107
306261
306250
306250
306250
2.57545e+09
3.36666e+09
3.93249e+09
4.21017e+09
1.89418e+09
8.27444e+08
5.85316e+08
4.64777e+08
2.17529e+08
6.30692e+07
8.84778e+06
369512
306253
306250
306250
306250
2.50881e+09
3.26342e+09
3.86882e+09
4.27722e+09
6.51011e+08
5.32712e+08
5.1944e+08
4.13195e+08
1.88668e+08
4.11815e+07
2.9222e+06
309400
306250
306250
306250
306250
2.09349e+09
2.82756e+09
3.70575e+09
4.35449e+09
3.35086e+08
3.24078e+08
3.15888e+08
2.18626e+08
6.91857e+07
7.77921e+06
344469
306251
306250
306250
306250
306250
1.68651e+09
2.35272e+09
3.32566e+09
4.23552e+09
2.1674e+08
1.01145e+08
8.70771e+07
4.17428e+07
6.98635e+06
366039
306254
306250
306250
306250
306250
306250
1.21968e+09
1.8273e+09
2.68606e+09
3.48033e+09
1.9404e+09
6.41409e+08
3.39288e+08
2.10347e+08
3.90894e+07
1.50306e+07
1.09845e+07
2.65141e+06
334109
306253
306250
306250
306250
306250
306250
306250
8.45455e+08
1.20631e+09
1.65444e+09
1.58244e+09
8.23627e+08
5.35704e+08
3.23345e+08
9.7061e+07
1.40556e+07
1.23674e+06
442634
309083
306251
306250
306250
306250
306250
306250
306250
306250
6.73317e+08
8.9487e+08
1.06471e+09
9.77728e+08
5.87893e+08
5.24599e+08
3.14037e+08
8.49427e+07
1.04546e+07
429305
306275
306250
306250
306250
306250
306250
306250
306250
306250
306250
4.00361e+08
6.8389e+08
7.77013e+08
6.87929e+08
4.67836e+08
4.17455e+08
2.19397e+08
4.15012e+07
2.62239e+06
309033
306250
306250
306250
306250
306250
306250
306250
306250
306250
306250
1.41982e+08
2.89056e+08
3.2944e+08
2.77384e+08
2.19457e+08
1.90722e+08
7.01729e+07
7.08944e+06
335172
306251
306250
306250
306250
306250
306250
306250
306250
306250
306250
306250
3.03819e+07
7.00384e+07
8.09661e+07
6.67045e+07
6.36584e+07
4.18296e+07
7.9867e+06
369440
306253
306250
306250
306250
306250
306250
306250
306250
306250
306250
306250
306250
1.68546e+06
8.30579e+06
1.35945e+07
1.09849e+07
8.99661e+06
3.00511e+06
347048
306254
306250
306250
306250
306250
306250
306250
306250
306250
306250
306250
306250
306250
306931
350020
495702
435042
372086
309623
306251
306250
306250
306250
306250
306250
306250
306250
306250
306250
306250
306250
306250
306250
306250
306251
306269
306261
306253
306250
306250
306250
306250
306250
306250
306250
306250
306250
306250
306250
306250
306250
306250
306250
306250
306250
306250
306250
306250
306250
306250
306250
306250
306250
306250
306250
306250
306250
306250
306250
306250
306250
306250
306250
306250
306250
306250
306250
306250
306250
306250
306250
306250
306250
306250
306250
306250
306250
306250
306250
306250
306250
306250
306250
306250
306250
306250
306250
306250
306250
306250
306250
306250
306250
306250
306250
306250
306250
306250
306250
306250
306250
306250
306250
1.02835e+09
1.40478e+09
1.9079e+09
2.2087e+09
2.52732e+09
2.45962e+09
2.05596e+09
1.66122e+09
1.2076e+09
8.40273e+08
6.69756e+08
3.97813e+08
1.40789e+08
3.0037e+07
1.65571e+06
306903
306250
306250
306250
306250
1.40329e+09
1.87099e+09
2.55153e+09
2.94043e+09
3.24296e+09
3.13317e+09
2.7258e+09
2.29703e+09
1.80157e+09
1.19482e+09
8.88105e+08
6.77755e+08
2.85528e+08
6.91322e+07
8.15183e+06
348299
306251
306250
306250
306250
1.90479e+09
2.54965e+09
3.27106e+09
3.60463e+09
3.73608e+09
3.65809e+09
3.50248e+09
3.18728e+09
2.61729e+09
1.6279e+09
1.05249e+09
7.68067e+08
3.24682e+08
7.98483e+07
1.33512e+07
488211
306268
306250
306250
306250
2.20178e+09
2.93331e+09
3.60197e+09
3.74969e+09
4.02137e+09
4.03791e+09
4.12479e+09
4.09684e+09
3.41885e+09
1.55232e+09
9.65815e+08
6.80162e+08
2.73898e+08
6.59635e+07
1.08139e+07
430466
306261
306250
306250
306250
2.53335e+09
3.24621e+09
3.73666e+09
4.00765e+09
1.89051e+09
8.25059e+08
5.84517e+08
4.64008e+08
2.16953e+08
6.28801e+07
8.82941e+06
369426
306253
306250
306250
306250
2.46061e+09
3.13474e+09
3.66003e+09
4.04255e+09
6.49837e+08
5.33486e+08
5.19481e+08
4.12658e+08
1.88163e+08
4.10936e+07
2.91926e+06
309401
306250
306250
306250
306250
2.05647e+09
2.72846e+09
3.50617e+09
4.1265e+09
3.35093e+08
3.24945e+08
3.16085e+08
2.18293e+08
6.90816e+07
7.7742e+06
344508
306251
306250
306250
306250
306250
1.66139e+09
2.29829e+09
3.19138e+09
4.10617e+09
2.19025e+08
1.01577e+08
8.72786e+07
4.17733e+07
6.98883e+06
366141
306254
306250
306250
306250
306250
306250
1.20731e+09
1.80201e+09
2.62386e+09
3.42487e+09
1.88396e+09
6.59076e+08
3.38751e+08
2.20473e+08
4.00513e+07
1.51453e+07
1.1038e+07
2.65849e+06
334206
306253
306250
306250
306250
306250
306250
306250
8.40101e+08
1.19576e+09
1.63414e+09
1.5656e+09
8.32956e+08
5.38351e+08
3.25483e+08
9.90592e+07
1.43792e+07
1.2786e+06
444353
309103
306251
306250
306250
306250
306250
306250
306250
306250
6.69722e+08
8.88525e+08
1.05541e+09
9.7106e+08
5.88581e+08
5.24698e+08
3.16147e+08
8.58947e+07
1.06671e+07
435802
306276
306250
306250
306250
306250
306250
306250
306250
306250
306250
3.98088e+08
6.78739e+08
7.70245e+08
6.83563e+08
4.67313e+08
4.16408e+08
2.19369e+08
4.17249e+07
2.65439e+06
309114
306250
306250
306250
306250
306250
306250
306250
306250
306250
306250
1.41069e+08
2.86454e+08
3.26188e+08
2.75518e+08
2.18555e+08
1.9e+08
6.99337e+07
7.09792e+06
335361
306251
306250
306250
306250
306250
306250
306250
306250
306250
306250
306250
3.01584e+07
6.94307e+07
8.0229e+07
6.62877e+07
6.33254e+07
4.16281e+07
7.94576e+06
369164
306253
306250
306250
306250
306250
306250
306250
306250
306250
306250
306250
306250
1.66842e+06
8.21439e+06
1.34528e+07
1.09023e+07
8.93823e+06
2.98688e+06
346662
306254
306250
306250
306250
306250
306250
306250
306250
306250
306250
306250
306250
306250
306915
349072
491902
433221
371398
309588
306251
306250
306250
306250
306250
306250
306250
306250
306250
306250
306250
306250
306250
306250
306250
306251
306269
306261
306253
306250
306250
306250
306250
306250
306250
306250
306250
306250
306250
306250
306250
306250
306250
306250
306250
306250
306250
306250
306250
306250
306250
306250
306250
306250
306250
306250
306250
306250
306250
306250
306250
306250
306250
306250
306250
306250
306250
306250
306250
306250
306250
306250
306250
306250
306250
306250
306250
306250
306250
306250
306250
306250
306250
306250
306250
306250
306250
306250
306250
306250
306250
306250
306250
306250
306250
306250
306250
306250
306250
306250
306250
306250
306250
306250
1.01101e+09
1.36512e+09
1.82959e+09
2.10207e+09
2.38613e+09
2.29698e+09
1.91223e+09
1.54392e+09
1.1319e+09
8.00209e+08
6.43668e+08
3.84048e+08
1.36153e+08
2.89545e+07
1.57004e+06
306827
306250
306250
306250
306250
1.36376e+09
1.78928e+09
2.39107e+09
2.71047e+09
2.98316e+09
2.85938e+09
2.45865e+09
2.06924e+09
1.64888e+09
1.1143e+09
8.45016e+08
6.48751e+08
2.73851e+08
6.65561e+07
7.74721e+06
344155
306251
306250
306250
306250
1.827e+09
2.38905e+09
3.04172e+09
3.35352e+09
3.50209e+09
3.41365e+09
3.18905e+09
2.81084e+09
2.31292e+09
1.48855e+09
9.9377e+08
7.32133e+08
3.09767e+08
7.67506e+07
1.27011e+07
470592
306265
306250
306250
306250
2.09498e+09
2.70273e+09
3.35107e+09
3.50518e+09
3.80033e+09
3.83055e+09
3.84022e+09
3.61413e+09
2.99332e+09
1.37691e+09
9.02261e+08
6.44578e+08
2.59677e+08
6.30102e+07
1.02026e+07
416723
306259
306250
306250
306250
2.3923e+09
2.98547e+09
3.50225e+09
3.78547e+09
1.65942e+09
7.50861e+08
5.50329e+08
4.40294e+08
2.05601e+08
5.97267e+07
8.2158e+06
360808
306252
306250
306250
306250
2.29831e+09
2.8601e+09
3.41503e+09
3.83365e+09
6.49115e+08
5.11363e+08
4.96693e+08
3.92297e+08
1.78079e+08
3.85289e+07
2.66016e+06
308836
306250
306250
306250
306250
1.91267e+09
2.46058e+09
3.19271e+09
3.8434e+09
3.37057e+08
3.14077e+08
3.00696e+08
2.05666e+08
6.46671e+07
7.094e+06
338107
306251
306250
306250
306250
306250
1.54404e+09
2.06969e+09
2.81344e+09
3.62473e+09
2.17927e+08
9.6519e+07
8.25027e+07
3.90922e+07
6.38517e+06
356435
306253
306250
306250
306250
306250
306250
1.13128e+09
1.64975e+09
2.32295e+09
3.03104e+09
1.66732e+09
6.30804e+08
3.38405e+08
2.08253e+08
3.73109e+07
1.41139e+07
1.02655e+07
2.44182e+06
329712
306252
306250
306250
306250
306250
306250
306250
7.99792e+08
1.11605e+09
1.49859e+09
1.39111e+09
7.38508e+08
5.10275e+08
3.1107e+08
9.23367e+07
1.32384e+07
1.13993e+06
426632
308650
306250
306250
306250
306250
306250
306250
306250
306250
6.43295e+08
8.45971e+08
9.98906e+08
9.07254e+08
5.46825e+08
4.96136e+08
2.96095e+08
7.98835e+07
9.68474e+06
411969
306270
306250
306250
306250
306250
306250
306250
306250
306250
306250
3.83761e+08
6.49607e+08
7.35089e+08
6.46887e+08
4.38702e+08
3.91535e+08
2.03466e+08
3.8078e+07
2.33746e+06
308422
306250
306250
306250
306250
306250
306250
306250
306250
306250
306250
1.36154e+08
2.74365e+08
3.10893e+08
2.60318e+08
2.05343e+08
1.7768e+08
6.41604e+07
6.24101e+06
328568
306250
306250
306250
306250
306250
306250
306250
306250
306250
306250
306250
2.89936e+07
6.67006e+07
7.69527e+07
6.30686e+07
5.96682e+07
3.84141e+07
7.0199e+06
354960
306252
306250
306250
306250
306250
306250
306250
306250
306250
306250
306250
306250
1.57484e+06
7.77859e+06
1.27571e+07
1.02289e+07
8.20076e+06
2.64725e+06
337525
306253
306250
306250
306250
306250
306250
306250
306250
306250
306250
306250
306250
306250
306831
344545
472640
417675
360602
308809
306251
306250
306250
306250
306250
306250
306250
306250
306250
306250
306250
306250
306250
306250
306250
306251
306266
306259
306252
306250
306250
306250
306250
306250
306250
306250
306250
306250
306250
306250
306250
306250
306250
306250
306250
306250
306250
306250
306250
306250
306250
306250
306250
306250
306250
306250
306250
306250
306250
306250
306250
306250
306250
306250
306250
306250
306250
306250
306250
306250
306250
306250
306250
306250
306250
306250
306250
306250
306250
306250
306250
306250
306250
306250
306250
306250
306250
306250
306250
306250
306250
306250
306250
306250
306250
306250
306250
306250
306250
306250
306250
306250
306250
306250
9.81274e+08
1.30224e+09
1.72794e+09
1.97612e+09
2.23998e+09
2.14017e+09
1.7638e+09
1.40174e+09
1.01896e+09
7.33508e+08
5.98712e+08
3.56698e+08
1.26034e+08
2.62883e+07
1.31399e+06
306620
306250
306250
306250
306250
1.30092e+09
1.67821e+09
2.23371e+09
2.53251e+09
2.81735e+09
2.69928e+09
2.27983e+09
1.85631e+09
1.44326e+09
9.74272e+08
7.7064e+08
5.95395e+08
2.49706e+08
6.0687e+07
6.66759e+06
332905
306251
306250
306250
306250
1.72529e+09
2.2317e+09
2.86949e+09
3.19163e+09
3.36852e+09
3.29214e+09
3.03618e+09
2.57436e+09
2.024e+09
1.27478e+09
8.84276e+08
6.62543e+08
2.76507e+08
6.98802e+07
1.09937e+07
420222
306258
306250
306250
306250
1.96845e+09
2.52301e+09
3.18842e+09
3.35056e+09
3.6642e+09
3.68687e+09
3.68353e+09
3.36685e+09
2.64732e+09
1.08744e+09
7.28951e+08
5.36515e+08
2.15525e+08
5.49994e+07
8.38508e+06
374959
306254
306250
306250
306250
2.24494e+09
2.81877e+09
3.36969e+09
3.65363e+09
1.3878e+09
5.53132e+08
4.31636e+08
3.57619e+08
1.70468e+08
5.05463e+07
6.18645e+06
334282
306251
306250
306250
306250
2.14181e+09
2.69995e+09
3.29349e+09
3.68928e+09
4.99079e+08
3.91494e+08
3.97413e+08
3.20341e+08
1.45791e+08
2.97465e+07
1.71765e+06
307139
306250
306250
306250
306250
1.7642e+09
2.28115e+09
3.03936e+09
3.68657e+09
2.9695e+08
2.45973e+08
2.35815e+08
1.61784e+08
4.80804e+07
4.44682e+06
317345
306250
306250
306250
306250
306250
1.40241e+09
1.85792e+09
2.57782e+09
3.37578e+09
1.85992e+08
7.2594e+07
6.25244e+07
2.79607e+07
3.88811e+06
323574
306251
306250
306250
306250
306250
306250
1.0192e+09
1.44372e+09