/*--------------------------------*- C++ -*----------------------------------*\
  =========                 |
  \\      /  F ield         | OpenFOAM: The Open Source CFD Toolbox
   \\    /   O peration     | Website:  https://openfoam.org
    \\  /    A nd           | Version:  9
     \\/     M anipulation  |
\*---------------------------------------------------------------------------*/
FoamFile
{
    format      ascii;
    class       volVectorField;
    location    "0.0005";
    object      rhoU;
}
// * * * * * * * * * * * * * * * * * * * * * * * * * * * * * * * * * * * * * //

dimensions      [1 -2 -1 0 0 0 0];

internalField   nonuniform List<vector> 
9720
(
(-231305 -231301 -1400.63)
(-266943 -352155 -3467.03)
(-268640 -504496 -7796.59)
(-191585 -608187 -14944.9)
(-47324 -704929 -22176.9)
(85269.8 -664611 -27365.4)
(203739 -525801 -21310.1)
(243334 -381817 -15784.7)
(216211 -247602 -9369.54)
(172475 -158882 -4784.63)
(143871 -104543 -2655.84)
(85369.3 -51321.9 -1251.03)
(28362.7 -15758 -412.872)
(5902.45 -2771.6 -85.0926)
(208.645 -70.5447 -2.1485)
(0.144865 -0.0271555 -0.000576495)
(4.86258e-07 -7.91133e-08 -1.1129e-09)
(1.08871e-12 -1.37303e-13 -2.10803e-15)
(1.42188e-16 0 0)
(0 0 0)
(-352115 -266761 -3574.92)
(-388606 -388383 -8911.41)
(-378525 -570941 -20204.4)
(-256636 -679089 -39207.2)
(-54918.6 -783498 -56080.5)
(129451 -734112 -68520.9)
(298862 -581470 -55787.3)
(363211 -419908 -42797.7)
(345501 -276106 -27938.8)
(265201 -161224 -14631.3)
(217503 -103091 -8374.51)
(156357 -58557.6 -4003.68)
(61774.8 -21701.6 -1374.53)
(14111.7 -5024.59 -295.959)
(1368.75 -461.377 -24.9428)
(7.52958 -1.19497 -0.0589756)
(0.000263076 -2.86306e-05 -1.18463e-06)
(5.64297e-10 -4.69227e-11 -1.60534e-12)
(1.16033e-15 0 0)
(0 0 0)
(-504344 -268266 -8059.52)
(-571102 -377975 -20437.5)
(-560228 -559548 -47418.1)
(-369772 -669830 -98916.5)
(-72697.3 -751945 -135244)
(209935 -707272 -162005)
(484128 -591146 -145720)
(578266 -415127 -115303)
(537805 -261302 -72202.8)
(383234 -112601 -31818.5)
(281777 -54395.8 -15085.1)
(192978 -25879.5 -6941.18)
(73463.2 -8218.8 -2121.44)
(17603.4 -1981.47 -501.423)
(2470.32 -225.44 -63.1765)
(27.9896 -1.07258 -0.35175)
(0.00307892 -5.39242e-05 -2.02231e-05)
(7.97326e-09 -7.16561e-11 -3.14371e-11)
(1.74353e-14 0 0)
(0 0 0)
(-607205 -191456 -15293)
(-677918 -256255 -39650.7)
(-669465 -368763 -99136.1)
(-466606 -466624 -179552)
(-181486 -566258 -240430)
(200100 -603096 -320251)
(567845 -543626 -326433)
(752754 -385206 -275306)
(678301 -203920 -186130)
(369315 -11978.1 -70256.4)
(253181 7362.49 -36578.8)
(167938 8511.13 -16894.9)
(60696.1 3216.34 -4849.65)
(14620.7 898.974 -1039.66)
(1916.81 142.751 -99.1027)
(18.1605 0.820963 -0.361014)
(0.00150848 4.12209e-05 -1.51177e-05)
(4.04548e-09 6.90114e-11 -2.22763e-11)
(9.69734e-15 0 0)
(0 0 0)
(-705563 -47261.9 -22986.6)
(-783337 -54567.8 -57151.5)
(-750772 -71858.2 -136951)
(-558963 -182210 -244973)
(510663 76208.8 -138071)
(186374 67431.7 -31863.7)
(144578 45363.1 -19594.9)
(106158 29586.7 -10193.3)
(45382.6 12384.6 -3931.87)
(11778.1 3390.46 -919.146)
(1117.55 297.768 -65.7938)
(5.58665 0.641607 -0.126337)
(0.000171673 1.26311e-05 -2.31066e-06)
(3.92987e-10 1.97843e-11 -3.25818e-12)
(9.8345e-16 0 0)
(0 0 0)
(-664875 85205.4 -27403.5)
(-734296 129193 -68713.7)
(-706709 209414 -162375)
(-600059 198615 -321735)
(148391 92765.3 -24146.9)
(113259 66910.7 -14587.3)
(111122 63189.5 -13605.2)
(81102.9 40843.8 -8495.35)
(30885.3 14642.2 -2891.46)
(5561.98 2741.55 -455.552)
(166.588 70.3369 -9.72209)
(0.0989711 0.0241464 -0.00223458)
(3.3234e-07 7.54092e-08 -4.06003e-09)
(7.86087e-13 1.48076e-13 -7.02678e-15)
(1.41298e-16 0 0)
(0 0 0)
(-525624 203826 -21335.5)
(-581531 299022 -55839.1)
(-591641 484719 -145822)
(-543618 568160 -326569)
(64599.6 46058 -7735.34)
(47192.3 39812.9 -6441.87)
(46108.5 36742.7 -5933.4)
(30007.9 22667.8 -3347.39)
(7779.33 5736.25 -732.401)
(476.359 359.362 -37.6935)
(0.927207 0.537402 -0.033025)
(8.786e-06 5.88995e-06 -2.40755e-07)
(1.7005e-11 5.99554e-12 -2.66315e-13)
(3.62645e-18 1.41037e-16 0)
(0 0 0)
(0 0 0)
(-381914 243374 -15729.6)
(-420418 363281 -42699.3)
(-416245 578607 -115106)
(-386227 754314 -275735)
(12174.4 24187.4 -3854.98)
(8211.93 9333.59 -1448.74)
(7875.43 8687.22 -1195.15)
(3842.06 3813.34 -440.227)
(372.211 354.344 -32.9126)
(1.16489 1.22761 -0.0582935)
(2.44012e-05 2.16052e-05 -8.89797e-07)
(4.83842e-11 2.8266e-11 -1.05457e-12)
(2.28993e-19 3.20994e-18 0)
(0 0 0)
(0 0 0)
(0 0 0)
(-247801 216321 -9370.58)
(-276271 345716 -27952)
(-259688 536295 -71815.4)
(-200876 674978 -185960)
(80470.7 495838 -118708)
(96785.5 153658 -23080.3)
(46576.2 64999.9 -7582.88)
(25086.5 14365.6 -3879.24)
(8.35126 -0.50542 -1.64312)
(516.215 1117.86 -152.964)
(496.296 748.396 -87.5316)
(76.7438 99.663 -8.60345)
(0.380093 0.576827 -0.0240856)
(1.53251e-05 1.85933e-05 -6.91644e-07)
(4.81936e-11 5.42461e-11 -1.80419e-12)
(-1.66203e-15 5.07889e-19 0)
(0 0 0)
(0 0 0)
(0 0 0)
(0 0 0)
(-158920 172553 -4806.09)
(-160855 265023 -14642.5)
(-111200 380765 -31580.4)
(-9814.29 363614 -69302.1)
(67958.4 186548 -31690.9)
(67189.3 113494 -14517.6)
(41807.9 48745.5 -6460.9)
(10461.7 9210.77 -1577.95)
(1331.76 641.281 -190.708)
(18.0058 14.7331 -2.11145)
(0.819469 3.99332 -0.191434)
(0.0163016 0.0530088 -0.00173718)
(2.73253e-06 4.28839e-06 -1.12989e-07)
(1.83416e-11 3.74857e-11 -6.7318e-13)
(-1.60611e-14 -1.68404e-15 1.5459e-15)
(-4.195e-18 0 0)
(0 0 0)
(0 0 0)
(0 0 0)
(0 0 0)
(-104539 143963 -2690.04)
(-102824 217434 -8431.49)
(-53837.3 280575 -15069.8)
(7978.58 251666 -36386.6)
(45680.5 144839 -19575.2)
(63259 110814 -13535.5)
(37995.9 47199.3 -6066.59)
(9325.81 8487.22 -1290.81)
(847.123 574.006 -103.742)
(4.91424 1.07119 -0.285853)
(0.000242023 0.000190799 -1.60551e-05)
(3.13645e-08 1.79473e-07 -3.85198e-09)
(-1.32217e-11 7.14374e-12 2.42764e-13)
(-4.39669e-13 -1.43086e-14 1.68096e-14)
(-4.37062e-16 1.59864e-15 0)
(0 0 0)
(0 0 0)
(0 0 0)
(0 0 0)
(0 0 0)
(-51278.6 85353 -1277.82)
(-58315.2 156089 -4066.96)
(-25635.3 192119 -7015.31)
(8660.7 167221 -16915.4)
(29658.3 106197 -10307.3)
(41058.9 80845.3 -8568.15)
(22883.2 30215.9 -3404.68)
(3921.28 3974.83 -461.718)
(106.115 82.599 -9.58119)
(0.0593438 0.0195592 -0.00224951)
(2.07742e-07 3.25514e-08 -9.48954e-09)
(-4.32563e-11 -3.14216e-11 1.25851e-12)
(-1.92647e-12 -9.44078e-13 5.08762e-14)
(-4.11774e-15 -3.96989e-15 0)
(0 0 0)
(0 0 0)
(0 0 0)
(0 0 0)
(0 0 0)
(0 0 0)
(-15716 28305.6 -422.077)
(-21581 61522.5 -1401.44)
(-8134.03 73019.2 -2159.29)
(3238.69 60494.4 -4885.23)
(12394.2 45335 -3990.2)
(14722.2 30764 -2943.88)
(5752.03 7788.55 -749.232)
(358.247 375.719 -34.2102)
(0.589656 0.384739 -0.0256831)
(4.17084e-06 2.57119e-06 -1.4775e-07)
(-9.80049e-12 -2.81035e-11 4.5566e-13)
(-1.92911e-12 -2.09373e-12 5.70956e-14)
(-4.81321e-15 -4.11188e-15 0)
(0 0 0)
(0 0 0)
(0 0 0)
(0 0 0)
(0 0 0)
(0 0 0)
(0 0 0)
(-2755.55 5873.86 -86.584)
(-4990.72 14032.6 -301.737)
(-1962.52 17506.4 -512.126)
(904.818 14593.5 -1053.21)
(3389.66 11750.7 -939.219)
(2743.1 5527.74 -467.348)
(357.728 475.238 -38.7052)
(1.22633 1.16173 -0.0603023)
(1.81351e-05 1.43905e-05 -6.82324e-07)
(2.86965e-11 2.63549e-12 -4.69695e-13)
(-7.24533e-13 -1.34726e-12 3.5696e-14)
(-6.29137e-15 -1.9818e-14 0)
(0 0 0)
(0 0 0)
(0 0 0)
(0 0 0)
(0 0 0)
(0 0 0)
(0 0 0)
(0 0 0)
(-69.52 206.118 -2.15506)
(-454.963 1352.85 -25.2212)
(-221.808 2442.78 -64.2423)
(141.836 1903.38 -100.581)
(296.075 1109.15 -67.6468)
(69.432 163.759 -9.96247)
(0.522896 0.915166 -0.0337697)
(2.10226e-05 2.34126e-05 -8.78207e-07)
(4.99033e-11 3.8547e-11 -1.70662e-12)
(-2.31116e-13 -6.75675e-13 1.27886e-14)
(-7.46218e-15 5.41229e-15 4.21605e-16)
(0 1.95544e-15 0)
(0 0 0)
(0 0 0)
(0 0 0)
(0 0 0)
(0 0 0)
(0 0 0)
(0 0 0)
(0 0 0)
(-0.0264899 0.141551 -0.000569707)
(-1.16027 7.35662 -0.0585846)
(-1.03814 27.2939 -0.351591)
(0.800506 17.8251 -0.364302)
(0.629584 5.48618 -0.129914)
(0.0234235 0.0953078 -0.00227375)
(5.52357e-06 8.33234e-06 -2.6761e-07)
(2.68662e-11 4.56558e-11 -1.46433e-12)
(1.17017e-14 -1.51642e-13 1.54588e-15)
(-8.44209e-16 -3.00376e-15 0)
(0 0 0)
(0 0 0)
(0 0 0)
(0 0 0)
(0 0 0)
(0 0 0)
(0 0 0)
(0 0 0)
(0 0 0)
(0 0 0)
(-7.65241e-08 4.7333e-07 -1.08885e-09)
(-2.73244e-05 0.000252513 -1.15479e-06)
(-5.12018e-05 0.00293601 -1.97844e-05)
(3.94366e-05 0.00145353 -1.50634e-05)
(1.21761e-05 0.000165452 -2.35892e-06)
(7.23097e-08 3.173e-07 -4.14989e-09)
(5.553e-12 1.59042e-11 -2.93017e-13)
(3.22301e-18 2.36599e-19 0)
(0 -8.45907e-16 0)
(0 0 0)
(0 0 0)
(0 0 0)
(0 0 0)
(0 0 0)
(0 0 0)
(0 0 0)
(0 0 0)
(0 0 0)
(0 0 0)
(0 0 0)
(-1.32947e-13 1.06035e-12 -2.24857e-15)
(-4.46526e-11 5.4068e-10 -1.55685e-12)
(-6.79156e-11 7.58089e-09 -3.06176e-11)
(6.57454e-11 3.8811e-09 -2.22178e-11)
(1.89669e-11 3.76437e-10 -3.34433e-12)
(1.40671e-13 7.43795e-13 -7.86999e-15)
(1.4179e-16 3.62519e-18 0)
(0 0 0)
(0 0 0)
(0 0 0)
(0 0 0)
(0 0 0)
(0 0 0)
(0 0 0)
(0 0 0)
(0 0 0)
(0 0 0)
(0 0 0)
(0 0 0)
(0 0 0)
(0 1.40787e-16 0)
(0 1.12675e-15 0)
(0 1.64565e-14 0)
(0 9.00758e-15 0)
(0 9.89489e-16 0)
(0 1.4204e-16 0)
(0 0 0)
(0 0 0)
(0 0 0)
(0 0 0)
(0 0 0)
(0 0 0)
(0 0 0)
(0 0 0)
(0 0 0)
(0 0 0)
(0 0 0)
(0 0 0)
(0 0 0)
(0 0 0)
(0 0 0)
(0 0 0)
(0 0 0)
(0 0 0)
(0 0 0)
(0 0 0)
(0 0 0)
(0 0 0)
(0 0 0)
(0 0 0)
(0 0 0)
(0 0 0)
(0 0 0)
(0 0 0)
(0 0 0)
(0 0 0)
(0 0 0)
(0 0 0)
(0 0 0)
(0 0 0)
(-237949 -237952 -2603)
(-278720 -365938 -6646.39)
(-283148 -528167 -14230.6)
(-203654 -639328 -24279.1)
(-53015.4 -742498 -34433.1)
(85201.5 -707638 -42025.8)
(214569 -565786 -33250.3)
(262611 -418409 -24496.6)
(238997 -275985 -14423.2)
(188163 -174717 -7029.43)
(155824 -114831 -3995.93)
(93404.8 -56835.4 -2031.69)
(31005 -17458.4 -724.317)
(6527.16 -3142.67 -202.875)
(263.073 -93.5307 -8.30747)
(0.229396 -0.0429805 -0.00312923)
(8.34034e-07 -1.4804e-07 -7.30204e-09)
(1.81505e-12 -2.56337e-13 -1.1805e-14)
(1.42289e-16 0 0)
(0 0 0)
(-365837 -278476 -6732.69)
(-410826 -410604 -16268.5)
(-404548 -608093 -33611.2)
(-277644 -727642 -56382)
(-66447.7 -832297 -75049.8)
(126799 -787429 -90506.5)
(311249 -638041 -76135.9)
(392727 -478535 -59257.9)
(391042 -328206 -38967.5)
(303519 -192336 -20023.6)
(243603 -119714 -11054.1)
(175877 -68357.3 -5715.1)
(70245.1 -25236.7 -2053.91)
(15795.8 -5741.38 -526.159)
(1667.73 -587.106 -69.145)
(11.1439 -1.96103 -0.264191)
(0.000531829 -6.25631e-05 -7.5049e-06)
(1.17951e-09 -1.06618e-10 -1.1093e-11)
(2.32081e-15 0 0)
(0 0 0)
(-527818 -282641 -14401.3)
(-607987 -403968 -33666.6)
(-601110 -600835 -66942.5)
(-404388 -724480 -111896)
(-97533.3 -803539 -140539)
(201712 -764302 -161893)
(489903 -657708 -150599)
(613328 -489907 -123023)
(597120 -323531 -78031.7)
(435079 -145062 -35906)
(313013 -68434.6 -16934.3)
(216726 -32460.8 -8629.24)
(85410.9 -10366.6 -2913.09)
(19820.6 -2395.96 -738.094)
(2985.52 -301.833 -144.314)
(42.2642 -1.89208 -1.41939)
(0.00673777 -0.000129717 -0.000124631)
(1.82214e-08 -1.78079e-10 -2.15453e-10)
(3.966e-14 -1.40633e-16 -1.40536e-16)
(0 0 0)
(-637702 -203499 -24538.3)
(-725835 -277340 -56482.1)
(-724527 -403297 -112147)
(-514705 -513382 -166932)
(-230166 -616440 -208786)
(167373 -650570 -258589)
(537713 -603812 -264194)
(747895 -458820 -227561)
(721052 -274714 -144780)
(390266 -24641.9 -40544.1)
(266745 2552.6 -19204.7)
(181340 7072.46 -9978)
(68888.9 2974.15 -3237.58)
(16192.3 765.477 -814.872)
(2343.02 138.204 -142.755)
(28.5049 1.12274 -1.09308)
(0.00351208 8.1291e-05 -8.05045e-05)
(9.86545e-09 1.42404e-10 -1.48777e-10)
(2.31953e-14 0 -1.40536e-16)
(0 0 0)
(-743161 -52963.9 -34888.4)
(-832814 -65919.6 -75327.3)
(-804989 -95513.8 -140354)
(-620930 -223811 -207078)
(466563 41678.7 -83225)
(198523 64592.8 -16981.4)
(152779 43812.8 -9295.18)
(115819 29889.7 -5607)
(51947.2 13087.6 -2462.8)
(14102.2 3723.76 -864.936)
(1652.02 403.849 -131.399)
(12.5214 1.39251 -0.594372)
(0.000730588 4.57048e-05 -2.18647e-05)
(1.80829e-09 7.11014e-11 -3.62412e-11)
(3.93992e-15 0 0)
(0 0 0)
(-707525 84950.2 -41960)
(-786989 126248 -90419.4)
(-763836 201164 -161838)
(-651073 167912 -258383)
(137888 74150.4 -14869.2)
(122609 68022.3 -6973.2)
(120793 65774 -6266.06)
(93915.1 46537.1 -5212.27)
(39475.1 18397.3 -2555.04)
(7855.34 3732.55 -684.025)
(370.635 161.158 -37.311)
(0.516175 0.109041 -0.0224632)
(2.64344e-06 6.55351e-07 -8.25531e-08)
(5.90645e-12 1.27375e-12 -1.26623e-13)
(1.40945e-16 0 0)
(0 0 0)
(-565462 214561 -33314.7)
(-637946 311179 -76207.3)
(-658029 490183 -150574)
(-603817 538437 -264033)
(63358.8 40620 -5021.61)
(62211.6 52703.6 -4112.26)
(60216.3 47847.6 -4589.42)
(40305 29589.6 -3476.39)
(11804.8 8372.86 -1168.21)
(1061.98 777.076 -128.907)
(4.72611 2.79864 -0.336879)
(0.000138472 8.60937e-05 -6.07797e-06)
(2.51896e-10 8.5068e-11 -6.875e-12)
(7.02858e-16 1.41225e-16 0)
(0 0 0)
(0 0 0)
(-418358 262604 -24357.4)
(-478738 392724 -58918.3)
(-490371 613557 -122533)
(-459571 749247 -227913)
(33834.1 34119.4 -3747.73)
(14826.4 15986.9 -1716.22)
(12897.5 13516.8 -1649.09)
(6214.45 6015.05 -817.209)
(867.969 803.134 -119.575)
(6.34758 6.46061 -0.600376)
(0.000411754 0.000356998 -2.40222e-05)
(8.60895e-10 4.71819e-10 -2.97081e-11)
(1.27041e-15 8.44627e-16 0)
(0 0 0)
(0 0 0)
(0 0 0)
(-276116 239050 -14404.9)
(-328277 391154 -38997.3)
(-322245 596276 -78609.6)
(-268108 716934 -143011)
(49412.4 462512 -73970.8)
(76286.4 139185 -15643.3)
(41072.4 62880.6 -5293.3)
(36853.1 37872 -3707.42)
(875.365 730.749 -249.591)
(1300.61 2424.66 -377.036)
(1165.39 1626.86 -257.273)
(235.818 280.503 -42.2042)
(2.26622 3.26912 -0.265914)
(0.000249606 0.000324959 -1.80986e-05)
(8.61016e-10 9.85986e-10 -4.08828e-11)
(-2.08295e-15 1.83937e-15 0)
(0 0 0)
(0 0 0)
(0 0 0)
(0 0 0)
(-174753 188202 -7084.99)
(-192113 303391 -20284.1)
(-144045 433649 -36765.2)
(-23088 389467 -42334)
(66329.3 202768 -18975.9)
(69500.4 124744 -7687.09)
(53907.8 63074.3 -4106.27)
(16561.2 15314.7 -1519.15)
(2542.18 1383.71 -282.339)
(75.7933 71.027 -12.4536)
(5.17332 17.8913 -1.83374)
(0.121706 0.416965 -0.0257661)
(4.46883e-05 7.56714e-05 -4.37284e-06)
(3.16143e-10 6.70942e-10 -2.48534e-11)
(-4.89637e-14 -2.33971e-15 4.33301e-16)
(-9.82549e-16 0 0)
(0 0 0)
(0 0 0)
(0 0 0)
(0 0 0)
(-114847 155890 -4083.5)
(-119554 243544 -11352.1)
(-68079.7 312430 -17588.1)
(2979.82 267159 -20182.9)
(44716 155137 -10382.7)
(66732.2 122046 -6881.11)
(48979.1 61101.2 -4547.15)
(13816.8 13163.3 -1461.98)
(1683.68 1215.16 -208.188)
(19.0528 5.61942 -1.38022)
(0.00273156 0.00250295 -0.000212391)
(4.16677e-07 2.23003e-06 -1.05374e-07)
(2.1956e-11 1.38006e-10 -3.99926e-12)
(-6.70452e-13 -5.37474e-14 5.7498e-16)
(-6.06169e-15 1.01642e-15 -1.77601e-15)
(0 0 0)
(0 0 0)
(0 0 0)
(0 0 0)
(0 0 0)
(-56825.9 93408.9 -2104.23)
(-68266.4 175794 -5963.56)
(-32350.7 216460 -9077.7)
(7139.32 181790 -10548.1)
(30302.1 117286 -6113.83)
(47138.6 94616.9 -5580.05)
(29910.5 40570.8 -3455.04)
(6060.07 6273.25 -754.881)
(283.946 239.655 -37.0952)
(0.425995 0.126393 -0.0211767)
(2.31289e-06 3.93352e-07 -5.74893e-08)
(-4.60945e-11 -3.33983e-11 6.91024e-13)
(-3.0533e-12 -1.4889e-12 5.46705e-14)
(-1.18075e-14 -1.02628e-14 0)
(0 0 0)
(0 0 0)
(0 0 0)
(0 0 0)
(0 0 0)
(0 0 0)
(-17439.9 30976.9 -753.775)
(-25199.6 70160.1 -2155.22)
(-10357 85360.1 -3085.36)
(2971.64 69174 -3430.87)
(13211.6 52447.8 -2640.04)
(18620.6 39714.7 -2682.8)
(8419.69 11826.5 -1158.4)
(805.85 869.287 -113.404)
(3.28204 2.25392 -0.242088)
(7.41779e-05 4.24402e-05 -3.13665e-06)
(1.12741e-10 -6.25677e-13 -2.00082e-12)
(-2.85629e-12 -3.26982e-12 7.36432e-14)
(-3.46183e-14 -3.2365e-14 4.21615e-16)
(0 0 0)
(0 0 0)
(0 0 0)
(0 0 0)
(0 0 0)
(0 0 0)
(0 0 0)
(-3135.54 6513.87 -211.124)
(-5731.7 15767.4 -552.438)
(-2395.87 19810.1 -781.955)
(763.264 16254.9 -863.594)
(3745.19 14190.5 -908.193)
(3769.86 7892.74 -706.136)
(782.097 1064.86 -127.287)
(6.48812 6.34862 -0.572282)
(0.000323273 0.000243625 -1.76152e-05)
(6.20494e-10 2.59407e-10 -2.12422e-11)
(-9.52882e-13 -1.886e-12 2.46538e-14)
(-2.82987e-14 -2.06963e-14 1.07616e-14)
(0 0 0)
(0 0 0)
(0 0 0)
(0 0 0)
(0 0 0)
(0 0 0)
(0 0 0)
(0 0 0)
(-92.9018 261.579 -8.56997)
(-584.668 1660.87 -72.1948)
(-301.733 2978.57 -151.999)
(136.628 2351.82 -150.598)
(407.592 1666.29 -136.141)
(163.739 374.074 -38.1249)
(2.83813 4.7569 -0.331101)
(0.000359297 0.000409523 -2.28067e-05)
(9.46108e-10 8.02838e-10 -3.51826e-11)
(-2.7596e-13 -8.38812e-13 1.06806e-14)
(-1.4762e-14 -2.10857e-14 0)
(0 7.88454e-51 0)
(0 0 0)
(0 0 0)
(0 0 0)
(0 0 0)
(0 0 0)
(0 0 0)
(0 0 0)
(0 0 0)
(-0.0424463 0.226804 -0.00320536)
(-1.94293 11.047 -0.273485)
(-1.88693 42.0044 -1.4831)
(1.10648 28.6729 -1.15156)
(1.41888 12.7323 -0.614585)
(0.112209 0.526493 -0.0228765)
(8.81538e-05 0.000140291 -5.96231e-06)
(4.74905e-10 8.46811e-10 -2.75276e-11)
(4.74357e-15 -2.04118e-13 1.31608e-14)
(-1.96817e-15 -1.715e-14 0)
(0 0 0)
(0 0 0)
(0 0 0)
(0 0 0)
(0 0 0)
(0 0 0)
(0 0 0)
(0 0 0)
(0 0 0)
(0 0 0)
(-1.45291e-07 8.22233e-07 -7.4489e-09)
(-6.16481e-05 0.000523566 -7.72005e-06)
(-0.000128815 0.00665701 -0.000129443)
(8.00716e-05 0.00354801 -8.50668e-05)
(4.70536e-05 0.000752748 -2.27183e-05)
(6.86003e-07 2.72343e-06 -8.45214e-08)
(8.71525e-11 2.55241e-10 -6.69891e-12)
(8.44439e-16 1.26932e-15 0)
(0 -1.69584e-15 0)
(0 0 0)
(0 0 0)
(0 0 0)
(0 0 0)
(0 0 0)
(0 0 0)
(0 0 0)
(0 0 0)
(0 0 0)
(0 0 0)
(0 0 0)
(-2.51559e-13 1.78979e-12 -1.13834e-14)
(-1.05044e-10 1.16038e-09 -1.14128e-11)
(-1.76921e-10 1.79839e-08 -2.2367e-10)
(1.39727e-10 9.96435e-09 -1.57466e-10)
(7.31947e-11 1.86412e-09 -3.75666e-11)
(1.3402e-12 6.09321e-12 -1.29855e-13)
(1.40416e-16 7.02931e-16 0)
(0 0 0)
(0 0 0)
(0 0 0)
(0 0 0)
(0 0 0)
(0 0 0)
(0 0 0)
(0 0 0)
(0 0 0)
(0 0 0)
(0 0 0)
(0 0 0)
(0 0 0)
(0 1.40031e-16 0)
(0 2.52952e-15 0)
(-1.4063e-16 3.91097e-14 -1.40536e-16)
(0 2.37785e-14 -1.40536e-16)
(0 4.22054e-15 0)
(0 1.40276e-16 0)
(0 0 0)
(0 0 0)
(0 0 0)
(0 0 0)
(0 0 0)
(0 0 0)
(0 0 0)
(0 0 0)
(0 0 0)
(0 0 0)
(0 0 0)
(0 0 0)
(0 0 0)
(0 0 0)
(0 0 0)
(0 0 0)
(0 0 0)
(0 0 0)
(0 0 0)
(0 0 0)
(0 0 0)
(0 0 0)
(0 0 0)
(0 0 0)
(0 0 0)
(0 0 0)
(0 0 0)
(0 0 0)
(0 0 0)
(0 0 0)
(0 0 0)
(0 0 0)
(0 0 0)
(0 0 0)
(-244437 -244466 -1373.63)
(-291475 -380439 -3552.84)
(-300023 -554758 -8638.41)
(-218002 -675757 -15747.6)
(-59885.5 -787332 -23991.6)
(84946.9 -756950 -28851.2)
(226889 -611122 -21733.7)
(284323 -458223 -14127.1)
(262426 -303727 -7164.28)
(203752 -189525 -3153.23)
(166267 -123555 -1686.04)
(99809.6 -61154.3 -843.591)
(33382.7 -18920.1 -303.718)
(7129.91 -3487.15 -84.9392)
(320.875 -117.581 -3.9903)
(0.343231 -0.0627792 -0.00179891)
(1.35973e-06 -2.49938e-07 -4.60096e-09)
(2.84532e-12 -4.22309e-13 -5.62142e-15)
(1.41171e-16 0 0)
(0 0 0)
(-380299 -291277 -3647.67)
(-434983 -434780 -8926.47)
(-433451 -648699 -20654.8)
(-300150 -782174 -36492)
(-78841.6 -888784 -52064.5)
(124229 -846595 -59965.6)
(323476 -699875 -47150.8)
(423851 -541922 -32236.6)
(434247 -378825 -17684)
(339458 -220696 -8031.5)
(264634 -132977 -4158.03)
(190408 -75850.1 -2164.12)
(76780.8 -28046.7 -787.507)
(17225.1 -6358.81 -202.307)
(1944.94 -704.159 -28.4871)
(15.1063 -2.86236 -0.132749)
(0.000914525 -0.000112712 -4.52917e-06)
(2.06594e-09 -1.9476e-10 -6.59548e-12)
(3.94049e-15 -1.40536e-16 0)
(0 0 0)
(-554420 -299618 -8912.32)
(-648711 -432910 -20834.6)
(-643780 -643223 -44912.2)
(-435572 -783226 -74515.8)
(-117591 -865457 -97187.1)
(198076 -831817 -106991)
(498622 -730809 -96132.6)
(653142 -569948 -71622.2)
(668604 -390061 -37227.9)
(498478 -176771 -14259.8)
(348432 -80716.7 -6022.98)
(239338 -38113.8 -3162.91)
(95475.9 -12279.2 -1092.59)
(21751.4 -2779.84 -268.776)
(3458.81 -380.696 -55.7164)
(57.7849 -2.9621 -0.681321)
(0.012114 -0.0002546 -7.47214e-05)
(3.35453e-08 -3.54769e-10 -1.2794e-10)
(7.34908e-14 -2.81071e-16 0)
(0 0 0)
(-674272 -218042 -16599)
(-780767 -300196 -37707.7)
(-783850 -435119 -76074.3)
(-569825 -566924 -112850)
(-268448 -677237 -146176)
(149416 -727552 -175518)
(536501 -683557 -177159)
(776682 -536407 -152139)
(792696 -327147 -88854.5)
(486072 -37622.7 -12350.1)
(326486 -2096.31 -4597.09)
(218178 5695.11 -2595.32)
(82869.2 2900.54 -1009.2)
(18523.5 698.979 -265.166)
(2858.11 132.791 -55.2481)
(42.5814 1.39958 -0.57252)
(0.00735357 0.000134194 -5.54104e-05)
(2.11649e-08 2.35347e-10 -1.01393e-10)
(4.99822e-14 1.40536e-16 0)
(0 0 0)
(-788030 -59847.7 -24278.7)
(-889391 -78381 -51984.9)
(-866944 -115979 -96184.6)
(-683900 -261833 -144417)
(515004 30396.9 -46660.1)
(261593 84482.6 -3340.83)
(194078 55901.8 -1388.08)
(143261 36709.1 -1270.52)
(63155.7 15474.2 -673.456)
(16670.2 4230.83 -242.858)
(2215.48 530.431 -46.3306)
(22.4294 2.59574 -0.317665)
(0.00205581 0.000122944 -1.69982e-05)
(5.22061e-09 1.89842e-10 -2.80543e-11)
(1.13814e-14 1.40536e-16 0)
(0 0 0)
(-756829 84705.6 -28795.3)
(-846126 123763 -59741.1)
(-831512 197880 -106598)
(-728692 150031 -175048)
(177736 93251 -4071.19)
(160747 89397.8 -1260.03)
(151860 82554.3 -1109.72)
(115647 57066.9 -1217.45)
(48636 22621.7 -648.29)
(10072.2 4753.68 -195.828)
(613.224 275.327 -15.5271)
(1.37813 0.294384 -0.016485)
(1.22122e-05 2.78634e-06 -9.77977e-08)
(2.36627e-11 5.07107e-12 -1.27185e-13)
(2.79692e-16 0 0)
(0 0 0)
(-611046 227005 -21854)
(-700024 323545 -47266)
(-731111 499014 -96214.7)
(-683617 537523 -176808)
(91422.9 60129.2 -588.763)
(80549.2 68630.2 -750.442)
(76907.9 62474.4 -1088.59)
(51660.2 38152.1 -913.641)
(15742 11080.6 -326.979)
(1722.95 1252.04 -47.591)
(12.1411 7.39533 -0.233267)
(0.000715838 0.000424276 -7.49554e-06)
(1.363e-09 4.47286e-10 -8.40417e-12)
(2.24968e-15 7.0168e-16 0)
(0 0 0)
(0 0 0)
(-458085 284417 -14068.1)
(-541327 423934 -32016.9)
(-568833 653587 -71257.2)
(-536756 778018 -152469)
(44312.4 42572.3 -883.793)
(20036.5 21936 -466.638)
(17262.6 18058.7 -426.866)
(8700.55 8302.27 -230.769)
(1457.27 1321.45 -44.126)
(16.9908 16.8096 -0.402525)
(0.00212984 0.00184445 -2.8557e-05)
(4.72702e-09 2.52274e-09 -3.53729e-11)
(8.15237e-15 3.09272e-15 0)
(0 0 0)
(0 0 0)
(0 0 0)
(-303278 262259 -7194.96)
(-378842 434043 -17811.6)
(-394453 671422 -38348.6)
(-329348 795234 -93047.3)
(31337.7 520715 -52224.8)
(93382.9 177820 -5208.53)
(59940.5 91317.7 -735.993)
(43257.6 44901.9 -1513.58)
(3740.84 5129.84 -551.954)
(2059.35 3552.45 -108.789)
(1841.47 2480.24 -76.2893)
(448.842 509.164 -16.7494)
(6.52343 8.89258 -0.182647)
(0.0013301 0.00174907 -2.386e-05)
(4.77115e-09 5.45428e-09 -5.11455e-11)
(-8.29334e-15 9.69789e-15 0)
(0 0 0)
(0 0 0)
(0 0 0)
(0 0 0)
(-189301 203543 -3235.29)
(-221446 339853 -8296.51)
(-180140 502844 -15220.2)
(-42824.5 493315 -15850.8)
(81390.7 255891 -5998.74)
(87589 158369 -1914.43)
(65970 78088.9 -754.912)
(19567.5 17985.1 -256.117)
(3016.93 1696.82 -58.497)
(120.392 144.83 -5.43126)
(14.1932 40.4935 -0.939305)
(0.417089 1.28823 -0.018315)
(0.000239369 0.000428891 -4.34377e-06)
(1.75612e-09 3.79323e-09 -2.53117e-11)
(-8.04727e-14 -1.32115e-14 0)
(-1.12513e-15 0 0)
(0 0 0)
(0 0 0)
(0 0 0)
(0 0 0)
(-123409 165995 -1788.3)
(-133316 264598 -4398.51)
(-81933.5 350217 -6561.67)
(-3700.02 327841 -5980.39)
(54436.9 191587 -2890.95)
(81508.7 150571 -1850.54)
(59403.6 74179.8 -1172.49)
(16599.6 15927.8 -354.214)
(2141.23 1573.9 -60.4081)
(30.5125 10.0968 -0.650765)
(0.0070159 0.0102093 -0.000158506)
(2.43987e-06 1.30113e-05 -9.86355e-08)
(2.09489e-10 8.29866e-10 -5.27739e-12)
(-5.91658e-13 -9.19105e-14 1.66604e-14)
(-1.13806e-14 -5.62148e-16 0)
(0 0 0)
(0 0 0)
(0 0 0)
(0 0 0)
(0 0 0)
(-61093.4 99656.2 -932.237)
(-76078.9 190473 -2383.35)
(-38629 240281 -3530.14)
(5192.45 218743 -3235.87)
(36142.2 142161 -1947.83)
(56245.1 114986 -1693.42)
(36922.9 50382.2 -1046.74)
(7858.98 8191.77 -237.422)
(456.078 394.451 -16.351)
(1.05165 0.300669 -0.016227)
(9.50062e-06 1.53874e-06 -9.06827e-08)
(-1.74024e-11 -3.3709e-12 -4.52862e-13)
(-2.57925e-12 -1.24507e-12 -2.52974e-15)
(-1.34889e-14 -1.22255e-14 0)
(0 0 0)
(0 0 0)
(0 0 0)
(0 0 0)
(0 0 0)
(0 0 0)
(-18928.6 33380.3 -341.491)
(-28140.3 76885.4 -886.816)
(-12385.2 95825.9 -1242.86)
(2809.86 83106.5 -1216.3)
(15374.9 63082.6 -920.859)
(22306.1 48506.7 -842.011)
(10895.5 15532.6 -383.286)
(1270.35 1397.17 -48.7752)
(8.17048 5.91489 -0.192452)
(0.000369188 0.000200967 -4.70223e-06)
(6.85559e-10 1.46919e-10 -5.12389e-12)
(-2.31118e-12 -2.75211e-12 3.09839e-15)
(-5.91691e-14 -5.0599e-14 0)
(0 0 0)
(0 0 0)
(0 0 0)
(0 0 0)
(0 0 0)
(0 0 0)
(0 0 0)
(-3496.69 7143.66 -97.401)
(-6381.36 17260 -231.28)
(-2802.67 21805.5 -308.103)
(680.795 18569.1 -314.135)
(4222.4 16707.9 -310.351)
(4717.77 10085.4 -238.498)
(1233.77 1700.09 -55.0289)
(16.1773 16.2672 -0.44937)
(0.00162063 0.00122254 -2.52253e-05)
(3.34035e-09 1.42069e-09 -2.63579e-11)
(-7.29414e-13 -1.43538e-12 4.07561e-15)
(-3.1626e-14 -2.37529e-14 0)
(0 0 0)
(0 0 0)
(0 0 0)
(0 0 0)
(0 0 0)
(0 0 0)
(0 0 0)
(0 0 0)
(-118.437 322.91 -4.63001)
(-708.976 1954.9 -33.0246)
(-385.884 3476.91 -64.4652)
(130.931 2880.54 -64.4246)
(533.151 2230.98 -55.0267)
(275.102 616.358 -18.1207)
(7.3268 11.9155 -0.265892)
(0.0017689 0.00202154 -3.28312e-05)
(5.03347e-09 4.28512e-09 -5.8386e-11)
(-2.1211e-13 -5.99158e-13 -1.40536e-16)
(-1.98145e-14 -3.0359e-14 0)
(0 1.84379e-45 0)
(0 0 0)
(0 0 0)
(0 0 0)
(0 0 0)
(0 0 0)
(0 0 0)
(0 0 0)
(0 0 0)
(-0.063564 0.347754 -0.00211229)
(-2.90806 15.2854 -0.155808)
(-3.03931 58.6259 -0.797773)
(1.40846 43.5309 -0.670128)
(2.64939 22.8115 -0.36822)
(0.297629 1.39392 -0.0190869)
(0.000425721 0.000703508 -8.60802e-06)
(2.45877e-09 4.46651e-09 -4.05755e-11)
(1.10771e-14 -1.43185e-13 0)
(-2.52939e-15 -1.95367e-14 0)
(0 0 0)
(0 0 0)
(0 0 0)
(0 0 0)
(0 0 0)
(0 0 0)
(0 0 0)
(0 0 0)
(0 0 0)
(0 0 0)
(-2.54351e-07 1.38203e-06 -5.46283e-09)
(-0.000115822 0.000935053 -5.38697e-06)
(-0.000264668 0.012473 -8.8686e-05)
(0.000137497 0.00768745 -6.59133e-05)
(0.000127915 0.0021252 -1.98534e-05)
(2.85829e-06 1.25155e-05 -1.14701e-07)
(4.5297e-10 1.35089e-09 -9.75654e-12)
(3.23258e-15 7.87142e-15 0)
(0 -3.35921e-15 0)
(0 0 0)
(0 0 0)
(0 0 0)
(0 0 0)
(0 0 0)
(0 0 0)
(0 0 0)
(0 0 0)
(0 0 0)
(0 0 0)
(0 0 0)
(-4.30039e-13 2.88876e-12 -7.72946e-15)
(-2.00715e-10 2.11618e-09 -7.8766e-12)
(-3.69862e-10 3.4609e-08 -1.524e-10)
(2.40982e-10 2.22266e-08 -1.20685e-10)
(1.99449e-10 5.42086e-09 -3.27368e-11)
(5.22756e-12 2.43467e-11 -1.47703e-13)
(7.03897e-16 2.38905e-15 0)
(0 0 0)
(0 0 0)
(0 0 0)
(0 0 0)
(0 0 0)
(0 0 0)
(0 0 0)
(0 0 0)
(0 0 0)
(0 0 0)
(0 0 0)
(0 0 0)
(0 0 0)
(0 1.40028e-16 0)
(-1.40536e-16 3.93636e-15 0)
(-2.81071e-16 7.63164e-14 -1.40536e-16)
(1.40597e-16 5.27062e-14 0)
(1.40536e-16 1.16667e-14 0)
(0 1.42296e-16 0)
(0 0 0)
(0 0 0)
(0 0 0)
(0 0 0)
(0 0 0)
(0 0 0)
(0 0 0)
(0 0 0)
(0 0 0)
(0 0 0)
(0 0 0)
(0 0 0)
(0 0 0)
(0 0 0)
(0 0 0)
(0 0 0)
(0 0 0)
(0 0 0)
(0 0 0)
(0 0 0)
(0 0 0)
(0 0 0)
(0 0 0)
(0 0 0)
(0 0 0)
(0 0 0)
(0 0 0)
(0 0 0)
(0 0 0)
(0 0 0)
(0 0 0)
(0 0 0)
(0 0 0)
(0 0 0)
(-248241 -248322 -250.185)
(-299517 -389407 -707.895)
(-312813 -574573 -2232.73)
(-229938 -704647 -4891.06)
(-64916.8 -828623 -7953.11)
(86151.2 -805179 -9092)
(241563 -652339 -6086.42)
(304442 -489082 -3125.76)
(278757 -321414 -1219.96)
(213018 -197992 -457.215)
(172282 -128313 -237.758)
(102978 -63208.4 -127.619)
(34416.9 -19540.4 -46.1522)
(7359.69 -3614.25 -10.6903)
(339.595 -125.608 -0.437937)
(0.381231 -0.0697464 -0.000190757)
(1.54498e-06 -2.86247e-07 -4.46303e-10)
(3.18287e-12 -4.77259e-13 -2.81071e-16)
(1.44028e-16 0 0)
(0 0 0)
(-389398 -299679 -680.13)
(-452059 -452222 -1929.95)
(-461083 -688022 -6159.94)
(-326989 -845266 -13674)
(-89040.3 -966589 -21709.1)
(128823 -928948 -23482.8)
(351807 -775814 -15319.8)
(462760 -599574 -7399.27)
(468301 -411545 -2910.66)
(360344 -235393 -1035.31)
(276400 -139558 -479.322)
(197938 -79269.4 -255.919)
(79689.8 -29182 -104.981)
(17806.5 -6585.07 -25.7187)
(2039.59 -742.492 -3.02386)
(16.3866 -3.16093 -0.0127076)
(0.00104833 -0.000129753 -3.90272e-07)
(2.36284e-09 -2.22648e-10 -4.70794e-13)
(4.9268e-15 -1.40536e-16 0)
(0 0 0)
(-574707 -312937 -2060.3)
(-688212 -461336 -5847.2)
(-692832 -692534 -17168.2)
(-472205 -850348 -33355.2)
(-131999 -936834 -47059.7)
(203315 -906150 -51080.3)
(537327 -817563 -39614.5)
(728297 -656107 -20633)
(746203 -442838 -7624.49)
(539160 -192915 -2011.77)
(366204 -85499.5 -651.806)
(249749 -40224.1 -302.464)
(99471.5 -12858.8 -116.068)
(22507.4 -2890.03 -29.7639)
(3616.63 -402.791 -4.97109)
(62.482 -3.28609 -0.0498171)
(0.0138889 -0.000295655 -4.83378e-06)
(3.85028e-08 -4.1001e-10 -7.02327e-12)
(8.38871e-14 -2.81071e-16 0)
(0 0 0)
(-705007 -230007 -4334.25)
(-846271 -326957 -12423.1)
(-851806 -471216 -32006.9)
(-617147 -614695 -64012)
(-287139 -735955 -84467.2)
(145187 -783834 -101315)
(548919 -742982 -96819)
(849194 -618752 -69674.3)
(928652 -384610 -31424)
(539548 -42724.5 -3767.53)
(345092 -2453.13 -1129.43)
(228072 5831.62 -467.688)
(86526.9 2986.85 -161.048)
(19219.1 709.672 -40.0461)
(3004.4 136.13 -6.14661)
(46.4533 1.51156 -0.0496668)
(0.00854875 0.0001526 -4.26641e-06)
(2.46175e-08 2.65919e-10 -6.47953e-12)
(5.78448e-14 1.40536e-16 0)
(0 0 0)
(-830021 -64716 -7788.28)
(-967351 -88710.1 -21204.7)
(-935695 -132168 -47269.3)
(-730042 -292907 -86682.6)
(625668 50720 -19818.2)
(283857 92353.7 -2320.87)
(203563 58869.9 -1253.57)
(149220 38305.7 -615.234)
(65796.2 16055 -233.447)
(17338.2 4377.86 -58.2829)
(2351.2 562.768 -5.97487)
(24.9121 2.92691 -0.0264248)
(0.00245654 0.000146689 -1.18108e-06)
(6.2285e-09 2.24524e-10 -1.51891e-12)
(1.30601e-14 1.40536e-16 0)
(0 0 0)
(-805911 86778 -9223.61)
(-929691 129662 -23840.2)
(-906194 203986 -51642.4)
(-783193 144578 -100870)
(214746 118887 1401.48)
(166678 93058.4 -239.268)
(157646 85891 -479.111)
(120452 59450.7 -353.17)
(50820.9 23617.1 -139.156)
(10590.2 4989.44 -24.3387)
(668.698 301.627 -1.05333)
(1.59805 0.345618 -0.000771331)
(1.53446e-05 3.45638e-06 -4.13139e-09)
(2.9128e-11 6.18127e-12 -4.07553e-15)
(5.18349e-35 0 0)
(0 0 0)
(-652807 242101 -6089.51)
(-776499 352535 -15410.3)
(-818222 538219 -40012.7)
(-743224 549433 -97234.2)
(99289.1 66911.2 607.796)
(82953 70775.5 58.4315)
(80044.6 65272.6 -41.0148)
(54211.8 40145.7 -77.3776)
(16599.8 11691.1 -24.8081)
(1862.53 1354.57 -2.23599)
(13.9351 8.54332 -0.00778319)
(0.000897814 0.000528232 -2.34665e-07)
(1.71261e-09 5.60042e-10 -2.03636e-13)
(2.81145e-15 7.02678e-16 0)
(0 0 0)
(0 0 0)
(-488972 304704 -3232.39)
(-599147 463130 -7670.92)
(-655309 729183 -21160.6)
(-619007 850793 -69905.7)