/*--------------------------------*- C++ -*----------------------------------*\
  =========                 |
  \\      /  F ield         | OpenFOAM: The Open Source CFD Toolbox
   \\    /   O peration     | Website:  https://openfoam.org
    \\  /    A nd           | Version:  9
     \\/     M anipulation  |
\*---------------------------------------------------------------------------*/
FoamFile
{
    format      ascii;
    class       volScalarField;
    location    "0.0005";
    object      T;
}
// * * * * * * * * * * * * * * * * * * * * * * * * * * * * * * * * * * * * * //

dimensions      [0 0 0 1 0 0 0];

internalField   nonuniform List<scalar> 
9720
(
1655.86
1720.16
1808.37
1857.29
1895.42
1888.18
1835.08
1765.39
1656.18
1555.78
1555.85
1669.19
2569.11
5702.69
1090.19
348.402
348.189
348.189
348.189
348.189
1719.83
1823.49
1908.53
1960.09
1993.6
1987.91
1938.39
1864.49
1755.26
1579.08
1508.63
1546.14
1860.93
3854.63
3801.88
365.913
348.19
348.189
348.189
348.189
1808.19
1908.49
1978.11
2024.82
2043.71
2042.9
2012.46
1952.03
1863.5
1711.51
1575.4
1577.18
1730.98
3367.85
4913.09
421.856
348.192
348.189
348.189
348.189
1857.14
1959.9
2024.68
2049.89
2075.14
2080.31
2069.41
2027.79
1943.81
1728.56
1575.47
1567.6
1723.29
3448.03
4182.77
390.753
348.191
348.189
348.189
348.189
1895.88
1993.74
2043.48
2074.95
1821.88
1577.63
1465.15
1494.18
1840.71
3889.32
3144.01
359.795
348.19
348.189
348.189
348.189
1888.71
1988.33
2043.04
2079.78
1509.2
1375.14
1446.39
1631.14
2368.56
4790.49
915.242
348.331
348.189
348.189
348.189
348.189
1835.27
1938.65
2012.69
2069.37
1246.83
1541.23
1715.96
2196.01
3646.56
1840.69
349.976
348.189
348.189
348.189
348.189
348.189
1765.37
1864.5
1952.01
2028.08
4137.53
2808.33
3025.01
3833.57
1566.93
350.894
348.189
348.189
348.189
348.189
348.189
348.189
1656
1754.97
1862.48
1941.75
1816.72
1522.8
1252.89
3583.13
366.045
3228.59
2519.08
711.894
349.249
348.189
348.189
348.189
348.189
348.189
348.189
348.189
1555.65
1578.73
1709.49
1725.04
1577.81
1379.66
1529.8
2724.32
3554.74
413.361
356.542
348.261
348.189
348.189
348.189
348.189
348.189
348.189
348.189
348.189
1555.83
1508.66
1574.61
1574.55
1466.45
1448.69
1715.26
2998.26
2719.58
358.87
348.19
348.189
348.189
348.189
348.189
348.189
348.189
348.189
348.189
348.189
1669.36
1546.33
1577.09
1568.15
1496.34
1634.23
2203.9
3872.45
737.615
348.271
348.189
348.189
348.189
348.189
348.189
348.189
348.189
348.189
348.189
348.189
2570.5
1862.79
1733.22
1726.35
1845.48
2376.56
3680.54
1588.56
349.283
348.189
348.189
348.189
348.189
348.189
348.189
348.189
348.189
348.189
348.189
348.189
5701.78
3864.39
3379.62
3458.65
3897.96
4808.17
1846.44
350.912
348.189
348.189
348.189
348.189
348.189
348.189
348.189
348.189
348.189
348.189
348.189
348.189
1080.79
3775.79
4888.33
4171.13
3135.72
907.578
349.954
348.189
348.189
348.189
348.189
348.189
348.189
348.189
348.189
348.189
348.189
348.189
348.189
348.189
348.396
365.449
419.778
389.923
359.584
348.326
348.189
348.189
348.189
348.189
348.189
348.189
348.189
348.189
348.189
348.189
348.189
348.189
348.189
348.189
348.189
348.19
348.192
348.191
348.19
348.189
348.189
348.189
348.189
348.189
348.189
348.189
348.189
348.189
348.189
348.189
348.189
348.189
348.189
348.189
348.189
348.189
348.189
348.189
348.189
348.189
348.189
348.189
348.189
348.189
348.189
348.189
348.189
348.189
348.189
348.189
348.189
348.189
348.189
348.189
348.189
348.189
348.189
348.189
348.189
348.189
348.189
348.189
348.189
348.189
348.189
348.189
348.189
348.189
348.189
348.189
348.189
348.189
348.189
348.189
348.189
348.189
348.189
348.189
348.189
348.189
348.189
348.189
348.189
348.189
348.189
348.189
348.189
348.189
348.189
348.189
348.189
348.189
348.189
348.189
1660.5
1729.84
1818.26
1867.76
1906.26
1900.64
1849.48
1783.35
1679.77
1572.55
1566.93
1664.36
2492.61
5634.62
1308.27
348.548
348.189
348.189
348.189
348.189
1729.36
1835.77
1918.99
1968.95
1999.74
1994.13
1948.32
1881.73
1785.14
1622.03
1527.49
1555.37
1821.32
3658.03
4270.91
376.262
348.19
348.189
348.189
348.189
1817.9
1918.82
1984.48
2027.17
2042.13
2038.84
2010.26
1956.86
1877.61
1736.99
1591.82
1584.06
1701.4
3138.68
5319.39
467.659
348.196
348.189
348.189
348.189
1867.39
1968.58
2026.93
2045.31
2066.04
2063.43
2051.05
2013.49
1939.46
1740.39
1582.63
1559.64
1677.27
3183.57
4598.74
419.561
348.193
348.189
348.189
348.189
1906.65
1999.89
2042.01
2064.7
1788.75
1586.72
1461.2
1474.04
1737.08
3553.44
3955.28
377.228
348.19
348.189
348.189
348.189
1901.1
1994.51
2039.1
2063.58
1468.09
1366.92
1418.83
1568.36
2173.08
4444.45
1615.06
349.081
348.189
348.189
348.189
348.189
1849.63
1948.52
2010.41
2051.07
1155.3
1428.71
1629.24
2059.12
3296.8
3097.54
359.8
348.19
348.189
348.189
348.189
348.189
1783.34
1881.79
1956.9
2013.79
1714.35
2376.57
2714.25
3681.05
2779.88
366.228
348.19
348.189
348.189
348.189
348.189
348.189
1679.65
1785
1877.21
1936.85
1785.66
1477.03
1156.4
1562.52
3148.56
4484.03
3862.53
1396.9
356.078
348.19
348.189
348.189
348.189
348.189
348.189
348.189
1572.35
1621.63
1736.2
1740.06
1590.74
1371.53
1419.89
2342.82
4552.02
726.999
396.941
348.898
348.189
348.189
348.189
348.189
348.189
348.189
348.189
348.189
1566.77
1527.24
1591.18
1582.58
1463.76
1421.16
1628.95
2711.78
3931.79
400.825
348.193
348.189
348.189
348.189
348.189
348.189
348.189
348.189
348.189
348.189
1664.33
1555.23
1583.77
1559.97
1476.23
1570.44
2062.61
3697.89
1411.96
348.919
348.189
348.189
348.189
348.189
348.189
348.189
348.189
348.189
348.189
348.189
2493.68
1821.84
1701.71
1677.81
1737.08
2172.28
3303.99
2793.18
356.141
348.189
348.189
348.189
348.189
348.189
348.189
348.189
348.189
348.189
348.189
348.189
5636.63
3661.55
3139.56
3181.06
3544.55
4438.34
3108.27
366.337
348.19
348.189
348.189
348.189
348.189
348.189
348.189
348.189
348.189
348.189
348.189
348.189
1302.94
4261.02
5313.46
4608.21
3977.24
1627.75
359.914
348.19
348.189
348.189
348.189
348.189
348.189
348.189
348.189
348.189
348.189
348.189
348.189
348.189
348.544
375.987
466.862
420.125
377.84
349.102
348.19
348.189
348.189
348.189
348.189
348.189
348.189
348.189
348.189
348.189
348.189
348.189
348.189
348.189
348.189
348.19
348.196
348.193
348.19
348.189
348.189
348.189
348.189
348.189
348.189
348.189
348.189
348.189
348.189
348.189
348.189
348.189
348.189
348.189
348.189
348.189
348.189
348.189
348.189
348.189
348.189
348.189
348.189
348.189
348.189
348.189
348.189
348.189
348.189
348.189
348.189
348.189
348.189
348.189
348.189
348.189
348.189
348.189
348.189
348.189
348.189
348.189
348.189
348.189
348.189
348.189
348.189
348.189
348.189
348.189
348.189
348.189
348.189
348.189
348.189
348.189
348.189
348.189
348.189
348.189
348.189
348.189
348.189
348.189
348.189
348.189
348.189
348.189
348.189
348.189
348.189
348.189
348.189
348.189
1664.94
1739.44
1828.26
1878.41
1917
1911.98
1862.39
1799.23
1699.31
1585.36
1573.99
1660.64
2429.15
5550.47
1525.47
348.758
348.189
348.189
348.189
348.189
1739.11
1848.93
1930.19
1978.55
2006.07
1999.65
1958.16
1899.37
1811.72
1652.7
1539.65
1561.28
1795.21
3523.62
4650.2
388.337
348.19
348.189
348.189
348.189
1828.02
1930.06
1990.91
2030.21
2041.8
2037.2
2011.45
1966.64
1897.97
1770.46
1616.74
1594.07
1692.53
3000.78
5620.29
520.68
348.202
348.189
348.189
348.189
1878
1978.07
2029.79
2044.1
2064.67
2062.51
2051.07
2018.52
1950.58
1784.67
1632.47
1590.55
1684.53
3025.11
5049.14
463.423
348.197
348.189
348.189
348.189
1917.23
2006.13
2041.78
2063.24
1802.37
1641.41
1508.48
1508.92
1717.12
3363.47
4667.08
405.992
348.191
348.189
348.189
348.189
1912.29
1999.93
2037.49
2062.79
1519.86
1419.75
1452.28
1578.76
2095.26
4262.21
2314.89
350.932
348.189
348.189
348.189
348.189
1862.48
1958.27
2011.53
2051.17
1228.38
1441.61
1623.31
1999.84
3117.49
4063.35
383.249
348.19
348.189
348.189
348.189
348.189
1799.27
1899.46
1966.89
2018.64
1591.54
2230.28
2564.73
3510.57
3746.69
403.201
348.192
348.189
348.189
348.189
348.189
348.189
1699.3
1812.08
1899.18
1951.76
1805.3
1518.58
1222.73
1598.61
8432.75
4813.82
4569.25
2121.49
374.112
348.191
348.189
348.189
348.189
348.189
348.189
348.189
1585.16
1653.28
1772.59
1786.92
1634.98
1412.86
1458.36
2326.91
4793.84
1086.25
479.751
350.825
348.19
348.189
348.189
348.189
348.189
348.189
348.189
348.189
1573.48
1539.32
1617.85
1633.2
1504.15
1450.67
1631.1
2612.02
4370.09
442.409
348.205
348.189
348.189
348.189
348.189
348.189
348.189
348.189
348.189
348.189
1659.87
1560.49
1593.24
1588.07
1504.64
1576.32
1999.85
3516.24
1963.06
350.266
348.189
348.189
348.189
348.189
348.189
348.189
348.189
348.189
348.189
348.189
2427.84
1793.06
1689.92
1680.1
1710.86
2088.93
3104.41
3632
371.472
348.19
348.189
348.189
348.189
348.189
348.189
348.189
348.189
348.189
348.189
348.189
5549.56
3517.12
2989.94
3011.88
3349.84
4246.9
4011.29
400.143
348.191
348.189
348.189
348.189
348.189
348.189
348.189
348.189
348.189
348.189
348.189
348.189
1532.24
4661.47
5625.67
5060.66
4674.16
2313.8
382.37
348.192
348.189
348.189
348.189
348.189
348.189
348.189
348.189
348.189
348.189
348.189
348.189
348.189
348.766
388.869
523.546
466.224
407.004
350.959
348.19
348.189
348.189
348.189
348.189
348.189
348.189
348.189
348.189
348.189
348.189
348.189
348.189
348.189
348.189
348.19
348.203
348.197
348.191
348.189
348.189
348.189
348.189
348.189
348.189
348.189
348.189
348.189
348.189
348.189
348.189
348.189
348.189
348.189
348.189
348.189
348.189
348.189
348.189
348.189
348.189
348.189
348.189
348.189
348.189
348.189
348.189
348.189
348.189
348.189
348.189
348.189
348.189
348.189
348.189
348.189
348.189
348.189
348.189
348.189
348.189
348.189
348.189
348.189
348.189
348.189
348.189
348.189
348.189
348.189
348.189
348.189
348.189
348.189
348.189
348.189
348.189
348.189
348.189
348.189
348.189
348.189
348.189
348.189
348.189
348.189
348.189
348.189
348.189
348.189
348.189
348.189
348.189
348.189
1667.98
1745.39
1836.08
1888.01
1928.45
1925.42
1876.1
1812.72
1711.73
1594.14
1580.61
1664.66
2417.46
5535.79
1593.94
348.834
348.189
348.189
348.189
348.189
1745.43
1859.44
1942.63
1992.16
2019.33
2014.99
1977.02
1919.88
1829.98
1667.99
1549.43
1569.49
1797.13
3501.16
4775.71
392.552
348.19
348.189
348.189
348.189
1836.26
1942.74
2003.48
2042.1
2052.17
2048.51
2027.17
1988.48
1920.09
1788.1
1627.93
1602.96
1698.84
2984.76
5720.23
537.616
348.205
348.189
348.189
348.189
1888.26
1992.36
2042.33
2052.1
2070.68
2069.33
2059.76
2035.86
1981.25
1805.87
1643.93
1599.67
1691.49
3010.71
5166.93
476.158
348.198
348.189
348.189
348.189
1929.08
2019.66
2052.35
2071.51
1837.54
1657
1517.2
1516.84
1720.91
3346.72
4818.77
413.786
348.192
348.189
348.189
348.189
1925.83
2015.25
2048.63
2069.36
1571.61
1427.85
1459.74
1585.98
2095.05
4250.68
2461.36
351.46
348.189
348.189
348.189
348.189
1876.3
1977.21
2027.31
2059.86
1235.18
1451.77
1632.78
2004.11
3102.99
4227.74
389.506
348.19
348.189
348.189
348.189
348.189
1812.73
1919.95
1988.65
2035.95
1423.59
2243.64
2565.63
3496.5
3897.16
412.694
348.193
348.189
348.189
348.189
348.189
348.189
1711.64
1830.15
1921.09
1983.57
1839.53
1555.83
1230.1
1581.74
9185.14
4868.38
4652.24
2240.62
378.591
348.192
348.189
348.189
348.189
348.189
348.189
348.189
1594.12
1668.23
1789.93
1809.15
1657.03
1426.8
1459.59
2294.78
4846.27
1181.74
493.383
351.256
348.19
348.189
348.189
348.189
348.189
348.189
348.189
348.189
1580.59
1549.56
1629.39
1646.24
1517.49
1460.74
1635.55
2585.34
4520.87
465.707
348.209
348.189
348.189
348.189
348.189
348.189
348.189
348.189
348.189
348.189
1664.41
1569.5
1603.3
1599.93
1516.43
1584.99
2000.88
3489.56
2153.05
350.925
348.189
348.189
348.189
348.189
348.189
348.189
348.189
348.189
348.189
348.189
2414.85
1795.69
1697.77
1689.97
1717.18
2088
3086.32
3856.13
377.97
348.19
348.189
348.189
348.189
348.189
348.189
348.189
348.189
348.189
348.189
348.189
5533.76
3492.23
2972.89
2996.54
3329.75
4228.34
4231.49
413.514
348.192
348.189
348.189
348.189
348.189
348.189
348.189
348.189
348.189
348.189
348.189
348.189
1614.27
4810.23
5743.55
5200.56
4858.02
2498.91
390.916
348.193
348.189
348.189
348.189
348.189
348.189
348.189
348.189
348.189
348.189
348.189
348.189
348.189
348.86
394.036
544.131
481.758
416.805
351.653
348.19
348.189
348.189
348.189
348.189
348.189
348.189
348.189
348.189
348.189
348.189
348.189
348.189
348.189
348.189
348.19
348.206
348.199
348.192
348.189
348.189
348.189
348.189
348.189
348.189
348.189
348.189
348.189
348.189
348.189
348.189
348.189
348.189
348.189
348.189
348.189
348.189
348.189
348.189
348.189
348.189
348.189
348.189
348.189
348.189
348.189
348.189
348.189
348.189
348.189
348.189
348.189
348.189
348.189
348.189
348.189
348.189
348.189
348.189
348.189
348.189
348.189
348.189
348.189
348.189
348.189
348.189
348.189
348.189
348.189
348.189
348.189
348.189
348.189
348.189
348.189
348.189
348.189
348.189
348.189
348.189
348.189
348.189
348.189
348.189
348.189
348.189
348.189
348.189
348.189
348.189
348.189
348.189
348.189
1668.54
1746.64
1838.02
1890.79
1932.08
1929.53
1879.71
1815.63
1713.87
1595.57
1581.86
1665.86
2417.05
5535.47
1599.65
348.839
348.189
348.189
348.189
348.189
1746.37
1861.81
1946.62
1997.93
2026.27
2022.68
1984.02
1924.87
1832.82
1669.58
1550.91
1571.06
1798.73
3501.33
4786.59
392.802
348.19
348.189
348.189
348.189
1837.85
1946.47
2009.39
2050.69
2061.6
2058.83
2037.37
1996.26
1924.05
1789.26
1628.41
1604.18
1700.54
2986.29
5727.58
538.098
348.205
348.189
348.189
348.189
1890.61
1997.6
2050.43
2068.05
2085.6
2084.83
2078.58
2056.1
1994.2
1806.79
1643.7
1600.17
1692.77
3012.81
5176.51
476.735
348.198
348.189
348.189
348.189
1932.57
2026.51
2061.58
2084.7
1848.77
1656.53
1516.58
1516.91
1722.97
3348.1
4820.95
413.679
348.192
348.189
348.189
348.189
1930.05
2023.1
2059.11
2084.74
1552.41
1426.83
1460.11
1587.76
2099.41
4254.56
2449.86
351.402
348.189
348.189
348.189
348.189
1879.96
1984.26
2037.54
2078.68
1231.95
1453.66
1636.24
2010.23
3113.95
4204.31
388.293
348.19
348.189
348.189
348.189
348.189
1815.67
1925
1996.46
2056.33
1608.05
2259.57
2580.56
3515.19
3866.02
410.376
348.192
348.189
348.189
348.189
348.189
348.189
1713.71
1832.88
1924.51
1994.56
1849.22
1557.19
1234.94
1544.96
9385.62
4879.87
4626.46
2196.74
377.179
348.192
348.189
348.189
348.189
348.189
348.189
348.189
1595.44
1669.49
1790.06
1808.23
1658.5
1428.77
1455.78
2272.43
4863.43
1204.61
484.793
351.05
348.19
348.189
348.189
348.189
348.189
348.189
348.189
348.189
1581.82
1550.86
1629.04
1644.81
1517.88
1461.61
1636.59
2578.65
4586.84
478.249
348.21
348.189
348.189
348.189
348.189
348.189
348.189
348.189
348.189
348.189
1665.73
1571.08
1604.41
1600.35
1517.45
1587.13
2005.88
3496.31
2209.64
351.134
348.189
348.189
348.189
348.189
348.189
348.189
348.189
348.189
348.189
348.189
2414.71
1797.7
1699.87
1691.77
1720.1
2092.19
3094.75
3904.36
379.189
348.19
348.189
348.189
348.189
348.189
348.189
348.189
348.189
348.189
348.189
348.189
5533.59
3493.27
2976.48
3001.21
3332.17
4232.4
4263.46
415.332
348.192
348.189
348.189
348.189
348.189
348.189
348.189
348.189
348.189
348.189
348.189
348.189
1619.38
4821.02
5751.72
5207.7
4877.83
2518.61
391.833
348.193
348.189
348.189
348.189
348.189
348.189
348.189
348.189
348.189
348.189
348.189
348.189
348.189
348.864
394.253
544.389
481.817
417.645
351.72
348.19
348.189
348.189
348.189
348.189
348.189
348.189
348.189
348.189
348.189
348.189
348.189
348.189
348.189
348.189
348.19
348.206
348.199
348.192
348.189
348.189
348.189
348.189
348.189
348.189
348.189
348.189
348.189
348.189
348.189
348.189
348.189
348.189
348.189
348.189
348.189
348.189
348.189
348.189
348.189
348.189
348.189
348.189
348.189
348.189
348.189
348.189
348.189
348.189
348.189
348.189
348.189
348.189
348.189
348.189
348.189
348.189
348.189
348.189
348.189
348.189
348.189
348.189
348.189
348.189
348.189
348.189
348.189
348.189
348.189
348.189
348.189
348.189
348.189
348.189
348.189
348.189
348.189
348.189
348.189
348.189
348.189
348.189
348.189
348.189
348.189
348.189
348.189
348.189
348.189
348.189
348.189
348.189
348.189
1668.54
1746.76
1838.13
1890.91
1932.03
1929.45
1879.68
1815.64
1713.93
1595.63
1581.93
1665.94
2417.05
5535.65
1599.71
348.839
348.189
348.189
348.189
348.189
1746.24
1861.8
1946.68
1998.03
2026.25
2022.61
1983.99
1924.86
1832.79
1669.49
1550.91
1571.12
1798.91
3502.31
4786.68
392.791
348.19
348.189
348.189
348.189
1837.75
1946.43
2009.4
2050.75
2061.62
2058.77
2037.37
1996.22
1923.81
1788.85
1628.22
1604.25
1700.8
2987.11
5728.52
538.104
348.205
348.189
348.189
348.189
1890.53
1997.57
2050.42
2070.3
2088.88
2088.27
2081.05
2056.78
1993.69
1806.28
1643.55
1600.52
1693.26
3012.99
5181.67
477.264
348.198
348.189
348.189
348.189
1932.67
2026.56
2061.56
2087.42
1847.37
1656.58
1516.97
1517.59
1723.92
3348.07
4829.54
414.141
348.192
348.189
348.189
348.189
1930.13
2023.17
2059.2
2088.46
1558.33
1427.85
1460.85
1588.9
2101.51
4258.84
2450.74
351.403
348.189
348.189
348.189
348.189
1879.97
1984.28
2037.55
2081.16
1236.22
1451.72
1637.24
2013.32
3122.37
4201.78
387.976
348.19
348.189
348.189
348.189
348.189
1815.64
1924.97
1996.51
2057.11
1513.15
2247.61
2578.12
3523.03
3867.23
409.786
348.192
348.189
348.189
348.189
348.189
348.189
1713.7
1832.98
1924.72
1996.24
1851.89
1552.41
1235.84
1589.29
9646.08
4874.24
4643.24
2202.2
376.938
348.192
348.189
348.189
348.189
348.189
348.189
348.189
1595.44
1669.66
1790.53
1808.77
1655.97
1426.33
1458.9
2284.48
4889.59
1227.03
489.514
351.063
348.19
348.189
348.189
348.189
348.189
348.189
348.189
348.189
1581.81
1550.89
1629.6
1645.68
1517.53
1461.55
1638.5
2587.21
4589.53
475.814
348.21
348.189
348.189
348.189
348.189
348.189
348.189
348.189
348.189
348.189
1665.75
1571.08
1604.7
1601
1517.77
1588.51
2008.13
3504.13
2184.32
351.012
348.189
348.189
348.189
348.189
348.189
348.189
348.189
348.189
348.189
348.189
2415.01
1797.65
1700.03
1692.28
1721.67
2095.64
3100.38
3877.28
378.036
348.19
348.189
348.189
348.189
348.189
348.189
348.189
348.189
348.189
348.189
348.189
5533.18
3493.26
2977.02
3002.57
3337.67
4243.32
4243.12
413.256
348.192
348.189
348.189
348.189
348.189
348.189
348.189
348.189
348.189
348.189
348.189
348.189
1617
4818.59
5751.44
5205.67
4868.35
2501.51
390.668
348.193
348.189
348.189
348.189
348.189
348.189
348.189
348.189
348.189
348.189
348.189
348.189
348.189
348.861
394.15
544.076
481.285
416.825
351.635
348.19
348.189
348.189
348.189
348.189
348.189
348.189
348.189
348.189
348.189
348.189
348.189
348.189
348.189
348.189
348.19
348.206
348.199
348.192
348.189
348.189
348.189
348.189
348.189
348.189
348.189
348.189
348.189
348.189
348.189
348.189
348.189
348.189
348.189
348.189
348.189
348.189
348.189
348.189
348.189
348.189
348.189
348.189
348.189
348.189
348.189
348.189
348.189
348.189
348.189
348.189
348.189
348.189
348.189
348.189
348.189
348.189
348.189
348.189
348.189
348.189
348.189
348.189
348.189
348.189
348.189
348.189
348.189
348.189
348.189
348.189
348.189
348.189
348.189
348.189
348.189
348.189
348.189
348.189
348.189
348.189
348.189
348.189
348.189
348.189
348.189
348.189
348.189
348.189
348.189
348.189
348.189
348.189
348.189
1668
1745.74
1836.39
1888.33
1928.32
1925.2
1875.98
1812.69
1711.79
1594.33
1580.88
1664.94
2417.51
5536.27
1592.87
348.832
348.189
348.189
348.189
348.189
1745.15
1859.5
1942.86
1992.53
2019.27
2014.8
1976.92
1919.81
1829.83
1667.84
1549.65
1569.79
1797.75
3504.18
4771.27
392.332
348.19
348.189
348.189
348.189
1836.03
1942.63
2003.52
2042.4
2052.22
2048.35
2027.15
1988.38
1919.72
1787.42
1627.53
1603.06
1699.38
2987.3
5716.29
536.449
348.204
348.189
348.189
348.189
1888.04
1992.11
2042.09
2062.83
2079.21
2077.03
2070.68
2050.92
1992.42
1805.37
1643.52
1599.93
1692.16
3011.96
5172.91
476.598
348.198
348.189
348.189
348.189
1929.22
2019.71
2052.25
2077.84
1846.79
1656.03
1516.7
1517.15
1722.5
3346.68
4824.57
414.047
348.192
348.189
348.189
348.189
1926.02
2015.44
2048.8
2077.24
1557.95
1428
1460.73
1588.03
2099.62
4257.46
2448.83
351.405
348.189
348.189
348.189
348.189
1876.36
1977.29
2027.36
2070.69
1236.43
1451.83
1636.08
2011.33
3121.43
4200.19
388.015
348.19
348.189
348.189
348.189
348.189
1812.75
1920
1988.64
2051.2
1526.89
2245.61
2575.34
3521.29
3867.73
409.888
348.192
348.189
348.189
348.189
348.189
348.189
1711.57
1829.87
1920.24
1992.88
1846.71
1560.29
1236.01
1505.61
9700.54
4880.42
4649
2206.44
377.038
348.192
348.189
348.189
348.189
348.189
348.189
348.189
1594.05
1667.68
1788.23
1806.98
1658.19
1429.04
1453.33
2257.88
4862.41
1262.89
491.267
351.083
348.19
348.189
348.189
348.189
348.189
348.189
348.189
348.189
1580.62
1549.35
1627.99
1644.49
1517.77
1461.33
1635.15
2576.3
4606.63
482.478
348.211
348.189
348.189
348.189
348.189
348.189
348.189
348.189
348.189
348.189
1664.6
1569.45
1602.87
1599.88
1517.26
1586.65
2006.25
3507.05
2203.99
351.095
348.189
348.189
348.189
348.189
348.189
348.189
348.189
348.189
348.189
348.189
2416.01
1796.57
1698.39
1691.09
1719.78
2092.88
3103.33
3885.99
378.236
348.19
348.189
348.189
348.189
348.189
348.189
348.189
348.189
348.189
348.189
348.189
5534.78
3497.99
2979.65
3003.51
3335.78
4238.01
4234.46
412.982
348.192
348.189
348.189
348.189
348.189
348.189
348.189
348.189
348.189
348.189
348.189
348.189
1603.16
4790.14
5729.3
5188.71
4851.91
2490.33
390.264
348.193
348.189
348.189
348.189
348.189
348.189
348.189
348.189
348.189
348.189
348.189
348.189
348.189
348.845
393.147
540.2
479.413
416.103
351.599
348.19
348.189
348.189
348.189
348.189
348.189
348.189
348.189
348.189
348.189
348.189
348.189
348.189
348.189
348.189
348.19
348.205
348.198
348.192
348.189
348.189
348.189
348.189
348.189
348.189
348.189
348.189
348.189
348.189
348.189
348.189
348.189
348.189
348.189
348.189
348.189
348.189
348.189
348.189
348.189
348.189
348.189
348.189
348.189
348.189
348.189
348.189
348.189
348.189
348.189
348.189
348.189
348.189
348.189
348.189
348.189
348.189
348.189
348.189
348.189
348.189
348.189
348.189
348.189
348.189
348.189
348.189
348.189
348.189
348.189
348.189
348.189
348.189
348.189
348.189
348.189
348.189
348.189
348.189
348.189
348.189
348.189
348.189
348.189
348.189
348.189
348.189
348.189
348.189
348.189
348.189
348.189
348.189
348.189
1664.93
1739.57
1828.3
1878.37
1916.66
1911.68
1862.23
1799.18
1699.31
1585.39
1574.04
1660.71
2429.47
5551.34
1522.35
348.755
348.189
348.189
348.189
348.189
1738.98
1848.94
1930.25
1978.58
2005.91
1999.45
1958.01
1899.32
1811.49
1652.46
1539.72
1561.33
1795.88
3527.91
4640.25
387.944
348.19
348.189
348.189
348.189
1827.97
1930.04
1990.93
2030.24
2041.81
2037.14
2011.38
1966.58
1897.45
1769.41
1615.62
1593.5
1692.42
3004.42
5608.99
518.422
348.202
348.189
348.189
348.189
1878.01
1978.07
2029.84
2049.93
2068.08
2065.83
2055.82
2027.02
1967.03
1782.71
1629.84
1588.33
1682.85
3027.1
5040.38
462.438
348.196
348.189
348.189
348.189
1917.57
2006.3
2041.77
2066.58
1822.6
1639.77
1505.98
1506.41
1715.19
3364.63
4645.76
405.007
348.191
348.189
348.189
348.189
1912.55
2000.13
2037.57
2065.92
1557.54
1418.81
1451.38
1577.87
2097.74
4269.11
2280.95
350.815
348.189
348.189
348.189
348.189
1862.6
1958.39
2011.62
2055.92
1236.9
1443.12
1625.44
2005.51
3135.75
4012.44
381.282
348.19
348.189
348.189
348.189
348.189
1799.24
1899.44
1966.82
2027.4
1508.14
2244.57
2580.4
3537.25
3693.43
399.808
348.192
348.189
348.189
348.189
348.189
348.189
1699.11
1811.67
1898.29
1969.87
1822.96
1548.61
1235.6
1591.63
9484.86
4826.15
4545.69
2069.98
372.322
348.191
348.189
348.189
348.189
348.189
348.189
348.189
1585.13
1652.63
1770.76
1784.4
1636.44
1416.15
1449.16
2281.73
4835.77
1142.43
473.027
350.612
348.19
348.189
348.189
348.189
348.189
348.189
348.189
348.189
1573.76
1539.57
1616.56
1631.16
1504.2
1450.78
1628.24
2595.27
4470.74
457.905
348.206
348.189
348.189
348.189
348.189
348.189
348.189
348.189
348.189
348.189
1660.4
1561.05
1593.54
1588.06
1504.89
1577.2
2004.59
3530.97
2002.78
350.378
348.189
348.189
348.189
348.189
348.189
348.189
348.189
348.189
348.189
348.189
2429.04
1794.94
1691.57
1681.66
1713.59
2095.76
3127.02
3639.45
371.123
348.19
348.189
348.189
348.189
348.189
348.189
348.189
348.189
348.189
348.189
348.189
5550.91
3523.93
2999.51
3022.37
3362.11
4264.2
3984.39
398.259
348.191
348.189
348.189
348.189
348.189
348.189
348.189
348.189
348.189
348.189
348.189
348.189
1526.24
4649.91
5616.83
5044.59
4638.92
2271.48
380.665
348.192
348.189
348.189
348.189
348.189
348.189
348.189
348.189
348.189
348.189
348.189
348.189
348.189
348.759
388.353
520.507
463.408
404.786
350.787
348.19
348.189
348.189
348.189
348.189
348.189
348.189
348.189
348.189
348.189
348.189
348.189
348.189
348.189
348.189
348.19
348.202
348.197
348.191
348.189
348.189
348.189
348.189
348.189
348.189
348.189
348.189
348.189
348.189
348.189
348.189
348.189
348.189
348.189
348.189
348.189
348.189
348.189
348.189
348.189
348.189
348.189
348.189
348.189
348.189
348.189
348.189
348.189
348.189
348.189
348.189
348.189
348.189
348.189
348.189
348.189
348.189
348.189
348.189
348.189
348.189
348.189
348.189
348.189
348.189
348.189
348.189
348.189
348.189
348.189
348.189
348.189
348.189
348.189
348.189
348.189
348.189
348.189
348.189
348.189
348.189
348.189
348.189
348.189
348.189
348.189
348.189
348.189
348.189
348.189
348.189
348.189
348.189
348.189
1660.5
1729.9
1818.26
1867.81
1906.04
1900.43
1849.36
1783.29
1679.8
1572.61
1567.02
1664.48
2493.09
5634.66
1305.4
348.546
348.189
348.189
348.189
348.189
1729.3
1835.78
1919.03
1969.12
1999.64
1993.97
1948.22
1881.64
1785.23
1622.15
1527.6
1555.48
1821.76
3660.96
4263.23
376.058
348.19
348.189
348.189
348.189
1817.9
1918.82
1984.51
2027.32
2042.06
2038.74
2010.19
1956.74
1877.73
1737.07
1591.9
1584.25
1702
3142.18
5312.75
466.661
348.196
348.189
348.189
348.189
1867.35
1968.47
2026.84
2045.76
2064.39
2061.82
2050.37
2015.59
1946.09
1740.5
1583.46
1560.61
1678.63
3186.58
4597.35
419.267
348.193
348.189
348.189
348.189
1906.89
2000.04
2042.13
2063.24
1790.29
1584.51
1461.56
1475.34
1739.38
3554.99
3957.18
377.201
348.19
348.189
348.189
348.189
1901.31
1994.68
2039.22
2061.95
1501.47
1365.48
1419.25
1570.79
2177.39
4453.78
1607.81
349.067
348.189
348.189
348.189
348.189
1849.73
1948.61
2010.47
2050.5
1208.36
1426.67
1629.86
2063.49
3310.36
3080.48
359.529
348.19
348.189
348.189
348.189
348.189
1783.38
1881.78
1956.93
2016
1572.72
2370.83
2716.49
3693.9
2764.37
365.75
348.19
348.189
348.189
348.189
348.189
348.189
1679.65
1785.07
1877.36
1943.67
1793.87
1507.99
1202.66
1488.11
6588.69
4526.94
3895.56
1394.48
355.87
348.19
348.189
348.189
348.189
348.189
348.189
348.189
1572.38
1621.64
1736.72
1740.92
1587.47
1369.06
1427.3
2369.29
4537.83
721.664
398.717
348.893
348.189
348.189
348.189
348.189
348.189
348.189
348.189
348.189
1566.82
1527.32
1591.65
1584.23
1464.42
1422.29
1634.1
2730.44
3875.95
396.489
348.193
348.189
348.189
348.189
348.189
348.189
348.189
348.189
348.189
348.189
1664.41
1555.24
1584.1
1561.4
1478.14
1574.28
2070.07
3708.98
1366.88
348.841
348.189
348.189
348.189
348.189
348.189
348.189
348.189
348.189
348.189
348.189
2494.43
1821.94
1702.12
1679.46
1741.99
2181.65
3321.48
2730.17
355.446
348.189
348.189
348.189
348.189
348.189
348.189
348.189
348.189
348.189
348.189
348.189
5635.59
3663.74
3143.69
3187.19
3557.09
4461.31
3053.04
364.957
348.19
348.189
348.189
348.189
348.189
348.189
348.189
348.189
348.189
348.189
348.189
348.189
1297.77
4249.71
5304.05
4596.69
3953.61
1596.01
359.091
348.19
348.189
348.189
348.189
348.189
348.189
348.189
348.189
348.189
348.189
348.189
348.189
348.189
348.54
375.724
465.629
419.108
376.989
349.042
348.19
348.189
348.189
348.189
348.189
348.189
348.189
348.189
348.189
348.189
348.189
348.189
348.189
348.189
348.189
348.19
348.196
348.192
348.19
348.189
348.189
348.189
348.189
348.189
348.189
348.189
348.189
348.189
348.189
348.189
348.189
348.189
348.189
348.189
348.189
348.189
348.189
348.189
348.189
348.189
348.189
348.189
348.189
348.189
348.189
348.189
348.189
348.189
348.189
348.189
348.189
348.189
348.189
348.189
348.189
348.189
348.189
348.189
348.189
348.189
348.189
348.189
348.189
348.189
348.189
348.189
348.189
348.189
348.189
348.189
348.189
348.189
348.189
348.189
348.189
348.189
348.189
348.189
348.189
348.189
348.189
348.189
348.189
348.189
348.189
348.189
348.189
348.189
348.189
348.189
348.189
348.189
348.189
348.189
1655.86
1720.28
1808.47
1857.48
1895.29
1888.03
1835.02
1765.36
1656.22
1555.79
1555.85
1669.13
2568.84
5701.17
1088.77
348.401
348.189
348.189
348.189
348.189
1719.71
1823.5
1908.63
1960.38
1993.46
1987.78
1938.36
1864.48
1755.32
1579.15
1508.61
1546.1
1861.11
3856.83
3795.79
365.813
348.19
348.189
348.189
348.189
1808.12
1908.43
1978.13
2024.99
2043.42
2042.69
2012.44
1952.03
1863.25
1711.09
1575.17
1577.07
1731.46
3371.33
4906.87
421.35
348.192
348.189
348.189
348.189
1856.99
1959.68
2024.52
2049.28
2069.84
2068.77
2056.96
2018.18
1938.98
1727.63
1575.4
1568.02
1724.48
3451.83
4181.34
390.587
348.191
348.189
348.189
348.189
1896.05
1993.95
2043.81
2068.76
1788.83
1577.82
1465.81
1495.32
1843.16
3893.62
3142.25
359.733
348.19
348.189
348.189
348.189
1888.88
1988.51
2043.29
2069.26
1471.07
1375.77
1446.87
1633.07
2371.22
4795.69
911.791
348.329
348.189
348.189
348.189
348.189
1835.36
1938.7
2012.73
2057.11
1155.53
1529.77
1716.35
2200.76
3660.03
1832.83
349.945
348.189
348.189
348.189
348.189
348.189
1765.48
1864.56
1952.02
2018.47
1792.65
2762.41
3017.16
3854.34
1560.31
350.842
348.189
348.189
348.189
348.189
348.189
348.189
1656.05
1754.84
1862.04
1937.67
1792.88
1471.1
1166.91
2021.78
846.487
3369.74
2592.68
715.382
349.23
348.189
348.189
348.189
348.189
348.189
348.189
348.189
1555.58
1578.69
1708.6
1723.58
1578.36
1378.69
1521.79
2718.37
3599.68
419.831
357.313
348.262
348.189
348.189
348.189
348.189
348.189
348.189
348.189
348.189
1555.71
1508.46
1573.91
1573.49
1466.29
1448.49
1716.16
2994.66
2749.48
359.272
348.19
348.189
348.189
348.189
348.189
348.189
348.189
348.189
348.189
348.189
1669.31
1546.07
1576.53
1567.83
1496.56
1634.3
2204.42
3882.56
744.928
348.274
348.189
348.189
348.189
348.189
348.189
348.189
348.189
348.189
348.189
348.189
2572.78
1863.75
1733.76
1726.98
1843.3
2370.32
3678.87
1612.3
349.334
348.189
348.189
348.189
348.189
348.189
348.189
348.189
348.189
348.189