/*--------------------------------*- C++ -*----------------------------------*\
  =========                 |
  \\      /  F ield         | OpenFOAM: The Open Source CFD Toolbox
   \\    /   O peration     | Website:  https://openfoam.org
    \\  /    A nd           | Version:  9
     \\/     M anipulation  |
\*---------------------------------------------------------------------------*/
FoamFile
{
    format      ascii;
    class       volVectorField;
    location    "0.0005";
    object      U;
}
// * * * * * * * * * * * * * * * * * * * * * * * * * * * * * * * * * * * * * //

dimensions      [0 1 -1 0 0 0 0];

internalField   nonuniform List<vector> 
9720
(
(-2957.09 -2957.04 -17.9061)
(-2151.55 -2838.35 -27.9441)
(-1492.52 -2802.88 -43.3164)
(-870.815 -2764.41 -67.9293)
(-188.457 -2807.22 -88.3145)
(354.012 -2759.24 -113.612)
(1045.62 -2698.51 -109.367)
(1703.41 -2672.83 -110.498)
(2374.3 -2719.02 -102.891)
(3104.06 -2859.43 -86.1098)
(3971.91 -2886.18 -73.3213)
(4429.53 -2662.92 -64.9117)
(4098.45 -2277.05 -59.6605)
(2072.01 -972.95 -29.8711)
(155.114 -52.4454 -1.59727)
(0.118242 -0.022165 -0.000470549)
(3.96945e-07 -6.45823e-08 -9.08488e-10)
(8.88741e-13 -1.12084e-13 -1.72084e-15)
(1.16072e-16 0 0)
(0 0 0)
(-2837.88 -2149.97 -28.8122)
(-2039.96 -2038.78 -46.7797)
(-1387.14 -2092.27 -74.0412)
(-781.11 -2066.91 -119.333)
(-147.956 -2110.82 -151.087)
(359.923 -2041.11 -190.514)
(1006.93 -1959.09 -187.959)
(1629.24 -1883.56 -191.976)
(2301.4 -1839.15 -186.101)
(2996.77 -1821.83 -165.334)
(3868.64 -1833.64 -148.954)
(4764.62 -1784.41 -122.003)
(4825.29 -1695.14 -107.366)
(3434.15 -1222.76 -72.0231)
(766.374 -258.329 -13.9657)
(6.11946 -0.971182 -0.0479308)
(0.000214756 -2.33719e-05 -9.67043e-07)
(4.60651e-10 -3.83043e-11 -1.31048e-12)
(9.47207e-16 0 0)
(0 0 0)
(-2801.97 -1490.4 -44.7761)
(-2092.86 -1385.13 -74.8953)
(-1444.72 -1442.97 -122.283)
(-796.946 -1443.64 -213.188)
(-143.45 -1483.78 -266.87)
(421.613 -1420.42 -325.354)
(1114.53 -1360.9 -335.466)
(1730.42 -1242.24 -345.035)
(2357.49 -1145.43 -316.504)
(3014.36 -885.673 -250.271)
(3773.79 -728.513 -202.032)
(4652.09 -623.872 -167.33)
(4930.86 -551.646 -142.391)
(3864.95 -435.045 -110.091)
(1175.32 -107.259 -30.0579)
(22.5057 -0.862433 -0.282833)
(0.0025134 -4.40196e-05 -1.65086e-05)
(6.50878e-09 -5.84947e-11 -2.56629e-11)
(1.42329e-14 0 0)
(0 0 0)
(-2761.81 -870.817 -69.5589)
(-2065.19 -780.649 -120.791)
(-1443.68 -795.228 -213.785)
(-930.667 -930.704 -358.125)
(-314.557 -981.457 -416.721)
(341.937 -1030.59 -547.255)
(1030.74 -986.781 -592.536)
(1649.07 -843.874 -603.116)
(2151.95 -646.951 -590.51)
(3098.81 -100.505 -589.5)
(3759.68 109.331 -543.188)
(4541.52 230.165 -456.887)
(4749.86 251.7 -379.517)
(3580.19 220.133 -254.584)
(979.681 72.9601 -50.6515)
(14.6705 0.663191 -0.291634)
(0.00123141 3.36496e-05 -1.2341e-05)
(3.30243e-09 5.63358e-11 -1.81847e-11)
(7.91619e-15 0 0)
(0 0 0)
(-2808.5 -188.126 -91.4982)
(-2111.52 -147.09 -154.055)
(-1483.26 -141.966 -270.566)
(-969.577 -316.062 -424.931)
(2673.72 399.013 -722.908)
(3275.37 1185.06 -559.978)
(3916.08 1228.71 -530.751)
(4605.7 1283.62 -442.236)
(4592.38 1253.23 -397.876)
(3127.09 900.172 -244.035)
(650.151 173.231 -38.2764)
(4.54441 0.52191 -0.102768)
(0.000140141 1.03111e-05 -1.88626e-06)
(3.20806e-10 1.61505e-11 -2.65974e-12)
(8.02816e-16 0 0)
(0 0 0)
(-2758.91 353.562 -113.712)
(-2040.97 359.091 -190.989)
(-1419.45 420.616 -326.136)
(-1027.19 339.991 -550.749)
(3364.41 2103.23 -547.472)
(3820.21 2256.89 -492.029)
(3990 2268.92 -488.515)
(4180.81 2105.48 -437.931)
(3918.17 1857.54 -366.817)
(1928.85 950.75 -157.982)
(124.792 52.6901 -7.28292)
(0.0807853 0.0197095 -0.00182398)
(2.71298e-07 6.15585e-08 -3.31431e-09)
(6.41704e-13 1.20878e-13 -5.73615e-15)
(1.15346e-16 0 0)
(0 0 0)
(-2697.84 1046.17 -109.508)
(-1959.06 1007.35 -188.11)
(-1361.36 1115.34 -335.537)
(-986.676 1031.22 -592.729)
(4072.86 2903.85 -487.696)
(3545.58 2991.16 -483.981)
(3486.47 2778.28 -448.651)
(3291.81 2486.61 -367.202)
(2180.88 1608.12 -205.323)
(314.566 237.306 -24.8911)
(0.756281 0.438334 -0.026937)
(7.17224e-06 4.80812e-06 -1.96535e-07)
(1.38816e-11 4.89432e-12 -2.174e-13)
(2.96036e-18 1.15132e-16 0)
(0 0 0)
(0 0 0)
(-2672.76 1703.21 -110.081)
(-1884.98 1628.8 -191.446)
(-1245.1 1730.77 -344.313)
(-845.169 1650.64 -603.383)
(1657.47 3292.97 -524.833)
(2269.47 2579.46 -400.377)
(2056.67 2268.67 -312.114)
(1394.07 1383.65 -159.734)
(250.847 238.806 -22.181)
(0.949663 1.00079 -0.0475229)
(1.99193e-05 1.76369e-05 -7.26365e-07)
(3.94973e-11 2.30743e-11 -8.60872e-13)
(1.86933e-19 2.62036e-18 0)
(0 0 0)
(0 0 0)
(0 0 0)
(-2719.84 2374.32 -102.851)
(-1839.14 2301.44 -186.077)
(-1142.08 2358.58 -315.838)
(-642.177 2157.83 -594.492)
(434.95 2680.04 -641.627)
(2113.49 3355.41 -504)
(2915.07 4068.17 -474.592)
(3353.83 1920.54 -518.617)
(6.68496 -0.404576 -1.31527)
(304.737 659.906 -90.2994)
(304.635 459.379 -53.7285)
(58.5792 76.0736 -6.56709)
(0.310092 0.470593 -0.0196498)
(1.25103e-05 1.51782e-05 -5.64608e-07)
(3.93417e-11 4.42826e-11 -1.47281e-12)
(-1.35676e-15 4.14603e-19 0)
(0 0 0)
(0 0 0)
(0 0 0)
(0 0 0)
(-2859.26 3104.53 -86.4701)
(-1819.24 2997.36 -165.604)
(-880.428 3014.71 -250.038)
(-83.5096 3093.98 -589.69)
(1192.32 3272.95 -556.012)
(2256.92 3812.32 -487.653)
(3040.22 3544.71 -469.829)
(2694.81 2372.6 -406.463)
(761.006 366.446 -108.976)
(14.4433 11.8181 -1.69369)
(0.667128 3.25095 -0.155846)
(0.0133068 0.0432703 -0.00141803)
(2.23063e-06 3.50073e-06 -9.22355e-08)
(1.49727e-11 3.06006e-11 -5.49535e-13)
(-1.31111e-14 -1.37473e-15 1.26196e-15)
(-3.42449e-18 0 0)
(0 0 0)
(0 0 0)
(0 0 0)
(0 0 0)
(-2884.4 3972.17 -74.2225)
(-1829.92 3869.61 -150.053)
(-724.214 3774.26 -202.717)
(119.125 3757.53 -543.274)
(1234.15 3913.11 -528.862)
(2275.54 3986.16 -486.894)
(2812.54 3493.79 -449.062)
(2338.91 2128.59 -323.735)
(507.955 344.188 -62.2059)
(3.99825 0.871526 -0.232571)
(0.00019757 0.000155754 -1.31062e-05)
(2.56037e-08 1.46509e-07 -3.14448e-09)
(-1.07932e-11 5.83162e-12 1.98174e-13)
(-3.58913e-13 -1.16805e-14 1.37221e-14)
(-3.56785e-16 1.30501e-15 0)
(0 0 0)
(0 0 0)
(0 0 0)
(0 0 0)
(0 0 0)
(-2660.7 4428.73 -66.3025)
(-1779.89 4764.13 -124.131)
(-620.784 4652.36 -169.883)
(235.294 4543.07 -459.557)
(1285.6 4603.33 -446.79)
(2122.48 4179.17 -442.918)
(2503.02 3305.09 -372.412)
(1404.63 1423.82 -165.391)
(80.7018 62.8174 -7.28659)
(0.0484412 0.0159658 -0.00183623)
(1.69585e-07 2.65726e-08 -7.74657e-09)
(-3.53113e-11 -2.56503e-11 1.02735e-12)
(-1.57263e-12 -7.70676e-13 4.15316e-14)
(-3.36142e-15 -3.24072e-15 0)
(0 0 0)
(0 0 0)
(0 0 0)
(0 0 0)
(0 0 0)
(0 0 0)
(-2274.06 4095.76 -61.0735)
(-1691.75 4822.81 -109.86)
(-548.917 4927.62 -145.717)
(254.245 4748.95 -383.502)
(1254.85 4589.95 -403.989)
(1874.29 3916.59 -374.788)
(1613.4 2184.63 -210.154)
(241.082 252.84 -23.0217)
(0.481056 0.313879 -0.0209529)
(3.40477e-06 2.09893e-06 -1.20612e-07)
(-8.0004e-12 -2.29416e-11 3.71968e-13)
(-1.57479e-12 -1.70917e-12 4.66087e-14)
(-3.92915e-15 -3.35664e-15 0)
(0 0 0)
(0 0 0)
(0 0 0)
(0 0 0)
(0 0 0)
(0 0 0)
(0 0 0)
(-969.052 2065.68 -30.4493)
(-1217.91 3424.46 -73.6344)
(-432.149 3854.94 -112.771)
(221.669 3575.23 -258.022)
(901.064 3123.65 -249.67)
(954.59 1923.64 -162.636)
(236.422 314.085 -25.5802)
(0.999759 0.947091 -0.0491611)
(1.48042e-05 1.17474e-05 -5.56999e-07)
(2.34257e-11 2.15142e-12 -3.83425e-13)
(-5.91455e-13 -1.0998e-12 2.91396e-14)
(-5.13581e-15 -1.6178e-14 0)
(0 0 0)
(0 0 0)
(0 0 0)
(0 0 0)
(0 0 0)
(0 0 0)
(0 0 0)
(0 0 0)
(-51.7312 153.376 -1.60363)
(-255.4 759.44 -14.1583)
(-105.872 1165.97 -30.6638)
(72.6343 974.724 -51.5078)
(172.567 646.467 -39.4278)
(52.0864 122.849 -7.47364)
(0.426509 0.746471 -0.0275448)
(1.71613e-05 1.91123e-05 -7.16904e-07)
(4.07373e-11 3.1467e-11 -1.39316e-12)
(-1.88666e-13 -5.51571e-13 1.04397e-14)
(-6.09158e-15 4.41819e-15 3.44167e-16)
(0 1.59628e-15 0)
(0 0 0)
(0 0 0)
(0 0 0)
(0 0 0)
(0 0 0)
(0 0 0)
(0 0 0)
(0 0 0)
(-0.0216217 0.115538 -0.000465009)
(-0.943064 5.97946 -0.0476176)
(-0.835026 21.9539 -0.282802)
(0.646784 14.4021 -0.294345)
(0.512164 4.46298 -0.105684)
(0.0191196 0.0777954 -0.00185596)
(4.50904e-06 6.80191e-06 -2.18457e-07)
(2.19316e-11 3.727e-11 -1.19537e-12)
(9.55244e-15 -1.2379e-13 1.26194e-15)
(-6.8915e-16 -2.45205e-15 0)
(0 0 0)
(0 0 0)
(0 0 0)
(0 0 0)
(0 0 0)
(0 0 0)
(0 0 0)
(0 0 0)
(0 0 0)
(0 0 0)
(-6.24687e-08 3.86392e-07 -8.88856e-10)
(-2.23056e-05 0.000206133 -9.42682e-07)
(-4.17972e-05 0.00239673 -1.61504e-05)
(3.2193e-05 0.00118655 -1.22966e-05)
(9.93966e-06 0.000135063 -1.92565e-06)
(5.90283e-08 2.5902e-07 -3.38767e-09)
(4.53306e-12 1.29831e-11 -2.39197e-13)
(2.63103e-18 1.93142e-19 0)
(0 -6.90536e-16 0)
(0 0 0)
(0 0 0)
(0 0 0)
(0 0 0)
(0 0 0)
(0 0 0)
(0 0 0)
(0 0 0)
(0 0 0)
(0 0 0)
(0 0 0)
(-1.08528e-13 8.65589e-13 -1.83557e-15)
(-3.64511e-11 4.41371e-10 -1.2709e-12)
(-5.54413e-11 6.18848e-09 -2.4994e-11)
(5.36697e-11 3.16824e-09 -1.8137e-11)
(1.54832e-11 3.07296e-10 -2.73006e-12)
(1.14833e-13 6.07179e-13 -6.42448e-15)
(1.15747e-16 2.95934e-18 0)
(0 0 0)
(0 0 0)
(0 0 0)
(0 0 0)
(0 0 0)
(0 0 0)
(0 0 0)
(0 0 0)
(0 0 0)
(0 0 0)
(0 0 0)
(0 0 0)
(0 0 0)
(0 1.14928e-16 0)
(0 9.19792e-16 0)
(0 1.34339e-14 0)
(0 7.35313e-15 0)
(0 8.07746e-16 0)
(0 1.15951e-16 0)
(0 0 0)
(0 0 0)
(0 0 0)
(0 0 0)
(0 0 0)
(0 0 0)
(0 0 0)
(0 0 0)
(0 0 0)
(0 0 0)
(0 0 0)
(0 0 0)
(0 0 0)
(0 0 0)
(0 0 0)
(0 0 0)
(0 0 0)
(0 0 0)
(0 0 0)
(0 0 0)
(0 0 0)
(0 0 0)
(0 0 0)
(0 0 0)
(0 0 0)
(0 0 0)
(0 0 0)
(0 0 0)
(0 0 0)
(0 0 0)
(0 0 0)
(0 0 0)
(0 0 0)
(0 0 0)
(-2966.61 -2966.65 -32.4527)
(-2174.72 -2855.23 -51.8586)
(-1516.59 -2828.95 -76.2216)
(-891.361 -2798.23 -106.266)
(-203.124 -2844.82 -131.927)
(338.017 -2807.38 -166.728)
(1042.27 -2748.31 -161.514)
(1709.16 -2723.14 -159.432)
(2392.26 -2762.49 -144.37)
(3121.01 -2897.99 -116.596)
(3981.36 -2933.98 -102.098)
(4470.56 -2720.27 -97.2413)
(4187.84 -2358.11 -97.8336)
(2205.91 -1062.09 -68.5632)
(191.727 -68.165 -6.05447)
(0.187227 -0.0350796 -0.002554)
(6.80844e-07 -1.20849e-07 -5.96085e-09)
(1.48167e-12 -2.09255e-13 -9.63673e-15)
(1.16154e-16 0 0)
(0 0 0)
(-2854.39 -2172.77 -52.5308)
(-2073.43 -2072.31 -82.1068)
(-1421.68 -2136.99 -118.118)
(-809.975 -2122.76 -164.484)
(-172.397 -2159.38 -194.715)
(338.823 -2104.11 -241.844)
(994.205 -2038.06 -243.197)
(1626.69 -1982.1 -245.448)
(2314.34 -1942.44 -230.624)
(3020.15 -1913.84 -199.245)
(3874.11 -1903.85 -175.798)
(4782.63 -1858.84 -155.411)
(4895.54 -1758.8 -143.142)
(3623.97 -1317.22 -120.714)
(891.211 -313.741 -36.9501)
(9.03959 -1.59072 -0.214303)
(0.000434146 -5.10719e-05 -6.12645e-06)
(9.62866e-10 -8.70352e-11 -9.05554e-12)
(1.89454e-15 0 0)
(0 0 0)
(-2827.42 -1514.05 -77.1449)
(-2136.79 -1419.76 -118.322)
(-1488.21 -1487.53 -165.735)
(-838.583 -1502.36 -232.039)
(-186.36 -1535.35 -268.534)
(393.297 -1490.23 -315.657)
(1081.91 -1452.5 -332.586)
(1711.3 -1366.93 -343.258)
(2368.73 -1283.42 -309.545)
(3037.52 -1012.76 -250.679)
(3784.19 -827.344 -204.728)
(4658.54 -697.75 -185.487)
(5009.01 -607.959 -170.841)
(4073.94 -492.467 -151.708)
(1343.34 -135.81 -64.934)
(33.751 -1.51096 -1.13349)
(0.00550017 -0.00010589 -0.000101739)
(1.48746e-08 -1.4537e-10 -1.7588e-10)
(3.23755e-14 -1.14802e-16 -1.14723e-16)
(0 0 0)
(-2794.54 -891.774 -107.532)
(-2119.92 -810.016 -164.965)
(-1503.21 -836.74 -232.677)
(-999.826 -997.256 -324.269)
(-386.425 -1034.94 -350.531)
(280.828 -1091.57 -433.877)
(955.926 -1073.43 -469.674)
(1582.18 -970.636 -481.407)
(2136.95 -814.158 -429.079)
(3156.44 -199.302 -327.917)
(3779.01 36.1631 -272.076)
(4548.09 177.381 -250.253)
(4826.15 208.36 -226.816)
(3790.3 179.183 -190.746)
(1135.77 66.9938 -69.2001)
(22.9035 0.902114 -0.878283)
(0.00286699 6.63597e-05 -6.57177e-05)
(8.05343e-09 1.16248e-10 -1.2145e-10)
(1.8935e-14 0 -1.14723e-16)
(0 0 0)
(-2847.14 -202.911 -133.661)
(-2162.05 -171.132 -195.555)
(-1539.68 -182.687 -268.451)
(-1046.82 -377.32 -349.111)
(2744.24 245.147 -489.515)
(3365.3 1094.96 -287.864)
(3943.16 1130.79 -239.905)
(4673.79 1206.17 -226.266)
(4741.73 1194.64 -224.804)
(3480.14 918.948 -213.449)
(883.685 216.023 -70.2869)
(10.1465 1.12839 -0.481637)
(0.000596398 3.731e-05 -1.78487e-05)
(1.47616e-09 5.80419e-11 -2.95846e-11)
(3.21626e-15 0 0)
(0 0 0)
(-2806.5 336.968 -166.441)
(-2103.11 337.378 -241.632)
(-1489.27 392.216 -315.541)
(-1092.07 281.646 -433.397)
(3570.19 1919.9 -384.994)
(3960.76 2197.4 -225.263)
(4134.62 2251.38 -214.481)
(4354.5 2157.75 -241.674)
(4196.78 1955.91 -271.638)
(2412.81 1146.47 -210.102)
(257.504 111.967 -25.9224)
(0.421206 0.088979 -0.0183303)
(2.15791e-06 5.3498e-07 -6.73903e-08)
(4.8216e-12 1.03979e-12 -1.03365e-13)
(1.15057e-16 0 0)
(0 0 0)
(-2747.68 1042.59 -161.882)
(-2038.13 994.164 -243.469)
(-1453.07 1082.43 -332.501)
(-1073.36 957.136 -469.35)
(4401.25 2821.69 -348.829)
(3796.03 3215.87 -250.922)
(3726.11 2960.74 -283.987)
(3583.18 2630.57 -309.058)
(2707.47 1920.35 -267.933)
(606.075 443.48 -73.5675)
(3.84431 2.27647 -0.274024)
(0.000113039 7.02806e-05 -4.9616e-06)
(2.05629e-10 6.94433e-11 -5.61225e-12)
(5.73761e-16 1.15286e-16 0)
(0 0 0)
(0 0 0)
(-2722.83 1709.12 -158.527)
(-1982.53 1626.33 -243.99)
(-1367.86 1711.48 -341.798)
(-971.238 1583.42 -481.661)
(3387.41 3415.98 -375.216)
(2881.46 3106.99 -333.541)
(2592.59 2717.08 -331.493)
(1863.89 1804.08 -245.104)
(504.155 466.496 -69.4542)
(5.15142 5.24315 -0.487239)
(0.000336125 0.000291427 -1.961e-05)
(7.02772e-10 3.85158e-10 -2.42515e-11)
(1.03707e-15 6.89491e-16 0)
(0 0 0)
(0 0 0)
(0 0 0)
(-2763.11 2392.19 -144.151)
(-1942.26 2314.27 -230.729)
(-1280.79 2369.96 -312.442)
(-802.832 2146.81 -428.236)
(295.555 2766.47 -442.449)
(1940.77 3540.95 -397.975)
(2823.8 4323.16 -363.925)
(3457.91 3553.51 -347.865)
(444.868 371.373 -126.844)
(652.812 1217 -189.244)
(605.945 845.884 -133.769)
(164.734 195.95 -29.4824)
(1.84464 2.66098 -0.216447)
(0.00020376 0.000265273 -1.47744e-05)
(7.0287e-10 8.04886e-10 -3.33737e-11)
(-1.70037e-15 1.50152e-15 0)
(0 0 0)
(0 0 0)
(0 0 0)
(0 0 0)
(-2898.07 3121.1 -117.496)
(-1912.55 3020.36 -201.935)
(-1009.24 3038.32 -257.592)
(-187.105 3156.22 -343.073)
(1100.38 3363.87 -314.804)
(2199.03 3946.97 -243.223)
(3243.9 3795.49 -247.094)
(3152.7 2915.41 -289.196)
(1260.95 686.334 -140.043)
(57.8572 54.2188 -9.50652)
(4.17463 14.4375 -1.47974)
(0.099319 0.340266 -0.0210266)
(3.64802e-05 6.17726e-05 -3.56966e-06)
(2.58076e-10 5.47708e-10 -2.02885e-11)
(-3.99703e-14 -1.90997e-15 3.53715e-16)
(-8.02081e-16 0 0)
(0 0 0)
(0 0 0)
(0 0 0)
(0 0 0)
(-2933.14 3981.34 -104.29)
(-1901.95 3874.48 -180.598)
(-824.683 3784.62 -213.053)
(42.148 3778.82 -285.477)
(1135.49 3939.47 -263.652)
(2256.57 4127.01 -232.687)
(2982.84 3721.08 -276.923)
(2742.88 2613.13 -290.227)
(866.617 625.464 -107.158)
(15.3641 4.53148 -1.113)
(0.00222983 0.00204321 -0.000173379)
(3.40145e-07 1.82044e-06 -8.60198e-08)
(1.79232e-11 1.12658e-10 -3.2647e-12)
(-5.47308e-13 -4.38754e-14 4.69372e-16)
(-4.94832e-15 8.29733e-16 -1.4498e-15)
(0 0 0)
(0 0 0)
(0 0 0)
(0 0 0)
(0 0 0)
(-2719.28 4469.88 -100.693)
(-1857.15 4782.38 -162.235)
(-696.244 4658.6 -195.368)
(178.653 4549.07 -263.954)
(1206.69 4670.55 -243.465)
(2167.5 4350.62 -256.579)
(2641.51 3582.96 -305.128)
(1809.13 1872.78 -225.357)
(198.018 167.131 -25.8694)
(0.347633 0.103143 -0.0172813)
(1.88807e-06 3.21104e-07 -4.69301e-08)
(-3.76282e-11 -2.72639e-11 5.64101e-13)
(-2.49249e-12 -1.21543e-12 4.4629e-14)
(-9.63878e-15 -8.37781e-15 0)
(0 0 0)
(0 0 0)
(0 0 0)
(0 0 0)
(0 0 0)
(0 0 0)
(-2356.77 4186.11 -101.862)
(-1757.8 4894.02 -150.337)
(-607.579 5007.52 -180.998)
(207.393 4827.71 -239.443)
(1194.56 4742.22 -238.707)
(1967.21 4195.73 -283.429)
(1927 2706.7 -265.121)
(467.591 504.4 -65.8024)
(2.67151 1.83464 -0.197054)
(6.05534e-05 3.46451e-05 -2.56053e-06)
(9.20334e-11 -5.10757e-13 -1.63332e-12)
(-2.33167e-12 -2.66924e-12 6.01169e-14)
(-2.82598e-14 -2.64204e-14 3.44176e-16)
(0 0 0)
(0 0 0)
(0 0 0)
(0 0 0)
(0 0 0)
(0 0 0)
(0 0 0)
(-1060.23 2202.56 -71.3883)
(-1315.86 3619.81 -126.826)
(-492.426 4071.6 -160.716)
(178.154 3794.06 -201.572)
(920.642 3488.31 -223.252)
(1155.08 2418.33 -216.36)
(445.908 607.122 -72.572)
(5.26544 5.15224 -0.464437)
(0.000263896 0.000198877 -1.43797e-05)
(5.06525e-10 2.11761e-10 -1.73406e-11)
(-7.77863e-13 -1.53959e-12 2.01256e-14)
(-2.31009e-14 -1.68949e-14 8.78496e-15)
(0 0 0)
(0 0 0)
(0 0 0)
(0 0 0)
(0 0 0)
(0 0 0)
(0 0 0)
(0 0 0)
(-67.7407 190.734 -6.24892)
(-312.71 888.318 -38.6135)
(-135.846 1341.01 -68.4331)
(66.1496 1138.66 -72.9133)
(217.538 889.323 -72.6606)
(113.628 259.592 -26.4572)
(2.30853 3.86926 -0.269318)
(0.000293303 0.000334304 -1.86177e-05)
(7.72333e-10 6.55378e-10 -2.87205e-11)
(-2.25274e-13 -6.84744e-13 8.71886e-15)
(-1.20506e-14 -1.72128e-14 0)
(0 6.43636e-51 0)
(0 0 0)
(0 0 0)
(0 0 0)
(0 0 0)
(0 0 0)
(0 0 0)
(0 0 0)
(0 0 0)
(-0.0346436 0.185112 -0.00261614)
(-1.57612 8.96139 -0.221853)
(-1.50702 33.5474 -1.1845)
(0.888967 23.0364 -0.92519)
(1.14963 10.3162 -0.497961)
(0.0915635 0.429622 -0.0186674)
(7.19623e-05 0.000114523 -4.86719e-06)
(3.87678e-10 6.91274e-10 -2.24715e-11)
(3.8723e-15 -1.66627e-13 1.07435e-14)
(-1.60667e-15 -1.4e-14 0)
(0 0 0)
(0 0 0)
(0 0 0)
(0 0 0)
(0 0 0)
(0 0 0)
(0 0 0)
(0 0 0)
(0 0 0)
(0 0 0)
(-1.18605e-07 6.71211e-07 -6.08074e-09)
(-5.03249e-05 0.000427401 -6.30208e-06)
(-0.000105155 0.00543425 -0.000105667)
(6.53643e-05 0.00289632 -6.9442e-05)
(3.84111e-05 0.000614487 -1.85455e-05)
(5.60003e-07 2.22321e-06 -6.89971e-08)
(7.11449e-11 2.0836e-10 -5.4685e-12)
(6.89338e-16 1.03618e-15 0)
(0 -1.38436e-15 0)
(0 0 0)
(0 0 0)
(0 0 0)
(0 0 0)
(0 0 0)
(0 0 0)
(0 0 0)
(0 0 0)
(0 0 0)
(0 0 0)
(0 0 0)
(-2.05354e-13 1.46105e-12 -9.29256e-15)
(-8.57499e-11 9.4725e-10 -9.31653e-12)
(-1.44425e-10 1.46807e-08 -1.82588e-10)
(1.14063e-10 8.13416e-09 -1.28544e-10)
(5.97508e-11 1.52173e-09 -3.06666e-11)
(1.09404e-12 4.97405e-12 -1.06004e-13)
(1.14625e-16 5.73822e-16 0)
(0 0 0)
(0 0 0)
(0 0 0)
(0 0 0)
(0 0 0)
(0 0 0)
(0 0 0)
(0 0 0)
(0 0 0)
(0 0 0)
(0 0 0)
(0 0 0)
(0 0 0)
(0 1.14311e-16 0)
(0 2.06491e-15 0)
(-1.148e-16 3.19263e-14 -1.14723e-16)
(0 1.9411e-14 -1.14723e-16)
(0 3.44534e-15 0)
(0 1.14511e-16 0)
(0 0 0)
(0 0 0)
(0 0 0)
(0 0 0)
(0 0 0)
(0 0 0)
(0 0 0)
(0 0 0)
(0 0 0)
(0 0 0)
(0 0 0)
(0 0 0)
(0 0 0)
(0 0 0)
(0 0 0)
(0 0 0)
(0 0 0)
(0 0 0)
(0 0 0)
(0 0 0)
(0 0 0)
(0 0 0)
(0 0 0)
(0 0 0)
(0 0 0)
(0 0 0)
(0 0 0)
(0 0 0)
(0 0 0)
(0 0 0)
(0 0 0)
(0 0 0)
(0 0 0)
(0 0 0)
(-2976.05 -2976.41 -16.7242)
(-2200.85 -2872.59 -26.8265)
(-1545.71 -2858.1 -44.5048)
(-915.918 -2839.14 -66.1622)
(-220.32 -2896.61 -88.2657)
(322.317 -2872.12 -109.471)
(1042.89 -2809 -99.8983)
(1721.86 -2775 -85.5539)
(2415.73 -2795.92 -65.9498)
(3140.01 -2920.76 -48.5941)
(3991.11 -2965.85 -40.4722)
(4505.69 -2760.68 -38.0821)
(4264.87 -2417.18 -38.8021)
(2331.81 -1140.46 -27.7791)
(229.388 -84.0566 -2.8526)
(0.280116 -0.051235 -0.00146812)
(1.10998e-06 -2.04031e-07 -3.75589e-09)
(2.32271e-12 -3.44742e-13 -4.58892e-15)
(1.15241e-16 0 0)
(0 0 0)
(-2871.78 -2199.54 -27.5449)
(-2112.72 -2111.73 -43.3559)
(-1464.68 -2192.02 -69.7949)
(-842.911 -2196.57 -102.48)
(-198.214 -2234.47 -130.894)
(322.045 -2194.67 -155.452)
(989.226 -2140.3 -144.193)
(1637.17 -2093.23 -124.517)
(2340.7 -2041.97 -95.3214)
(3051.12 -1983.66 -72.1888)
(3885.91 -1952.65 -61.0569)
(4796.76 -1910.81 -54.5185)
(4950.94 -1808.49 -50.7795)
(3771.12 -1392.14 -44.2914)
(1000.21 -362.125 -14.6499)
(12.2289 -2.31714 -0.107463)
(0.00074655 -9.20101e-05 -3.69728e-06)
(1.68648e-09 -1.58987e-10 -5.38406e-12)
(3.21673e-15 -1.14723e-16 0)
(0 0 0)
(-2857.07 -1544.01 -45.9275)
(-2192.48 -1463.13 -70.4158)
(-1546.04 -1544.7 -107.857)
(-881.414 -1584.92 -150.789)
(-220.488 -1622.78 -182.231)
(379.551 -1593.92 -205.014)
(1069.75 -1567.89 -206.245)
(1718.49 -1499.6 -188.446)
(2408.74 -1405.25 -134.119)
(3082.46 -1093.11 -88.1791)
(3811.99 -883.074 -65.8939)
(4667.15 -743.23 -61.6776)
(5063.46 -651.214 -57.9444)
(4235.12 -541.251 -52.3322)
(1487.73 -163.748 -23.9652)
(45.8198 -2.34876 -0.540245)
(0.00988884 -0.000207834 -6.09962e-05)
(2.73839e-08 -2.89608e-10 -1.04441e-10)
(5.99925e-14 -2.29446e-16 0)
(0 0 0)
(-2837.03 -917.424 -69.841)
(-2196.08 -844.368 -106.061)
(-1587.96 -881.485 -154.115)
(-1090.25 -1084.7 -215.917)
(-444.22 -1120.67 -241.889)
(246.602 -1200.78 -289.681)
(932.385 -1187.95 -307.884)
(1576.01 -1088.45 -308.713)
(2194.33 -905.604 -245.966)
(3255.78 -252.003 -82.7231)
(3845.06 -24.6885 -54.1404)
(4570.99 119.317 -54.374)
(4900.95 171.54 -59.6849)
(4001.87 151.009 -57.2873)
(1306.16 60.6859 -25.2485)
(33.9812 1.1169 -0.456887)
(0.00600286 0.000109545 -4.52325e-05)
(1.72775e-08 1.9212e-10 -8.277e-11)
(4.08018e-14 1.14723e-16 0)
(0 0 0)
(-2899.14 -220.178 -89.3208)
(-2236.95 -197.139 -130.75)
(-1625.91 -217.513 -180.389)
(-1136.17 -434.985 -239.921)
(2857.94 168.683 -258.933)
(3436.73 1109.91 -43.8909)
(3975.18 1145 -28.4312)
(4698.87 1204.03 -41.6721)
(4844.79 1187.05 -51.662)
(3760.88 954.498 -54.7901)
(1097.43 262.746 -22.9496)
(18.0845 2.09291 -0.256129)
(0.0016782 0.000100362 -1.3876e-05)
(4.26172e-09 1.54973e-10 -2.29015e-11)
(9.29095e-15 1.14723e-16 0)
(0 0 0)
(-2870.83 321.308 -109.227)
(-2193.03 320.776 -154.84)
(-1592.44 378.964 -204.148)
(-1201.52 247.382 -288.631)
(3606.44 1892.15 -82.6085)
(3978.13 2212.4 -31.1829)
(4162.08 2262.6 -30.4145)
(4432.59 2187.29 -46.6633)
(4356.34 2026.23 -58.0675)
(2773.78 1309.11 -53.9289)
(398.234 178.8 -10.0835)
(1.12397 0.240092 -0.0134448)
(9.96912e-06 2.27456e-06 -7.98348e-08)
(1.93165e-11 4.13965e-12 -1.03824e-13)
(2.2832e-16 0 0)
(0 0 0)
(-2808.87 1043.5 -100.459)
(-2140.76 989.442 -144.546)
(-1568.5 1070.57 -206.415)
(-1187.64 933.834 -307.167)
(4356.85 2865.51 -28.058)
(3850.21 3280.48 -35.8707)
(3791.4 3079.86 -53.6651)
(3734.96 2758.34 -66.055)
(3049.74 2146.68 -63.3467)
(872.994 634.39 -24.1136)
(9.82921 5.98714 -0.188849)
(0.000584357 0.000346348 -6.1188e-06)
(1.11265e-09 3.65131e-10 -6.86055e-12)
(1.83647e-15 5.728e-16 0)
(0 0 0)
(0 0 0)
(-2774.38 1722.56 -85.2029)
(-2091.16 1637.67 -123.682)
(-1495.99 1718.89 -187.402)
(-1088.38 1577.59 -309.161)
(3580.57 3439.97 -71.413)
(3081.01 3373.1 -71.7549)
(2850.05 2981.49 -70.4757)
(2215.13 2113.73 -58.753)
(749.109 679.289 -22.6829)
(13.6832 13.5372 -0.324165)
(0.00173864 0.00150567 -2.33118e-05)
(3.85879e-09 2.05938e-09 -2.88758e-11)
(6.655e-15 2.52467e-15 0)
(0 0 0)
(0 0 0)
(0 0 0)
(-2793.95 2416.06 -66.2835)
(-2042.82 2340.48 -96.045)
(-1413.92 2406.72 -137.461)
(-907.705 2191.72 -256.445)
(171.831 2855.18 -286.358)
(1896.82 3611.93 -105.797)
(2867.48 4368.52 -35.209)
(3462.59 3594.21 -121.156)
(976.63 1339.26 -144.1)
(922.706 1591.7 -48.7437)
(847.754 1141.82 -35.1211)
(289.062 327.911 -10.7869)
(5.28786 7.20828 -0.148053)
(0.0010858 0.00142781 -1.94775e-05)
(3.89482e-09 4.45247e-09 -4.17514e-11)
(-6.77007e-15 7.91665e-15 0)
(0 0 0)
(0 0 0)
(0 0 0)
(0 0 0)
(-2919.99 3139.66 -49.9046)
(-1987.72 3050.56 -74.4703)
(-1104.06 3081.87 -93.283)
(-283.189 3262.18 -104.818)
(1093.68 3438.52 -80.6079)
(2210.77 3997.27 -48.3208)
(3241.38 3836.83 -37.0919)
(3246.83 2984.26 -42.4975)
(1409.89 792.968 -27.3371)
(88.377 106.316 -3.98694)
(11.3069 32.2586 -0.748284)
(0.340165 1.05064 -0.0149371)
(0.000195403 0.000350115 -3.54593e-06)
(1.43356e-09 3.09651e-09 -2.06626e-11)
(-6.5692e-14 -1.07849e-14 0)
(-9.18476e-16 0 0)
(0 0 0)
(0 0 0)
(0 0 0)
(0 0 0)
(-2966.96 3990.79 -42.9936)
(-1957.44 3885.02 -64.5821)
(-891.857 3812.16 -71.4247)
(-43.4901 3853.44 -70.2936)
(1131.51 3982.29 -60.0906)
(2256.89 4169.16 -51.2395)
(3031.32 3785.34 -59.8311)
(2893.36 2776.26 -61.7406)
(1030.05 757.13 -29.0596)
(24.4411 8.08778 -0.521276)
(0.00572716 0.008334 -0.00012939)
(1.99173e-06 1.06214e-05 -8.05188e-08)
(1.71012e-10 6.77442e-10 -4.30807e-12)
(-4.82986e-13 -7.5029e-14 1.36003e-14)
(-9.29032e-15 -4.58896e-16 0)
(0 0 0)
(0 0 0)
(0 0 0)
(0 0 0)
(0 0 0)
(-2762.48 4506.18 -42.1532)
(-1915.94 4796.79 -60.0213)
(-750.345 4667.3 -68.5707)
(108.622 4575.93 -67.6919)
(1197.28 4709.37 -64.5257)
(2169.78 4435.86 -65.3274)
(2726.81 3720.8 -77.3032)
(2059.38 2146.59 -62.2145)
(298.955 258.56 -10.718)
(0.857837 0.245257 -0.0132364)
(7.75561e-06 1.25611e-06 -7.40267e-08)
(-1.42061e-11 -2.75176e-12 -3.69683e-13)
(-2.10551e-12 -1.01638e-12 -2.0651e-15)
(-1.10113e-14 -9.97998e-15 0)
(0 0 0)
(0 0 0)
(0 0 0)
(0 0 0)
(0 0 0)
(0 0 0)
(-2419.11 4266.06 -43.6431)
(-1812.72 4952.73 -57.1261)
(-654.781 5066.12 -65.7077)
(165.915 4907.23 -71.8195)
(1183.27 4854.9 -70.8702)
(2004.91 4359.85 -75.6811)
(2126.69 3031.81 -74.8138)
(660.292 726.206 -25.3519)
(6.6263 4.797 -0.15608)
(0.000301378 0.000164054 -3.83856e-06)
(5.5964e-10 1.19934e-10 -4.18277e-12)
(-1.88668e-12 -2.24662e-12 2.5293e-15)
(-4.83013e-14 -4.13053e-14 0)
(0 0 0)
(0 0 0)
(0 0 0)
(0 0 0)
(0 0 0)
(0 0 0)
(0 0 0)
(-1142.88 2334.88 -31.8351)
(-1396 3775.83 -50.5952)
(-545.27 4242.34 -59.9426)
(147.096 4012.13 -67.8736)
(952.831 3770.33 -70.0343)
(1298.34 2775.52 -65.6352)
(627.223 864.29 -27.9755)
(13.0334 13.1058 -0.362041)
(0.00132296 0.000997986 -2.0592e-05)
(2.72682e-09 1.15975e-09 -2.15167e-11)
(-5.9544e-13 -1.17174e-12 3.32703e-15)
(-2.58172e-14 -1.93901e-14 0)
(0 0 0)
(0 0 0)
(0 0 0)
(0 0 0)
(0 0 0)
(0 0 0)
(0 0 0)
(0 0 0)
(-84.6139 230.694 -3.30779)
(-364.146 1004.08 -16.9622)
(-165.768 1493.61 -27.6929)
(59.7218 1313.9 -29.386)
(263.654 1103.27 -27.2118)
(178.454 399.821 -11.7546)
(5.93218 9.64748 -0.215281)
(0.00144399 0.00165023 -2.68009e-05)
(4.10895e-09 3.49806e-09 -4.76621e-11)
(-1.73151e-13 -4.89109e-13 -1.14723e-16)
(-1.61751e-14 -2.47829e-14 0)
(0 1.50514e-45 0)
(0 0 0)
(0 0 0)
(0 0 0)
(0 0 0)
(0 0 0)
(0 0 0)
(0 0 0)
(0 0 0)
(-0.0518753 0.283806 -0.00172386)
(-2.35392 12.3727 -0.126118)
(-2.40902 46.468 -0.632331)
(1.12345 34.7222 -0.534524)
(2.13573 18.3888 -0.296829)
(0.242736 1.13683 -0.0155666)
(0.000347527 0.000574292 -7.02695e-06)
(2.00716e-09 3.64613e-09 -3.31228e-11)
(9.0425e-15 -1.16886e-13 0)
(-2.06481e-15 -1.59483e-14 0)
(0 0 0)
(0 0 0)
(0 0 0)
(0 0 0)
(0 0 0)
(0 0 0)
(0 0 0)
(0 0 0)
(0 0 0)
(0 0 0)
(-2.07634e-07 1.12819e-06 -4.45945e-09)
(-9.45489e-05 0.000763308 -4.39752e-06)
(-0.000216052 0.0101819 -7.23957e-05)
(0.000112241 0.00627541 -5.38062e-05)
(0.00010442 0.00173485 -1.62068e-05)
(2.3333e-06 1.02167e-05 -9.36334e-08)
(3.69771e-10 1.10277e-09 -7.96452e-12)
(2.63884e-15 6.42565e-15 0)
(0 -2.74221e-15 0)
(0 0 0)
(0 0 0)
(0 0 0)
(0 0 0)
(0 0 0)
(0 0 0)
(0 0 0)
(0 0 0)
(0 0 0)
(0 0 0)
(0 0 0)
(-3.51052e-13 2.35817e-12 -6.30976e-15)
(-1.63849e-10 1.7275e-09 -6.42988e-12)
(-3.01928e-10 2.82523e-08 -1.24409e-10)
(1.9672e-10 1.81442e-08 -9.85187e-11)
(1.62815e-10 4.42519e-09 -2.67239e-11)
(4.2674e-12 1.98748e-11 -1.20574e-13)
(5.7461e-16 1.95025e-15 0)
(0 0 0)
(0 0 0)
(0 0 0)
(0 0 0)
(0 0 0)
(0 0 0)
(0 0 0)
(0 0 0)
(0 0 0)
(0 0 0)
(0 0 0)
(0 0 0)
(0 0 0)
(0 1.14309e-16 0)
(-1.14723e-16 3.21336e-15 0)
(-2.29446e-16 6.22991e-14 -1.14723e-16)
(1.14773e-16 4.30255e-14 0)
(1.14723e-16 9.5238e-15 0)
(0 1.1616e-16 0)
(0 0 0)
(0 0 0)
(0 0 0)
(0 0 0)
(0 0 0)
(0 0 0)
(0 0 0)
(0 0 0)
(0 0 0)
(0 0 0)
(0 0 0)
(0 0 0)
(0 0 0)
(0 0 0)
(0 0 0)
(0 0 0)
(0 0 0)
(0 0 0)
(0 0 0)
(0 0 0)
(0 0 0)
(0 0 0)
(0 0 0)
(0 0 0)
(0 0 0)
(0 0 0)
(0 0 0)
(0 0 0)
(0 0 0)
(0 0 0)
(0 0 0)
(0 0 0)
(0 0 0)
(0 0 0)
(-2977.95 -2978.93 -3.00128)
(-2213.19 -2877.4 -5.23077)
(-1562.73 -2870.41 -11.1541)
(-934.273 -2863.09 -19.8732)
(-230.029 -2936.18 -28.1814)
(311.848 -2914.57 -32.911)
(1051.92 -2840.71 -26.5042)
(1738.22 -2792.43 -17.8466)
(2432.68 -2804.94 -10.6465)
(3149.9 -2927.72 -6.76085)
(3994.44 -2975.01 -5.51254)
(4516.74 -2772.4 -5.59752)
(4288.62 -2434.89 -5.75094)
(2373.01 -1165.36 -3.44693)
(241.322 -89.2593 -0.311206)
(0.31112 -0.0569196 -0.000155675)
(1.26121e-06 -2.33671e-07 -3.64329e-10)
(2.59826e-12 -3.89599e-13 -2.29446e-16)
(1.17574e-16 0 0)
(0 0 0)
(-2876.49 -2213.73 -5.02413)
(-2133.41 -2134.18 -9.10805)
(-1494.48 -2230.05 -19.9659)
(-871.94 -2253.96 -36.4627)
(-211.999 -2301.38 -51.6878)
(314.531 -2268.1 -57.3352)
(1005.01 -2216.28 -43.7644)
(1662.6 -2154.14 -26.584)
(2365.85 -2079.12 -14.7046)
(3067.71 -2003.97 -8.81386)
(3891.68 -1964.96 -6.74881)
(4801.75 -1922.98 -6.2083)
(4969.16 -1819.68 -6.54622)
(3816.06 -1411.23 -5.5117)
(1034.89 -376.743 -1.53432)
(13.2568 -2.5572 -0.0102804)
(0.000855782 -0.000105921 -3.18589e-07)
(1.92885e-09 -1.81754e-10 -3.84322e-13)
(4.02188e-15 -1.14723e-16 0)
(0 0 0)
(-2869.83 -1562.67 -10.2882)
(-2229.8 -1494.73 -18.9449)
(-1590.14 -1589.45 -39.4032)
(-914.883 -1647.52 -64.6246)
(-237.673 -1686.84 -84.7343)
(372.394 -1659.71 -93.5591)
(1083.42 -1648.47 -79.8754)
(1756.06 -1581.99 -49.7499)
(2456.79 -1457.99 -25.1027)
(3112.22 -1113.57 -11.6127)
(3822.64 -892.492 -6.80392)
(4669.49 -752.058 -5.65508)
(5079.22 -656.595 -5.92668)
(4277.28 -549.218 -5.65628)
(1530.48 -170.453 -2.10366)
(49.4425 -2.60031 -0.0394207)
(0.0113377 -0.000241347 -3.94588e-06)
(3.14308e-08 -3.34702e-10 -5.73328e-12)
(6.84793e-14 -2.29446e-16 0)
(0 0 0)
(-2863.45 -934.197 -17.604)
(-2254.96 -871.205 -33.1024)
(-1649.1 -912.275 -61.9653)
(-1148.84 -1144.28 -119.161)
(-465.018 -1191.87 -136.794)
(233.667 -1261.52 -163.058)
(923.171 -1249.55 -162.83)
(1603.64 -1168.47 -131.575)
(2288.56 -947.827 -77.4409)
(3306.87 -261.857 -23.0911)
(3860.17 -27.4405 -12.6337)
(4568.52 116.814 -9.3683)
(4912.28 169.568 -9.14298)
(4042.95 149.287 -8.42415)
(1349.24 61.134 -2.76035)
(37.0042 1.2041 -0.0395641)
(0.0069785 0.00012457 -3.48275e-06)
(2.00959e-08 2.17077e-10 -5.28942e-12)
(4.72202e-14 1.14723e-16 0)
(0 0 0)
(-2937.2 -229.011 -27.5604)
(-2300.6 -210.975 -50.4302)
(-1683.63 -237.816 -85.0535)
(-1179.45 -473.22 -140.044)
(2986.8 242.126 -94.608)
(3462.61 1126.57 -28.3109)
(3981.37 1151.4 -24.5178)
(4699.49 1206.39 -19.376)
(4860.2 1185.95 -17.2442)
(3809.72 961.949 -12.8065)
(1143.25 273.64 -2.90521)
(20.0621 2.35708 -0.0212803)
(0.00200533 0.000119745 -9.64142e-07)
(5.08449e-09 1.83285e-10 -1.23993e-12)
(1.06613e-14 1.14723e-16 0)
(0 0 0)
(-2914.36 313.809 -33.3547)
(-2267.75 316.278 -58.1524)
(-1659.02 373.448 -94.5445)
(-1260.13 232.62 -162.295)
(3588.73 1986.79 23.4208)
(3976.67 2220.23 -5.70855)
(4159.14 2266.04 -12.6403)
(4436.96 2189.92 -13.0094)
(4377.1 2034.1 -11.9852)
(2836.64 1336.45 -6.51928)
(428.183 193.139 -0.674473)
(1.30316 0.28184 -0.000628994)