/*--------------------------------*- C++ -*----------------------------------*\
  =========                 |
  \\      /  F ield         | OpenFOAM: The Open Source CFD Toolbox
   \\    /   O peration     | Website:  https://openfoam.org
    \\  /    A nd           | Version:  9
     \\/     M anipulation  |
\*---------------------------------------------------------------------------*/
FoamFile
{
    format      ascii;
    class       volScalarField;
    location    "0.009";
    object      p;
}
// * * * * * * * * * * * * * * * * * * * * * * * * * * * * * * * * * * * * * //

dimensions      [1 -1 -2 0 0 0 0];

internalField   nonuniform List<scalar> 
9720
(
778472
671465
405679
236123
243311
280318
279056
236881
181582
137246
109311
92359
86416.9
89263.1
95144.6
104469
119921
144918
174521
241601
670421
334625
139532
130273
222420
270821
269986
217052
135890
77847.3
53142.7
44792.8
46078.9
50486.1
58204.9
68252.3
82346.4
103270
128477
189878
413359
138735
114277
106583
215875
269890
268580
209383
104154
46982.3
32116.8
34349.1
38989.1
45134.7
52141.1
59295.8
68110.3
80428.3
96533
147734
237589
128146
105521
83393.5
157925
266278
284703
241151
95232.5
20875.5
22063.2
24820.7
28319
32144
35876.4
39625.2
43548.7
48516.8
53747.2
77130.8
235016
212795
206808
158011
16835.5
33941.2
36327.7
37782.2
38985
40325
41667.7
42939.1
44365.3
46417
48808.3
58528
268323
259736
259413
256094
48286.5
50128.2
49075.1
48295.7
47679.8
47370.4
47475.3
47829.3
48492
49453.8
50415.3
53130.1
266804
258590
258108
274966
53955.6
50613.4
49720.2
48943.2
48309.8
47862
47620
47591.8
47701.6
48000.9
48444.6
50046.3
225704
206699
199537
231164
44367.3
32185.4
33768.4
34784.5
35652.5
36508.3
37299
37965.4
38633.3
39560.3
40663.5
43094.5
172251
127882
96930.1
84424.6
15514.3
45024.7
50296.8
40664.9
4225.61
7260.7
11798.7
16083
19638.6
22611.5
24968.9
26961.5
28938.8
31041.3
32884.7
36157.6
130383
72969.2
43207.2
19412.9
31895.9
47221.6
47363.3
30072.3
7500.84
2754.4
3668.59
5990.34
9250.09
12429.2
15358.9
18304.4
20950.5
23658.5
25851.9
29632.9
103632
50315.9
30698.8
20780
33989.6
46083.5
46415
31723.6
11923.9
3768.53
2135.74
2486.28
3680.37
5845.62
8655.84
11623.3
14507.1
17258.5
19483.5
23723.2
87606
42645.6
33147.1
23744.9
35500.7
45238.1
45649.7
32791.5
16061.7
6214.17
2508.1
1872.67
2104.75
3073.17
4806.01
7107.66
9535.98
11956.9
14298.1
18810.5
82446
44085.8
37526.7
27345.9
36758.9
44528.5
45093
33734.2
19559
9524.6
3784.61
2115.51
2202.04
2517.95
3230.53
4457.33
6062.04
8273.42
10527.5
14765.5
85270.9
48597.6
43110
30940
38037.3
44426.1
44703.1
34690.9
22454.2
12667.4
6029.81
3129.84
2555.88
2643.46
2800.27
3194.41
4208.34
6023.55
7853.76
11589.4
90953.3
56199.5
49859.5
34413.7
39284.6
44634.4
44683.9
35580.3
24760.1
15548.2
8938.35
4973.94
3368.9
2860.03
2802.53
2955.15
3567.43
4716.9
6055.91
9230.9
99711.2
65700.1
57213.5
38048.3
40584.5
45149.1
44844.3
36360.4
26723.9
18517.7
12019.4
7414.47
4724.1
3384.98
3019.85
3102.75
3352.16
3836.03
4755.84
7399.86
114206
78690.8
65900.6
42005.6
42141.4
45968.1
45123
37140.4
28710.2
21247.7
14939.1
9945.59
6477.74
4551.74
3783.61
3448.79
3443.5
3652.69
4149.13
6200.34
138030
97866.4
77423.2
46947.1
44395.9
47078.3
45622.5
38208.3
30839.2
23965.7
17672.3
12459.9
8792.08
6507.64
5167.08
4236.43
3810
3884.24
4243.13
5631.76
166649
121337
92018.2
52148
46932.9
48173.1
46258.3
39458.7
32671
26120.5
19866.4
14810.1
11098
8496.16
6733.96
5462.89
4567.85
4436.31
4609.79
5519.17
231791
180817
140007
74790.3
56803.7
51251.7
48231.7
42141.2
35987.6
29856.9
24045.9
19273.5
15449.8
12472.8
10200.4
8401.35
7010.55
6310.93
5893.16
6229.26
776613
654978
377095
223313
243524
281879
280163
237321
180891
134913
106607
89729.3
83368.9
86172.8
92053.6
101131
115847
139882
168642
235590
656769
298750
133049
127561
227138
273511
271724
217662
135029
76195.2
50617.3
42318.4
43509.8
47913
55626.7
65206.9
78266.3
97962.1
121940
181897
387130
131215
110366
105234
221633
272896
270428
209542
102215
45658.5
30002.8
31866.9
36377.9
42638.3
49708.8
56335
64145
75152.8
89813
138428
224296
123770
101453
80817.7
171306
266679
285185
241098
97224
19913.9
20969.3
23506.3
26667.9
30147.5
33616.7
37159.1
40761.5
45290.3
49924.3
70804.5
231976
211676
203965
150684
17102.5
32633.5
34948.9
36251
37342.3
38586.6
39821.1
40933.6
42166.7
43961.7
46085.9
54700.8
267615
259522
259385
255309
46642
48448.6
47447
46650.4
46087.5
45673.7
45693.1
45927.6
46446.5
47261.3
48127.6
50525.7
265799
258578
258478
273681
52087.7
48910.4
48096.1
47268.9
46561.8
46082.4
45896.2
45717.6
45704.6
45857.3
46221.8
47664.8
224894
206995
199930
230831
42909.6
30981.6
32466.9
33396.1
34255.1
35222.1
35990.6
36388.5
36794.3
37568.8
38687.6
41055.4
171222
127343
95713.3
87077.2
16237.2
44927.6
50219.3
40376.3
4499.15
7003.59
11148.2
15362
18958.9
21724.3
23751.9
25372.3
27245.1
29540.7
31392.7
34254.1
127675
71659.7
42478.6
19079.8
31689.1
46979.2
47118.3
29832.9
7383.45
2611.12
3562.7
5783.35
8729.57
11530.6
14116.6
17018.5
19937.4
22587.7
24443.7
27618
100182
47710.1
28607.9
20198.9
33910.1
46014
46377.4
31481.9
11631.7
3692.51
2040.53
2326.89
3298
5181.36
7929.87
11021.9
13840.8
16271.8
18042.6
21794.1
84392.1
39899.7
30595.6
22887.3
35314.8
45201
45633.6
32512.1
15782.9
6109.03
2376.71
1632.81
1816.23
2745.06
4504.34
6731.82
8941.72
10942.1
12922
17227.8
78772.1
41197
34913.7
26168.1
36438.1
44601.7
45014.8
33471.2
19389.8
9203.26
3469.79
1834.23
1938.63
2291.34
2965.26
4053.05
5365.79
7199.67
9339.56
13499.5
81604.6
45637.8
40782.6
29557.9
37610.7
44275.1
44605.7
34561
22149.7
12063.7
5473.99
2820.83
2338.83
2355.39
2403.26
2656.2
3456.83
5125.69
6959.57
10495.3
87381.6
53260.1
47760.5
32868.5
38741.2
44372.5
44483
35405.5
24136.4
14660.3
8339.11
4702.05
3107.1
2460.35
2333.68
2458.12
3034.71
4174.68
5428.52
8264.5
96151.7
62460.4
54583.1
36318.2
39831.2
44666.6
44474.7
35863.1
25745.8
17620.4
11596.4
7106.28
4320.13
2831
2506.35
2636.28
3001.11
3529.18
4328.12
6572.82
110110
74642.1
62238.9
39875.8
41117.2
45229
44538.3
36345.1
27663.5
20645.6
14527.7
9444.22
5778.45
3777.05
3216.75
3071.44
3124.24
3330.3
3733.8
5470.84
132979
92834.4
72476.2
44347.5
42995.6
46072.3
44776
37225.6
30014.2
23353.7
16972.9
11534.2
7745.01
5604.4
4563.7
3833.71
3447.47
3489.58
3772.68
5014.48
160436
115288
85827.1
48888.9
45152.6
46979.2
45223.7
38442.8
31866.4
25196.7
18752.2
13589
9978.69
7606.26
6027.95
4870.47
4053.49
3913.83
4071.13
4896.02
224737
173171
131554
68924.5
53686.8
49576
46864.9
40965.1
34816.4
28439
22584.8
18018.7
14342
11417.9
9156.44
7418.24
6133.65
5560.49
5208.51
5489.19
808002
647863
349757
213731
243083
282163
279924
236830
180446
133674
105097
88639.8
81775.1
84500.2
90284.5
99169.5
113615
137457
166748
235094
654135
261080
128997
128345
228383
272893
270944
216255
133825
75122.7
48905
40900.4
42142.4
46551.1
54365.3
63782.7
76223.1
95232.9
119156
180178
356368
124307
107479
106456
221016
271593
269651
207470
99955.6
45229.4
28685.7
30163
34748.1
41586.8
49439.3
55914.7
62654.8
72394.7
85755.9
132962
206848
119680
99188
78164.2
173983
266797
284842
240242
93684.2
19196.9
20469.2
22765.7
25703.6
28964.2
32334.3
35802.3
39298.7
43528.5
47709.3
66122.5
228160
210398
202071
146844
15317.9
31614.3
34231.2
35436.9
36201.3
37180.1
38441.9
39695.4
40934.5
42558.7
44518.4
52247
265737
257157
256994
254471
45381.3
47541.2
46442.4
45586.6
45071.8
44690.3
44732.4
44978
45489.2
46328.5
47280.3
49627.9
264951
257413
256658
272061
50811.3
48005.9
47108.1
46227.8
45519.9
45084.3
44953.1
44909.8
44947.4
45114
45497.7
46929.5
224003
206363
199113
229630
41609.5
30369.1
31667.9
32540.4
33362.3
34413.1
35251.6
35657.3
36056
36854
38004.3
40395.6
170261
127518
96562.5
89947.8
14915.9
44276.5
49513.9
40037.7
4305.54
6834.53
10815.8
14894.6
18478.2
21071.6
22938.7
24502.3
26344
28756.6
30652.5
33482
125607
71297.8
42988.8
18305.6
30650
46457.6
46659.6
29269.3
6898.77
2394.2
3372.21
5559.98
8244.28
10881.1
13355.5
16141.3
19246.6
21850.9
23568.1
26687.4
97274.7
45581.1
26947
19327.2
33240.1
45409.1
45845.2
30771.6
11013.5
3459.76
1928.25
2190
3089.2
4809.63
7348.83
10460.4
13228
15463.8
17203.6
20879.2
81991.9
37818
28214.6
21581.8
34552.6
44592.4
45090.7
31790.4
15136.4
5793.34
2242.81
1525.48
1655.45
2498.54
4189.19
6295.27
8337.59
10311
12214
16466.7
75820.2
39129
32492.1
24526.9
35374
44072.3
44459.1
32746.3
18789.4
8631.87
3265.04
1678.98
1744.71
2007.41
2567.91
3600.62
4906.61
6627.32
8682.29
12792
78664.8
43353.7
38990
27760.3
36324.4
43693.7
44025.4
33919.1
21470
11409.9
5136.97
2601.43
2049.29
2015.18
2068.23
2342.23
3060.66
4620.73
6420.33
9832.79
84500.4
50943.3
46795.6
31047.9
37504.9
43741.5
44011.9
34846.4
23367.6
13975.9
7837.54
4433.98
2692.33
2092.94
2054.42
2188.96
2727.34
3832.5
4993.78
7694.8
93320.8
60135.7
53435.1
34477.2
38701.3
43985.7
44095.2
35327.2
24965.4
16879.1
11135.4
6729.14
3831.56
2457.36
2225.22
2371.4
2796.34
3298.95
4033.56
6135.76
107182
72048
60086.1
37960.2
39947.1
44489.2
44213.4
35820
26875.2
20088.6
14048
8930.06
5294.25
3310.58
2866.72
2843.61
2914.46
3121.98
3513.82
5096.53
129854
90034.3
69285.6
42158.9
41591
45344
44467.1
36733.3
29348
22801.4
16411.4
11055.4
7189.6
5039.62
4140.54
3503.17
3197.29
3269.89
3535.05
4701.47
157656
112715
81693.6
46322.3
43547.1
46337.7
44910.1
37957.7
31350.5
24651.3
18267.2
13107.9
9403.67
7018.69
5493.57
4436.99
3761.13
3642.43
3787.08
4546.38
223174
171661
126508
63965.4
51109
48870.9
46514.5
40517.1
34430.3
27992.3
22158.4
17600.1
13835.1
10778.5
8532.77
6903.99
5725.67
5199.23
4832.97
5080.88
838982
632620
322613
208241
242948
282574
279889
235871
178664
131362
102380
86833.8
79599.5
82383.9
88360.3
97534.1
112231
135921
165731
235626
639862
224261
125509
130040
227966
272677
270994
215430
131932
73840.5
46990.5
39194
40480.6
44845.2
52891.3
62606.1
74752.5
93285.2
117263
179442
325397
121113
106312
105895
216887
271335
269927
207028
98330
44179.3
27667.3
28386.6
32616.4
39914
49041.9
56378.3
62335.3
70776.3
82783.3
128097
194478
119498
100812
78376.1
163624
267588
285508
240330
87767.7
18335.3
19677.8
21834.5
24677.4
27942.1
31428.9
34991.6
38412.4
42255.6
45900.4
61604.2
225890
211719
203389
154898
16846.3
30956.2
34028.9
35528.7
36102.1
36788.3
37909.7
39264.9
40512.8
41835.8
43370.7
49786.4
264006
256057
255861
252713
44933.5
47437.2
46439
45549.3
45033.8
44618.1
44534.5
44666.9
45029.2
45717.6
46578.6
48665.6
263928
256095
255017
270718
50510.4
48019.5
47224.1
46397.4
45658.5
45110
44880.7
44795.9
44790.8
44893
45131.1
46231.8
222818
204707
196970
228202
41425.8
30138.5
31456.8
32387.9
33210.5
34162.1
34951.7
35398.5
35816.1
36562
37524.6
39600.4
169537
126324
94582
86072.4
15047.5
44090
49340.9
39930.1
4279.76
6462.77
10436.8
14473.7
18026
20643.7
22535.8
24204.3
25996.9
28201
29978.4
32795.6
124755
70726.7
42236.1
17720.1
30333.1
46456.2
46741.9
29280.8
6838.2
2230.22
3121.57
5227
7773.4
10321.5
12959.3
15720.4
18715
21339.9
23019.4
26125.7
95872.1
44434.9
26288.4
19027.2
33247.6
45403.5
45972.9
30770.2
10912.4
3248.44
1803.6
2058.2
2872.38
4563.35
6974.2
9936.52
12716
14830
16632.5
20359.3
81044.5
36667.1
26939.9
21132.8
34695.4
44501.7
45240.3
31797.8
14944.9
5589.03
2134.44
1455.73
1576.84
2349.66
3916.71
5922.79
7786.36
9741.64
11800.1
15992.3
74222.7
38040.1
30893.5
23815.6
35255.8
43964.5
44586.4
32752.8
18556.6
8424.93
3118.64
1607.24
1644.59
1844.49
2324.71
3218.06
4452.66
6275.47
8325.8
12306.9
76757.9
42141.8
37667.4
26873.1
35908.3
43604.1
44111.1
33816.2
21321
11117.8
4977.26
2456.11
1872.8
1750.82
1775.47
2044.87
2808.63
4340.66
6045
9334.62
82166
49507.7
46257.8
30097.6
36936.9
43551.6
44029.3
34735.1
23202.7
13731.2
7485.3
4145.07
2430.27
1799.31
1778.97
1999.06
2536.71
3587.05
4686.48
7224.47
90563.5
58389.5
53294
33408.6
38196.4
43719.8
44071.3
35320.7
24777.9
16413
10540.3
6341.67
3466.71
2111.49
2013.81
2194.17
2662.09
3202.12
3836.04
5796.61
104144
69452.9
58730.5
36697.8
39418.8
44118.6
44195.8
35852.7
26506.3
19403.4
13489
8438.63
4820.83
2950.11
2588.79
2691.74
2825.17
3057.01
3419.66
4906.17
126136
86404.2
66283
40379.5
40769.2
44872.4
44433.6
36687.1
28718.1
22221.6
15833.9
10528.7
6752.9
4569.11
3717.19
3306.92
3093.18
3174.08
3463.4
4600.17
154089
108468
76908.1
43996
42317
45818.4
44784.4
37717.9
30683.5
24101.7
17727.3
12644.6
8877
6391.45
4945.18
4049.18
3541.66
3544.04
3703.25
4425.03
221301
167895
118396
58463.3
48462.1
48141.8
46119.3
39955
33834.1
27419
21547
16942.7
13102.4
10012.6
7791.89
6314.21
5360.64
4981.32
4649.71
4894.07
862731
627456
307572
204028
243243
282789
280267
235589
177314
129458
99990.1
85462.6
78699.8
81613.6
87809.2
97492.4
112709
136393
166529
236981
636883
207608
122821
130635
229906
273814
271651
215360
130541
72731.9
45388
37914.4
39608.4
43907.9
51880.2
61985.7
74688.8
93392.6
117726
180810
311426
118906
104357
106240
218966
272691
270794
207173
97081.9
43305.7
27129.4
27369.8
31065.9
38426.7
48237.9
56520.5
62221.2
69971.5
81279.3
125838
189765
118454
98375.8
76609.9
166115
268095
286314
241328
89166.2
17990
19287.6
21392.8
24065.5
27321.1
30851.8
34552.8
38025
41716.8
45160.7
59290
224460
210481
200665
151406
14461.7
30470.5
33828.7
35553.2
36073.2
36640.6
37674
39121.2
40528.9
41885.9
43313.8
49027.9
262828
255345
255584
252558
44907.1
47519.9
46502.5
45551.9
44977.8
44622.3
44547.2
44673.5
45034.5
45735.8
46625.2
48635.5
263076
255768
255211
269819
50586
48248.9
47458.2
46642.6
45902.1
45302
44994.2
44876.1
44938.9
45127
45366.7
46343.8
221769
203714
196054
227713
41704.8
30102.6
31446.7
32408.2
33293.8
34188.2
34922.3
35439.9
35937
36663.6
37495
39409
168480
124865
92679.1
84826
14396.7
44233.3
49720.7
40182.9
4151.33
6408.21
10398.1
14367
17766.4
20454
22550.1
24265.2
25957.3
27906.1
29681.8
32644.7
123772
69835.6
41409.3
17518.3
30181.1
46673.1
47101.9
29434.5
6860.79
2194.2
3013.19
5027.35
7717.21
10349.5
12955.9
15643.9
18392.6
21114.6
23051.6
26178.2
95029.9
43745.1
25956
18827.2
33381.5
45624.9
46322.4
31017.2
10971.2
3156.26
1768.27
2100.1
3014.34
4605.92
6895.05
9649.37
12463.8
15045.1
16895.8
20354.1
80619.3
36201.7
26446.2
20940.9
34949.7
44652.1
45612.4
32072.4
15013.2
5429.85
2170.58
1517.58
1574.52
2251.13
3703.38
5724.38
7917.85
10062.3
12037
15878
73821.1
37724.2
30162.7
23476.9
35413.1
44075
45007.4
32937.4
18398.1
8361.07
3229.33
1599.22
1593.99
1738.17
2266.59
3326.72
4722.86
6507.44
8391
12189.7
76064.8
41800.8
36956.9
26522.6
35901.7
43746.4
44483.3
33784.3
21150.5
11132.6
4984.88
2349.75
1753.92
1785.06
1885.22
2194.66
2917.46
4269.03
5919.54
9340.98
81057.3
49046.7
45764.2
29754.4
36825.1
43666.9
44216.5
34608.7
23283.4
13729.9
7383.67
3888.33
2335.98
1907.36
1901.06
2043.4
2448.79
3390.13
4653.7
7368.12
88973.6
57783
53450.9
33054.2
38119.2
43770.8
44218.6
35430.3
24953.5
16318.7
10156.9
6030.54
3500.42
2263.52
2053.78
2163.35
2549.82
3283.9
4076.53
6003
102016
68258.8
58527.5
36254.6
39365.2
44088.7
44375.2
36166.2
26559.3
18970.7
13050.5
8391.63
5005.05
3014.78
2466.41
2565.43
2835.46
3302.81
3650.77
5010.15
123243
84201
65132
39681.1
40591.4
44733.1
44663.5
36911
28419.8
21753.3
15766.8
10620.5
6820.47
4384.25
3435.51
3347.64
3335.98
3417.83
3618.31
4543.9
151030
105133
74423.2
42983.1
41907.6
45591.9
44944.4
37678.5
30240.2
23877.6
17686.9
12588.6
8728.9
6082.97
4764.36
4199.36
3765.21
3655.4
3747.6
4441.95
219083
163453
112439
55417.6
47143.1
47714.2
46016.4
39617.5
33497.3
27252.9
21234.6
16518
12675.6
9707.43
7694.75
6323.51
5333.42
4810.39
4593.47
4943.02
863730
626316
304515
201856
243296
283559
280669
235699
177258
129520
99751.9
85730.9
78893.8
81658.9
87755.6
97703.1
113347
137446
167813
238106
637521
206832
122233
130051
231122
275168
272139
215356
130355
72687.5
45316
38075.2
39971.9
44191.4
51795.4
61740.7
74691.3
93837.9
118772
182547
312761
118361
103811
106202
221134
274218
271217
207087
96788.5
43167
27413.3
27668.9
31415.2
38841.5
48683
56813.2
62414.7
70153.4
81724.8
127486
190775
118678
97866.7
75595.9
172703
268701
286612
241882
88247.7
18029.8
19376.7
21480
24100.8
27349.4
30991.4
34828.8
38298.5
41892.9
45247.8
59682.3
223846
209127
198463
144048
13419.1
30519.4
33975.9
35640.4
36040.6
36526.8
37536.3
39023.9
40435
41763.2
43163.8
48893.1
262129
254182
254337
253343
45069.4
47621.5
46588.4
45614.8
44943.7
44558.4
44447
44546.4
44875.8
45525.4
46376.1
48332.2
262661
255610
255247
270035
50872.5
48309.8
47491.4
46626.4
45797
45120.9
44870.1
44813
44823.3
44956.2
45160.1
46098.8
221346
203570
196135
227500
41791.3
30169.3
31550.3
32486.7
33317
34246.8
35002.8
35561.2
36084.1
36726.7
37545.7
39425
168145
124990
93126.8
87108.2
13666.4
44245.1
49845.4
40452.3
4181.49
6629.22
10616.9
14576.9
17942.6
20659.7
22792.2
24444
26053.1
28049.9
29850.7
32777.2
123365
69932.5
41535.6
17266.6
29968.4
46652.5
47096.4
29384.1
6768.99
2203.01
3031.87
5085.56
7834.85
10481.4
13053.1
15706.8
18466.4
21274.3
23235.6
26275.2
94829.2
43887.1
26041.1
18640.2
33151.6
45660.1
46350.1
30837.9
10807.8
3108.6
1753.9
2104.39
3032.36
4620.53
6908.83
9638.79
12514.2
15168.9
17010.5
20367.2
80534.4
36258
26527.8
20825.5
34828.4
44746.4
45609.1
31794.9
14781.5
5299.47
2150.01
1508.08
1561.02
2222.69
3661.53
5721.76
7972.27
10100.4
12026.7
15874.9
73797.3
37749.4
30145.8
23407.3
35351.1
44194
44929.8
32716.7
18183.4
8204.49
3188.4
1584.2
1574.27
1714.07
2264.99
3344.61
4731.64
6466.59
8351.46
12180.8
76062.9
41756.2
36818.1
26428.9
35865.5
43860.2
44350
33801.2
20960.4
10963.5
4924.05
2323.99
1735.83
1777.65
1880.3
2172.5
2862.02
4208.94
5898.73
9337.72
81090.7
49004.4
45606.4
29596.6
36773.1
43807.2
44251.9
34720
23034.7
13564.9
7319.74
3862.18
2335.53
1899.69
1881.33
2006.73
2418.09
3408.16
4680.47
7354.42
89021.6
57807.9
53328.3
32855.5
38053.3
43946.5
44296.4
35325.4
24678.5
16196.4
10125
6008.03
3485.52
2226.84
2018.66
2132.64
2540.73
3259.46
4006.86
5938.12
101999
68219.5
58442.8
36089.7
39373.2
44292
44412.6
35860.2
26335.5
18957.3
13000.4
8303.06
4930.82
2947.33
2443.54
2561.29
2823.04
3197.4
3532.61
4912.1
123093
83899.8
64944.2
39564.5
40706.9
44954.7
44618.1
36647.2
28390.8
21718.9
15596
10474.7
6730.45
4331.44
3467.71
3332.04
3232.09
3291.72
3509.61
4469.12
150728
104491
73968.9
42896.5
42083.6
45822.3
44902.8
37630.8
30273.9
23690.1
17513.8
12477
8656.78
6067.18
4795.73
4149.72
3656.46
3551.88
3661.73
4416.35
218736
162314
110958
55018.9
47256.1
47919.4
46039.5
39721.7
33366.7
26994.4
21110.9
16516.3
12667.8
9707.48
7680.77
6293.44
5269.27
4761.44
4582.61
4933.7
841496
630177
316366
204763
244080
284492
281197
236344
178019
130701
101732
87236
80150.1
82804.9
88684.4
98244.2
113711
138174
168553
238546
641705
221719
123364
129984
231840
276267
272316
215684
130860
73112.9
46470.8
39319.7
40957.2
45226.5
52927.5
62611.2
75299.1
94708.6
119855
183409
326769
118888
104022
107448
222472
275228
271075
207102
97261
43541.7
27700.2
28382
32739.4
40356.7
49716.4
56972
62786.7
71325.9
83958.5
131554
194119
117423
97370.4
76233.8
172402
269502
287177
242306
88495.9
18260
19595.2
21726
24592.5
27972.2
31676.2
35403.3
38843.7
42649.9
46266.8
62588.1
223385
208232
198909
144672
13759.6
30606.6
33954.3
35437.8
35954.6
36634
37814.5
39283
40595.6
41917.1
43471.1
50059.9
262045
254248
254312
253295
44987.2
47340
46293.1
45374.5
44824.6
44468.6
44393
44512.1
44858.6
45549.4
46451.5
48629.3
262306
255467
255234
270003
50718
47937
47115.7
46301.9
45585.2
45074.4
44868.8
44773.1
44785.2
44914.2
45173.1
46305.1
221104
203390
195859
227383
41503.5
30074.5
31420.4
32367.2
33251.6
34259.9
35145.9
35655.5
36062.4
36749.9
37645.6
39698.4
167778
124553
92689.8
83765.4
13626.9
44081.4
49601.7
40262.3
4105.56
6624.46
10636.4
14642.5
18208.4
20921.5
22816
24422.2
26142.9
28306.5
30163
33057.6
123649
69905.7
41700.6
17804.4
30122.9
46508.2
46942
29247.7
6599
2187.64
3111.03
5283.11
7938.2
10503.5
13114
15803.3
18771.5
21507
23238
26303.2
95476.6
44370.8
26250.5
19104.6
33320.6
45488.1
46164.5
30735.7
10598.2
3142.52
1770.94
2057.31
2913.13
4598.13
6967.78
9910.57
12774.3
14981.7
16778.1
20461.2
80737.2
36574
27028.8
21188.6
34855.4
44587.8
45392.5
31771.5
14644.8
5390.2
2087.52
1428.86
1538.46
2282.41
3844.33
5905.78
7872.86
9816.71
11849.7
15997.7
74068.5
37906.1
30959.2
23851.7
35346.3
44021.6
44691.3
32662.7
18221
8126.59
3017.34
1555.58
1593.16
1797.47
2303.44
3237.35
4475.17
6258.42
8264.56
12261.9
76791.8
42143.8
37674
26964.6
35918
43622.3
44114.1
33659.9
20918.2
10778.5
4804.82
2367.2
1825.16
1725.48
1752.57
2007.65
2735.82
4223.29
5972.53
9296.48
82327.3
49728.8
46310.4
30252.6
36898.5
43579.2
44030.2
34545.7
22835.4
13425.1
7287.39
4034.88
2396.87
1772.3
1742.29
1938.83
2456.61
3546.69
4679.49
7188.84
90589.8
58703.4
53832.4
33602.2
38196
43766
44090.8
35137.2
24485.8
16182.3
10341.7
6208.85
3419.2
2063.95
1957.61
2128.97
2616.07
3189.41
3796.62
5731.51
103925
69479.1
59311.2
36893.6
39479.2
44186.4
44218.7
35684.3
26281.9
19212
13232.9
8254.46
4733.02
2851.75
2531.3
2663.53
2816.31
2997.88
3318.51
4781.54
125693
85924.5
66490.5
40561.2
40854.3
44945.2
44425.6
36523.5
28548.3
21933.1
15514
10317.1
6605.23
4450.65
3722.23
3324.15
3051.64
3086.1
3341.55
4477.94
153538
107500
76498.4
44078.6
42377.3
45874.8
44752.9
37546.2
30460.5
23775.6
17423.8
12430.5
8729.57
6332.61
4972.93
4066.71
3471.15
3424
3578.93
4370.11
220842
166539
116330
57724
48264.6
48135.1
46046.6
39786.2
33569
27103.4
21306
16804.9
13017.4
9986.3
7804.74
6313.34
5260.23
4875.63
4601.24
4865.3
809428
642496
342645
213123
246370
286068
282445
238138
180100
132918
104448
88934
82025.6
84586.4
90232.2
99378.3
114647
139452
169379
237963
653697
256165
128441
129770
232542
277499
273260
217290
132929
74152.5
48192.6
40708.3
42182.3
46658.6
54320.4
63819.4
76885.3
96900.6
121980
184129
355672
122487
106964
107803
224693
276291
271709
208372
99117.6
44404.1
28214.4
29683.2
34568.4
41851.1
49948.3
56427.7
63304.1
73472
87753.4
137535
204390
117782
98087.8
78034.8
173856
269662
287194
242148
89659.3
18828.7
20053.2
22272.4
25314.4
28789.7
32429
36041
39626.3
43887.5
48110.8
67628
225592
208608
200770
145612
14118.6
30944.1
33886.8
35121.9
35875.9
36892.1
38242.5
39548.2
40788.4
42413.5
44390.3
52354.6
263349
255647
255721
253768
44612.5
47107.2
46058.7
45235.1
44730.7
44302.7
44293.2
44499.4
44994.6
45855.7
46832.1
49219.7
262756
256067
255958
270370
50236.7
47641.1
46844.7
46035
45341.2
44888.2
44748.3
44674.4
44708.8
44861.7
45216.1
46617.4
221948
204629
197454
227545
41082.2
29943.9
31320.4
32259.7
33157.8
34319.3
35273.1
35650.3
35981.6
36712
37830.7
40202.7
168565
125704
94503.9
87690.6
14422.9
44267.2
49695
40278.2
4296.43
6719.26
10625.1
14716.7
18377
21084.9
22967.5
24489.5
26299.9
28741.3
30697.5
33518.1
124852
70556.3
42245.4
18147.6
30722.7
46832.4
47110.8
29548.4
6912.39
2328.92
3295.59
5500.4
8215.79
10837.6
13283.9
16058.6
19236.2
21978.9
23709.8
26728.8
96749.4
45493.4
26807.8
19292.3
33466.6
45788.8
46303.4
31025.2
10956.3
3378.73
1896.76
2163.17
3039.87
4710.6
7208.19
10377
13286.1
15578.5
17291.8
20876.9
81482.5
37532.9
28228.8
21543
34828.7
44925.8
45513.6
31990
15063.3
5719.83
2207.67
1476.68
1590.58
2403.69
4109.19
6280.3
8370.59
10325
12199.9
16434.6
75506.9
38886.1
32544
24550.5
35612.8
44384.8
44838.4
32869.9
18707.8
8552.22
3179.17
1611.39
1678.23
1967.57
2547.05
3574.53
4866.98
6553.59
8595.39
12776.5
78475.4
43292.1
38951.5
27872.5
36496.8
43993.9
44344.9
33990.6
21401.7
11267.7
4976.69
2492.39
2011
1977.01
2021.63
2284.09
2970.67
4504.43
6358.76
9837.39
84279.3
50990.7
46881.5
31220.2
37657.7
44013.3
44298.5
34957.5
23283.8
13784.5
7607.23
4313.4
2667.02
2048.8
2003.13
2129.03
2656.2
3800.57
5000.91
7707.42
93020.7
60062.4
53754.3
34616.1
38894.2
44246.6
44342.1
35434.4
24817.9
16635.5
10900.5
6623.09
3793.57
2392.53
2165.59
2312.96
2775.79
3327.24
4055.12
6119.92
106845
71607.6
60117.2
38030.2
40165.4
44737.1
44435.8
35846.4
26664.2
19843
13878.7
8835.01
5219.37
3196.03
2792.16
2831.48
2925.61
3114.71
3484.93
5012
129615
89151.3
68685.5
42071.6
41762.5
45556.6
44631
36648.5
29143.5
22607.9
16237.3
10893.2
7031.49
4882.53
4101.18
3527.45
3190.55
3240.06
3471.32
4614.95
157778
111698
80288.4
46036.4
43606.7
46506.6
45010.2
37841.7
31158.2
24410.2
17999.6
12862
9198.11
6910.58
5479.18
4436.02
3709.24
3558.97
3692.03
4481.91
224013
171202
123656
62360.8
50642.6
48897.4
46487.1
40372.6
34174.4
27599.3
21749.8
17309
13656.6
10695.2
8479.73
6825.29
5573.14
5051.59
4734.06
5004.83
777172
649680
370574
225662
248698
287264
283370
239807
181977
135124
106707
90137.9
83507.2
86026.8
91672
100999
116419
141201
170524
237650
654682
292785
134742
131795
232897
278915
274762
219679
135735
76171.5
50552.2
42543.8
43795.5
48072.4
55447.6
64978
78430.1
98838.1
123652
184436
385019
128935
110775
108463
226346
277689
273367
211229
102716
45661.4
29904.2
31838.9
36585.5
43036.2
50071.6
56631.4
64624.4
76165.5
91724.4
142595
220349
120503
99330.7
80381.4
177048
270719
288255
243116
95957.5
19743.9
20709.3
23136.5
26362.1
30047.9
33714.1
37361.8
41086.8
45669.2
50479.7
72929.6
229330
209683
202604
147407
15637.3
31895.4
34343.8
35634.6
36750.5
38088.3
39403.6
40553.7
41813.3
43676.3
45876.4
54911.6
264807
257827
258178
254345
44823.6
47711.1
46781.1
46044.7
45511.2
45054.6
45067.2
45277.6
45784.5
46599.2
47458.6
49904.5
263807
257388
257443
271701
50287.1
48159.4
47427
46669.2
46015.4
45568.6
45402.4
45235.8
45224.4
45344.2
45677.9
47115.1
223115
206175
199452
229171
41142.7
30527.1
32004.9
32943.8
33865.1
34929.3
35749.4
36097.4
36449.7
37199
38329.4
40691
169504
126726
95899.4
86107.1
15189.5
44763.5
50078.9
40458.8
4280.36
6988.65
11113.9
15310.9
18932.2
21647.9
23573.4
25140.3
27034
29405.1
31252.2
34005.7
126350
71256.3
42432.6
18767.1
31472.3
47165.2
47319.2
29799.8
7141.36
2558.87
3548.68
5809.57
8705.44
11400.1
13921.4
16858
19895.2
22562.3
24325.7
27355
98491.7
47101.9
28311.1
19803.9
33761.1
46160.6
46541.3
31412.3
11350.9
3626.79
2010.02
2277.84
3193.8
5026.84
7792.38
10988
13847.7
16197
17875.6
21529.9
82951.8
39167.1
30278.6
22455.8
35208.2
45321.5
45766.7
32401
15527.1
6001.7
2309.43
1575.96
1759.23
2680.18
4468.41
6723.21
8883.75
10805
12745.6
17028
77487.9
40553.4
34567.4
25755.3
36300.9
44714.2
45120.3
33365.5
19171.2
9023.81
3322.91
1772.24
1892.05
2286.12
2961.41
4006.18
5256.3
7046.64
9172.42
13343.8
80396.7
44953.4
40326.6
29200.2
37422.6
44338
44680.8
34516.2
21961.4
11811.8
5257.89
2734.11
2324.49
2323.29
2355.18
2578.03
3352.51
5005.51
6849.43
10382.4
86235.1
52400.9
47260.4
32516
38555.7
44396.5
44563.8
35400.5
23911.6
14362.6
8091.52
4600.85
3082.77
2406.4
2267.65
2400.45
2981.81
4126.65
5383.61
8181.36
95220.9
61406.8
53953.7
35907.1
39648.7
44645.3
44502.7
35799.7
25461.9
17294.8
11354.7
6980.16
4250.85
2741.79
2439.53
2581.5
2972.02
3529.64
4325.33
6498.47
109496
73447.4
61207.7
39349.6
40898.5
45158.1
44535.9
36193.6
27340.9
20336.8
14292.5
9282.45
5648.62
3647.74
3136.98
3030.77
3096.81
3305.32
3688.05
5366.38
132917
91576.5
70869.3
43651.4
42683.1
45964.6
44736.6
36997.1
29698.5
23049.6
16712.8
11314.8
7553.59
5438.23
4466.59
3781.43
3402.49
3437.37
3700.7
4928.28
161224
114449
83566
47934.8
44725
46866.8
45147.7
38218.2
31586.9
24868.7
18433.6
13311.9
9742.07
7419.78
5907.41
4782.73
3951.37
3810.28
3967.31
4820.2
226744
173807
128759
66494.3
52658.4
49335.1
46696
40742.3
34509
28020.9
22169.2
17686.1
14063.5
11182.8
8970.86
7245.32
5930.01
5386.83
5087.83
5396.59
778268
666584
397186
236724
248244
286057
282842
239711
182931
137800
109726
92738.1
86379.3
88893.1
94487.4
103969
120006
145591
175621
242829
669128
328851
140924
134085
229613
276430
273040
218859
136524
77754.2
53253.5
45200.3
46457.4
50600.9
57867.8
67792.3
82222.3
103760
129574
191586
414064
136067
114225
109736
223352
274919
271384
210597
104600
46792
32112.8
34517.4
39351.6
45473.6
52212.1
59208.1
68235.3
81195.1
98275.5
151581
235115
124305
101984
82214.7
176715
270839
288884
243890
97830.1
20675.8
21749.2
24366.7
27929.8
31964.6
35841.4
39634.3
43674.8
48674.7
54191.5
79731.4
232095
209137
202947
149739
17174
33188.7
35381.7
36657.8
37876.5
39341.5
40767.4
42058.9
43499.5
45639.2
48168.4
58596.1
265430
257890
258189
256046
46317.5
49127.8
47979.4
47117.3
46451.7
46074.8
46168.6
46524.7
47188.5
48161.5
49120.9
51968.2
264790
257585
257533
273547
51772.6
49584.6
48583.9
47721
47040.8
46578.9
46300.2
46287.9
46408.5
46715.7
47174.7
48840.9
223957
205922
198985
231232
42556.3
31530.6
32986.4
33912.2
34754.1
35591.9
36332
36948.4
37598.6
38551.8
39683.4
42113.2
170490
126421
95104
86325.8
16060.1
44832.9
50129.6
40380.7
4508.91
7120.07
11549.7
15741.2
19224.9
22086.8
24334.6
26288.1
28273.9
30368.9
32155.2
35337
128825
72018.6
42459.1
19242.3
31848.8
47080.9
47273.8
29997.6
7422.73
2716.02
3621.77
5905.68
9063.95
12114.1
14975
17914.7
20542.3
23167.9
25281.6
28964.7
101713
49508.6
30283.7
20654.4
33932.1
45982.8
46371.3
31624.8
11833.5
3733.23
2096.48
2419.65
3567.6
5682.48
8476.14
11428.4
14242.7
16887.3
19040.6
23186.5
85888.4
41841.1
32748.9
23655.5
35479.1
45155.2
45632.7
32689
15976.1
6141.5
2433.9
1831.37
2067.45
3026.58
4733.05
6989.24
9334.34
11688.4
13978.7
18391.7
80690.5
43256.1
37129.8
27241.5
36756.7
44504.2
45114.9
33680.8
19485.5
9401.7
3662.89
2074.07
2171.02
2493.51
3179.49
4352.03
5910.31
8076.59
10276.1
14435.1
83551.1
47590.5
42607
30825.1
38029.7
44414.5
44735.9
34691.9
22364
12501.6
5883.73
3079.98
2534.32
2612.51
2743.33
3115.38
4113.63
5878.43
7672.13
11367.7
89300.5
54874.2
49137.1
34252.2
39268.3
44622.8
44708.5
35577.4
24614
15364.3
8798.61
4914.53
3333.91
2810.65
2746.27
2909.81
3518.41
4643.64
5965.62
9092.61
98254.8
64039.7
56083.1
37754.1
40510.8
45107.6
44843.2
36301.7
26541.9
18345.4
11879.6
7318.63
4647.1
3305.83
2967.84
3059.2
3319.8
3823.35
4743.03
7325.8
113058
76781.8
64133.2
41470
41954.8
45872
45083.3
37011.3
28522.2
21080.1
14774
9802.57
6354.51
4443.4
3716.2
3404.56
3409.36
3623.58
4112.39
6126.12
137518
95834.7
74873.9
46076
44022.7
46920.2
45537.6
38034.6
30643.1
23753.8
17467.6
12277.7
8638.45
6371.58
5062.02
4157.43
3753.59
3832.83
4189.45
5571.88
167142
119795
88686.9
50812.1
46360.7
47994.4
46141.3
39284.3
32475.5
25882.4
19633
14611.7
10921.8
8325.46
6587.4
5338.37
4458.61
4344.56
4518.84
5411.11
234036
181185
136337