/*--------------------------------*- C++ -*----------------------------------*\
  =========                 |
  \\      /  F ield         | OpenFOAM: The Open Source CFD Toolbox
   \\    /   O peration     | Website:  https://openfoam.org
    \\  /    A nd           | Version:  9
     \\/     M anipulation  |
\*---------------------------------------------------------------------------*/
FoamFile
{
    format      ascii;
    class       surfaceScalarField;
    location    "0.009";
    object      phi;
}
// * * * * * * * * * * * * * * * * * * * * * * * * * * * * * * * * * * * * * //

dimensions      [0 3 -1 0 0 0 0];

internalField   nonuniform List<scalar> 
28500
(
-88.225
-88.3023
10.0313
-94.5996
-132.142
9.74208
-145.353
-230.719
3.66307
-115.041
-277.606
-1.30468
-53.1882
-283.288
-1.37819
-0.875537
-284.749
-2.52946
53.6686
-281.074
-1.55111
123.733
-286.553
-1.73119
188.39
-273.2
-0.306236
235.728
-236.431
0.845143
267.199
-194.678
0.157605
288.353
-159.248
2.97652
302.928
-139.819
4.36847
313.033
-121.327
1.49162
323.812
-106.264
2.71168
335.243
-99.8311
6.0167
342.122
-90.8644
10.187
343.552
-81.4119
9.20652
341.361
-71.8892
8.4952
-61.0051
6.83149
-130.522
-92.4857
10.709
-213.384
-211.999
8.29516
-198.422
-236.718
-1.07534
-137.507
-272.701
-4.81605
-57.818
-281.056
-1.72223
0.335217
-284.341
-2.57986
58.1388
-281.426
-1.29009
141.005
-285.865
-1.1723
228.86
-260.4
-0.878919
289.433
-202.465
3.48035
322.08
-164.792
1.65739
345.074
-133.293
2.73349
366.551
-119.256
5.15408
383.044
-109.144
4.87456
399.443
-103.512
6.19709
416.253
-102.818
5.63397
426.513
-96.0065
6.46792
427.527
-85.074
7.04459
421.453
-69.0203
7.79823
-44.6003
7.2911
-230.089
-139.511
7.40904
-237.454
-197.197
2.53088
-224.122
-222.339
-2.0192
-147
-62.6845
-5.85349
-63.8686
-64.0173
-65.0638
-62.7785
-69.4304
-1.4704
-70.0414
-70.3883
-70.7858
-0.450026
-70.3329
-2.13486
-69.7333
-70.9926
-70.3367
63.3447
-69.4719
-1.92846
-69.7628
-70.0173
-70.3114
152.135
-69.7873
0.241968
-70.0431
-70.3574
-70.7732
249.322
-63.5152
-1.52725
-53.1512
-64.6521
-54.4348
316.454
-172.872
-0.32328
365.731
-163.287
9.77953
408.985
-161.845
-2.588
443.089
-160.322
-3.55644
468.483
-153.897
-3.80343
490.529
-149.546
3.15513
507.279
-143.445
4.44531
517.445
-137.413
1.83483
519.571
-125.185
-0.380787
516.213
-112.592
0.0693467
-68.4058
1.86483
-276.831
-113.354
3.23154
-271.93
-137.473
2.92774
-63.9061
-146.917
7.91014
-64.6346
-63.494
-64.7202
-57.6493
-56.055
-1.39057
-26.0692
-1.33508
44.2141
-16.9759
-16.857
-16.8723
-16.9324
16.8279
-7.54627
-0.218161
-17.6731
-17.5595
-17.5959
-17.6696
0.103769
7.43566
-0.471951
-17.4359
-17.1775
-17.1978
-17.4128
-16.6622
25.9033
-0.236778
-17.6443
-17.2895
-17.3235
-17.5975
-47.1065
60.3277
-59.9115
-0.905886
474.056
-124.814
-5.44126
-86.6077
-112.522
-86.7774
-112.507
515.003
-131.929
0.466406
535.4
-133.638
-2.70881
545.866
-130.497
-2.68191
553.167
-123.921
-2.54192
559.312
-118.017
-2.27281
563.69
-112.393
-1.33015
565.808
-105.467
-0.942993
566.328
-97.7583
-0.992297
565.176
-91.1708
-0.61623
-66.204
0.894358
-283.558
-53.8377
-1.1257
-281.376
-58.3798
-1.31354
-69.8186
-63.2075
-0.428026
-70.2371
-70.1428
-70.7274
-25.7835
0.394964
44.7339
-17.2785
-17.4992
-17.737
-17.3307
6.28595
31.2402
-7.58521
-0.428421
586.012
-66.276
-1.02908
-143.356
-145.318
-144.59
-146.722
591.42
-65.4264
-2.12769
595.97
-63.3596
-1.69683
599.081
-61.3306
-1.92504
601.111
-59.2432
-1.37839
602.624
-56.4747
-0.697351
603.776
-53.8838
-1.80146
604.173
-51.2737
-3.08323
603.066
-49.3976
-3.26358
600.795
-48.1042
-2.54775
-44.1287
-1.5308
-286.363
-1.05746
-1.72218
-285.801
-0.11845
-1.98599
-70.5588
-0.819767
-2.16183
-70.4412
-71.1965
-70.7868
16.8638
-7.62077
-0.526967
-17.604
-17.6932
-17.7088
-17.5487
3.44774
36.4461
-2.47175
-0.170583
591.619
0.313922
-1.97831
-146.354
-147.47
-147.796
-148.876
592.109
0.119019
-2.26703
592.135
-0.193239
-2.22382
591.845
-0.294289
-2.31193
591.428
-0.719813
-2.58972
590.957
-0.999385
-2.84203
590.267
-1.03533
-2.67196
589.338
-0.99022
-2.33359
588.024
-0.776753
-1.96866
587.101
-0.36967
-2.04712
1.54737
-1.94051
-282.106
53.9735
-2.16475
-282.081
58.1947
-1.9908
-69.6677
63.5658
-2.48262
-69.8234
-70.1698
-70.404
0.123259
7.38194
-0.75553
-17.5028
-17.2789
-17.2947
-17.4834
-0.0369835
36.5486
0.819234
-0.184045
592.144
63.0406
-1.87121
-147.005
-147.091
-148.386
-148.501
592.857
61.9817
-1.68371
593.381
60.2023
-1.33138
593.871
58.2628
-1.68586
594.362
56.5558
-2.35161
594.928
54.2908
-2.4678
595.541
52.568
-2.04019
595.714
52.1464
-1.67227
595.84
51.1649
-1.67778
595.915
50.8351
-2.08816
49.5104
-2.19623
-287.983
124.521
-2.44353
-286.908
141.959
-1.79213
-69.8847
152.536
-0.57846
-70.0071
-70.5331
-70.7811
-16.6877
25.9707
-0.351902
-17.561
-17.4222
-17.4191
-17.4256
-3.48942
36.7191
4.71101
-0.177684
596.002
165.632
-2.08997
-147.087
-146.884
-148.47
-148.251
599.123
157.917
1.05178
600.417
152.849
-0.874568
601.547
145.679
-4.78949
602.076
138.341
-4.86417
601.647
132.499
-1.293
601.593
126.056
0.790828
601.586
120.405
-0.924763
600.987
114.63
-4.30826
600.685
109.86
-4.54969
102.908
-2.71812
-273.469
189.398
-2.52516
-260.01
230.736
-3.57494
-63.1179
251.831
-4.7495
-53.0867
-64.8851
-54.7589
-46.6857
-59.5737
62.1424
-1.46232
7.72846
-6.57277
34.909
-0.189397
3.42684
-2.45054
35.5653
-0.269934
-0.080174
0.869721
35.6654
-0.220414
-3.56392
4.76695
35.9266
-0.192533
-8.10418
-9.80646
120.029
127.151
-1.96243
-14.641
-7.40293
-13.9385
-15.6089
-12.2848
-16.6187
558.05
323.114
13.6257
-133.378
-118.184
-133.909
-117.895
574.122
273.585
-11.3939
582.288
253.158
-12.7116
589.257
236.023
-3.46633
596.148
220.172
6.27164
599.875
207.295
6.42426
602.386
195.299
-0.699214
603.919
183.141
-7.95106
604.297
172.643
-6.32707
604.705
164.905
0.0897627
152.535
1.07172
-235.731
236.476
-2.25429
-202.188
290.727
-1.50251
-173.16
319.605
-5.54417
-128.282
472.784
-7.32199
-88.3464
-114.671
-87.6925
-112.218
-66.4481
574.956
-4.38387
-141.227
-142.121
-142.355
-143.98
1.13341
579.83
-4.43173
-143.176
-144.092
-145.074
-145.905
66.0891
580.67
-4.14977
-143.624
-144.047
-145.455
-145.937
172.162
584.793
-3.73738
-144.649
-145.036
-146.628
-147.409
305.56
552.005
9.56695
-134.562
-122.325
-136.414
-123.858
447.268
453.314
-24.0635
506.746
366.941
-26.2684
536.992
330.098
5.38908
550.069
304.473
16.2067
563.528
283.168
8.83875
576.889
268.663
-5.94469
583.415
251.46
-13.7358
589.121
238.997
-8.80979
595.175
225.156
3.67128
597.361
216.28
5.91049
199.81
1.17498
-194.081
267.784
-3.64796
-165.633
323.485
-4.70734
-167.414
366.435
2.08335
-135.327
509.056
-4.31854
-64.5475
580.302
-4.83197
1.29936
580.459
-4.52798
64.0315
581.319
-3.92956
161.222
586.539
0.288356
263.89
567.497
-9.3156
352.638
507.323
-27.235
435.99
443.778
13.8868
479.452
388.351
32.1438
505.854
356.37
6.35098
525.048
331.727
-16.2454
538.666
318.319
-22.3008
551.731
303.637
-12.0694
567.355
290.279
6.25789
576.238
275.085
13.3079
583.548
264.793
3.49663
242.416
-2.96272
-159.703
288.793
-0.770619
-131.825
346.247
-3.12606
-160.008
405.118
-8.17662
-133.176
526.028
-8.74073
-62.5526
584.656
-3.44596
0.960217
580.736
-4.51223
61.5438
581.92
-3.82943
153.561
587.124
-1.63019
247.161
574.054
-13.5274
320.714
535.616
2.14943
379.061
488.153
31.6411
439.53
449.774
13.9296
471.154
409.583
-31.5475
481.188
369.974
-33.1491
501.658
359.035
-13.7767
523.574
348.386
10.6243
539.199
336.18
19.3563
552.485
320.391
8.23225
561.776
305.368
-7.87839
280.816
-5.89036
-139.201
302.943
0.825637
-117.627
365.541
-0.216963
-156.967
437.998
-6.20127
-128.792
536.504
-6.57857
-60.65
587.763
-3.59864
0.636464
580.587
-4.76628
59.1233
582.654
-3.6602
145.154
587.857
-6.0358
230.265
578.251
-5.93743
300.035
546.458
15.341
352.67
513.27
10.6981
404.62
485.301
-28.2897
438.009
448.159
-41.1276
458.994
402.712
-13.8569
479.036
382.527
15.0898
494.387
371.243
19.4016
512.965
366.156
8.60094
526.855
348.928
-11.7006
536.305
339.321
-13.3934
316.597
-3.11599
-120.715
312.816
-2.04641
-109.663
381.645
-1.24705
-152.565
464.372
-6.71498
-122.889
544.429
-4.95173
-58.1883
589.865
-2.8695
0.154036
580.168
-5.14779
57.0292
583.373
-4.03781
136.588
588.213
-6.37795
214.768
583.059
4.77612
279.704
557.197
10.0872
333.332
528.977
-12.6836
372.963
494.013
-31.0627
399.569
470.854
-12.7173
422.916
432.643
18.4497
443.365
401.021
22.5665
464.378
386.007
7.00122
481.006
381.21
-13.2046
489.429
368.621
-19.0472
506.043
367.476
-6.61983
346.878
4.39588
-106.147
323.759
-0.983169
-104.801
398.331
0.434031
-148.555
485.898
0.556019
-116.979
549.919
-4.29636
-55.2468
591.34
-2.4577
-0.214138
579.464
-5.30992
54.6379
584.314
-4.2835
130.143
588.122
-2.69439
201.515
585.122
5.45322
264.086
567.235
-4.61098
317.468
538.231
-21.0952
363.097
510.307
-13.5547
386.377
490.228
16.1551
398.34
457.929
25.844
419.499
429.127
10.0034
441.169
406.019
-14.2386
449.92
394.213
-20.9832
461.685
387.493
-9.67866
481.836
391.384
9.37879
373.15
11.1063
-100.252
335.483
1.9454
-102.811
415.055
0.386153
-142.073
500.805
2.34097
-110.754
553.1
-3.26887
-52.7667
592.4
-4.06608
-0.304976
578.492
-5.09187
52.8948
584.926
-4.06713
123.452
588.706
-0.376903
189.185
586.713
-1.73279
245.642
571.343
-13.9787
299.743
546.575
-13.0072
348.415
526.884
10.7405
375.768
503.213
23.6564
388.191
476.488
13.2163
403.278
450.703
-10.9084
419.137
423.046
-20.2355
435.25
410.928
-9.24839
455.507
407.58
12.1348
464.945
410.939
19.3285
395.539
12.2352
-92.1058
342.602
6.33641
-96.0146
425.259
2.29267
-134.836
509.997
0.206779
-103.263
554.727
-2.995
-50.1156
592.495
-5.4353
-0.400148
577.354
-4.91796
52.4263
585.006
-3.89024
117.767
589.412
-1.91936
176.932
588.21
-9.12398
232.24
575.402
-10.1914
284.361
558.93
4.24582
333.221
538.171
19.503
366.274
516.886
13.7159
381.686
488.305
-6.24812
395.399
456.444
-16.2938
410.574
438.23
-8.7515
433.143
435.373
13.6823
451.704
430.986
26.9155
457.802
427.584
20.733
411.966
7.83507
-82.6534
343.923
6.13091
-85.3573
426.494
4.01324
-121.786
512.213
-1.4545
-95.5842
555.33
-3.02786
-48.4617
591.12
-5.31494
-0.213765
575.911
-4.77904
51.3436
585.045
-3.66535
112.133
589.5
-5.36004
166.753
589.044
-7.71257
218.359
580.609
1.33131
268.485
565.68
11.0594
316.797
546.729
9.06292
348.378
526.698
-7.04318
368.161
494.703
-13.9794
388.547
465.996
-6.75069
407.428
454.298
12.9771
426.748
450.435
24.8693
442.475
444.966
23.2139
449.357
437.578
9.25365
425.575
2.30737
-72.8805
341.445
5.661
-69.4705
420.399
5.13597
-108.83
509.236
-1.06503
-88.9577
554.394
-2.5339
-47.1059
588.771
-4.55577
0.134365
574.995
-4.82306
50.5138
585.085
-3.80354
107.205
589.288
-5.79896
159.628
590.321
-2.06454
209.568
582.937
3.29792
257.875
571.287
1.97022
300.174
553.773
-7.18967
335.887
534.424
-10.9339
363.366
507.909
-3.32053
386.379
483.15
12.2032
406.041
461.628
20.8364
423.314
453.716
20.6097
435.962
446.163
10.577
441.637
439.669
0.421212
435.109
4.93092
-60.9196
4.86131
-44.3445
5.16565
-66.2858
0.752764
-64.1422
-0.749393
-42.7495
-3.39761
1.98356
-4.49993
48.8123
-3.91978
100.227
-4.14282
147.907
-0.91422
193.967
-0.768971
236.248
-4.21079
274.837
-6.37431
310.828
-2.77637
340.81
5.46279
366.583
12.7939
389.247
14.2781
406.924
8.70252
422.307
2.39565
433.17
4.37295
11.5648
-89.6114
-89.2809
10.6783
-98.1515
-139.164
13.4751
-148.906
-240.111
11.2951
-117.098
-284.387
3.34131
-52.9939
-288.298
-1.16009
-0.195631
-290.537
-1.55151
54.3577
-286.09
-1.18088
124.709
-292.054
-1.397
189.958
-277.844
0.199798
237.427
-240.345
3.44398
268.825
-197.9
2.75671
290.447
-161.496
4.95071
304.935
-141.631
7.8873
314.417
-122.627
5.16646
324.931
-106.798
5.77848
336.45
-100.045
8.9107
343.614
-90.8971
13.6402
345.073
-81.0575
12.5438
342.661
-71.3098
12.3821
-60.189
9.24535
-136.478
-95.9266
13.6435
-217.184
-218.457
23.7156
-199.251
-244.48
2.2519
-135.502
-280.827
1.06405
-57.0905
-287.557
-1.46522
0.634308
-291.071
-1.53185
59.0113
-287.399
-1.152
141.958
-292.227
-0.749171
230.586
-266.128
0.0475054
292.625
-205.728
4.85223
325.984
-169.523
6.18377
349.498
-136.464
7.10377
371.326
-121.163
11.0654
387.217
-110.098
9.29947
403.011
-103.929
10.0749
420.17
-103.651
10.0543
431.086
-97.2528
12.5761
432.157
-86.2271
12.7443
425.851
-70.2066
14.144
-44.579
12.6535
-237.15
-145.6
13.8829
-242.078
-200.989
4.00465
-224.881
-227.472
-2.65313
-145.748
-65.5163
8.22954
-66.6346
-66.1048
-67.6743
-61.5843
-72.0839
-0.228845
-72.5341
-73.1155
-73.4098
-0.454696
-72.5646
-1.84909
-71.6809
-73.4387
-72.4557
63.7192
-71.395
-1.87528
-71.61
-72.1208
-72.357
153.272
-71.726
0.303984
-72.1356
-72.4615
-72.7898
251.258
-65.7449
2.69183
-55.8277
-65.7599
-55.761
320.901
-175.819
0.0776665
374.636
-164.85
15.26
419.039
-164.514
6.67798
451.575
-162.842
6.62498
475.628
-156.095
3.11004
496.666
-151.37
7.55254
514.191
-145.297
8.44779
525.35
-139.659
7.50925
527.825
-128.617
6.29884
524.477
-116.42
7.49279
-72.1073
9.30023
-281.177
-116.056
5.6411
-275.732
-138.811
1.09444
-64.0542
-148.503
7.02887
-65.3667
-64.7865
-66.2103
0.977292
-56.9963
-58.1315
-1.05895
1.46102
-25.3536
-0.567357
44.5709
-17.9845
-18.4319
-17.8141
-18.6011
0.285251
16.6931
-7.56842
-0.310262
-18.126
-18.171
-17.994
-18.3092
0.518012
0.113512
7.47775
-0.45406
-17.9566
-17.6139
-17.8421
-17.7161
0.160781
-16.7843
25.935
-0.185739
-18.1709
-17.773
-18.089
-17.8741
-47.065
-0.220319
60.4579
-62.0054
0.293654
485.398
-126.718
4.25249
-88.1067
-113.941
-89.5266
-117.689
525.719
-132.566
6.90839
546.203
-135.081
2.72999
555.853
-132.017
4.32899
562.376
-125.237
4.80453
568.188
-119.086
4.74358
572.513
-113.514
4.65708
574.5
-106.881
4.87087
574.858
-99.1386
4.76375
573.465
-92.7249
5.55305
-68.8831
8.41842
-287.792
-53.966
-0.428873
-286.611
-58.9522
-1.3868
-71.0734
-63.6843
-0.421425
-71.9086
-71.724
-72.4906
-0.677508
-25.934
0.266639
43.9574
-17.3695
-17.065
-17.2667
-17.1433
-0.0338693
6.07693
31.0934
-7.61143
0.126732
597.67
-66.2956
2.95538
-146.689
-148.743
-148.111
-149.759
602.197
-65.6047
2.06419
606.16
-63.4488
2.3727
608.924
-61.2278
1.9975
610.679
-59.228
2.25251
611.945
-56.5811
3.36865
612.847
-54.0286
2.8941
613.146
-51.5146
1.68978
612.054
-49.454
1.34981
609.619
-48.2419
2.33897
-44.7322
4.16635
-291.056
-0.963892
-0.885587
-291.443
-0.0913224
-1.20789
-72.6331
-0.599646
-1.59974
-71.8547
-73.486
-72.3993
0.423426
16.8911
-7.62002
-0.278947
-18.2465
-18.1285
-18.1781
-18.2687
0.0296594
3.37574
37.2781
-2.41925
0.0120981
603.23
0.50027
1.36727
-149.811
-150.854
-150.802
-151.849
602.878
0.372554
1.26618
602.315
0.0656854
1.31944
601.539
-0.0620659
1.41338
600.771
-0.51456
1.30755
600.139
-0.930926
1.18253
599.279
-0.752687
1.30849
598.134
-0.659503
1.7414
596.532
-0.44264
2.50616
595.254
-0.343266
2.63099
1.33688
2.93045
-286.929
54.0772
-0.698742
-287.707
58.3927
-0.533537
-71.4158
63.3791
-1.20346
-71.6176
-72.0919
-72.3404
0.626824
0.148728
7.34571
-0.398235
-17.9709
-17.6721
-17.8709
-17.7501
0.034672
-0.0390587
37.3735
0.809578
0.0147781
604.045
63.3654
1.91417
-150.413
-150.55
-151.444
-151.628
603.899
62.2711
1.86854
603.851
60.8367
2.42498
603.975
58.7734
2.56505
604.204
56.6112
2.10721
604.448
54.5965
1.68701
604.645
53.0042
1.87833
604.737
52.5446
2.51436
604.721
51.9072
2.92852
604.579
51.0001
2.84303
49.6067
2.73539
-292.931
124.805
-1.11846
-292.731
142.191
-0.42272
-71.7931
152.928
0.352952
-72.0713
-72.4663
-72.7335
0.273215
-16.6206
25.7665
-0.178293
-18.0607
-17.8298
-18
-17.9345
0.0284995
-3.42158
37.4863
4.61203
0.0292656
607.805
166.518
1.03244
-150.56
-150.301
-151.687
-151.794
610.617
159.101
4.95861
611.644
152.747
4.77352
611.956
145.964
1.07931
611.879
138.331
-1.08763
611.368
133.2
1.41376
611.371
127.076
5.01642
611.269
121.046
4.99113
610.268
115.071
2.10968
609.588
110.189
0.337616
103.466
1.86004
-277.971
190.385
-1.77389
-265.423
231.723
-2.35096
-64.9896
252.642
0.0126081
-55.05
-65.7661
-55.6537
-46.311
0.574747
-61.4644
61.5863
-0.340494
0.104477
8.40902
-7.28516
34.9004
-0.318258
0.269484
3.36229
-2.39558
36.7691
-0.252995
0.21669
-0.093281
0.869562
36.8292
-0.199551
0.193826
-3.52007
4.68955
37.1289
-0.182574
-7.45104
-11.3353
0.978313
119.789
130.926
-0.402374
-13.895
-7.41692
-13.8543
-16.6956
-11.5279
-16.7831
570.178
333.255
20.4548
-135.017
-118.627
-136.102
-120.132
584.56
276.009
-0.0680829
591.733
252.642
-8.32432
597.709
235.981
-3.19861
605.462
222.145
7.39939
609.724
209.052
12.1326
611.623
196.146
8.43394
612.297
183.546
-0.145443
612.478
172.365
-2.5173
613.26
165.668
2.87245
153.901
5.85301
-240.193
238.116
0.578239
-205.751
293.379
0.0842563
-174.255
322.654
-4.69398
-127.938
484.582
-1.78254
-88.9295
-116.012
-89.4888
-117.435
-66.2945
591.85
-2.48902
-145.617
-147.111
-147.266
-148.797
1.45329
597.646
-3.4969
-148.27
-149.123
-149.945
-150.903
66.6268
598.711
-2.88081
-148.714
-149.169
-150.511
-150.963
174.557
602.844
-3.85947
-149.944
-150.774
-151.828
-152.533
313.46
571.361
15.0554
-139.149
-126.088
-141.454
-127.117
458.047
469.482
-1.46603
513.797
372.282
-27.692
545.903
333.929
-1.00666
562.727
311.159
18.6672
574.528
287.749
20.0314
585.9
270.314
8.10263
591.977
251.528
-5.43206
596.453
238.413
-6.70057
603.701
227.071
3.62008
606.982
217.864
11.0824
201.874
8.75389
-198.064
269.494
-0.412074
-170.703
326.982
0.313223
-166.683
374.976
8.06727
-134.053
522.431
1.54955
-64.8923
595.906
-3.51841
1.53679
596.713
-3.56355
64.4449
597.754
-3.07449
162.978
603.392
0.746708
265.908
583.192
-1.78679
356.386
518.574
-28.9551
441.039
450.807
-3.99188
493.349
397.608
36.0399
517.562
363.554
28.5879
535.214
335.478
3.23324
548.022
318.708
-14.3289
558.752
303.616
-12.1103
575.209
293.036
3.59989
586.642
277.84
18.1635
592.218
267.201
14.3716
244.26
6.00652
-162.804
291.1
1.06513
-136.123
350.312
1.84698
-162.135
416.105
0.633635
-134.47
540.443
-4.69981
-62.8121
599.278
-2.55019
1.33654
595.72
-3.54709
62.3553
597.004
-2.5969
154.232
603.466
0.600318
247.728
588.211
-11.3498
323.244
546.35
-5.49733
386.926
500.061
33.7967
445.99
455.467
42.1408
479.435
415.591
-4.89984
488.878
374.398
-24.5576
506.631
361.008
-15.2835
530.866
352.73
7.84042
549.285
340.99
25.0995
559.664
323.698
23.198
568.518
307.747
4.81084
281.868
0.732919
-142.225
305.275
4.07293
-120.636
370.649
5.74801
-160.036
447.717
4.13468
-130.85
549.984
-1.94216
-60.5986
601.658
-2.52119
0.998294
594.617
-3.6821
59.7841
596.813
-2.33489
146.158
602.905
-3.42255
231.272
591.227
-7.756
304.858
560.741
14.7881
357.382
523.876
27.8086
408.22
491.587
-3.46418
442.331
452.244
-35.8084
464.414
407.882
-18.0134
487.89
390.861
14.532
503.495
377.484
31.8535
519.56
369.638
28.0617
533.111
351.433
7.04369
542.987
339.942
-6.12647
318.278
2.05176
-123.549
314.135
2.18004
-111.881
386.576
2.80998
-154.745
472.355
-0.598732
-124.634
556.764
0.406708
-58.3967
603.147
-2.10614
0.44218
593.452
-4.01893
57.3767
597.018
-2.70309
137.53
602.283
-5.84427
217.753
596.597
2.98376
283.686
570.952
17.4788
335.08
539.047
3.10865
375.084
500.014
-24.6042
404.568
474.725
-17.4112
432.249
440.583
19.2966
453.567
410.452
41.5872
471.694
389.268
33.9461
488.563
382.251
9.2086
496.984
368.534
-7.9978
511.71
368.292
-1.78561
349.496
11.3288
-107.789
324.497
2.86746
-106.102
402.46
4.32673
-150.307
492.946
3.34589
-118.455
561.865
1.18969
-55.6032
604.178
-1.1165
-0.087244
592.36
-4.06895
55.2257
597.262
-3.03859
131.679
601.497
-3.22646
204.379
599.532
8.38269
266.396
580.043
6.11272
318.236
548.621
-15.2029
364.069
514.927
-15.9126
393.095
497.173
15.767
407.26
465.787
43.2748
424.987
435.041
38.4249
446.1
408.518
10.6778
455.677
395.16
-10.2063
465.767
388.268
-4.66847
487.532
393.072
15.1912
375.358
22.1436
-101.042
336.121
5.15762
-104.484
419.262
5.13837
-143.916
509.065
5.36621
-112.43
565.041
1.49255
-53.1161
604.813
-1.91308
0.0557447
591.084
-3.78533
53.5168
597.208
-2.78584
125.396
601.839
0.66533
191.686
600.62
4.74525
247.507
583.586
-7.89785
300.813
555.863
-14.0837
351.925
534.146
6.91268
380.865
511.328
33.4593
391.272
482.273
37.7001
404.702
456.406
13.0532
421.26
425.929
-10.5521
436.599
412.052
-6.15116
457.536
408.575
14.91
469.894
412.33
30.5732
396.492
24.445
-92.5541
343.745
9.90601
-97.9339
430.084
8.53988
-137.881
519.501
5.5014
-105.47
566.39
1.96537
-50.6159
604.748
-3.08801
0.00283192
589.605
-3.29186
52.8591
596.829
-2.17967
119.205
602.177
0.798016
178.95
600.842
-3.90379
233.321
586.581
-9.86134
287.614
568.926
0.740929
337.12
548.171
23.8163
369.993
523.379
30.7824
383.581
494.919
14.1414
396.462
462.988
-5.93209
412.403
440.065
-5.09358
434.873
436.575
15.5707
454.869
432.46
34.8689
460.362
427.93
33.0513
412.233
17.5346
-82.5903
345.393
9.78021
-87.062
431.416
9.86643
-126.442
522.056
5.2742
-97.6931
566.638
1.99809
-48.5953
603.38
-3.13065
0.0862861
587.813
-2.57967
51.9536
596.448
-1.44202
113.227
601.663
-2.05993
167.938
600.948
-6.21085
221.268
592.353
-0.225569
271.519
577.859
14.7156
320.269
555.343
21.4814
351.681
533.457
9.01191
369.504
502.161
-4.57539
390.067
471.131
-1.46183
409.224
458.024
17.0797
428.273
454.859
35.6221
443.046
446.819
37.8041
450.85
438.942
20.9711
426.107
9.61445
-72.5081
342.9
10.3386
-71.1372
425.115
11.5415
-114.254
519.016
6.56913
-91.346
565.281
3.05977
-47.4539
600.781
-1.73375
0.109605
586.366
-2.35363
50.8247
596.188
-1.32521
108.195
600.979
-3.57886
161.459
601.897
-1.23292
212.262
595.196
6.77361
261.364
582.224
10.736
303.925
562.151
3.28554
338.09
541.784
-4.98043
365.606
514.022
1.01732
389.13
489.979
18.8365
408.032
467.885
33.9349
423.456
457.92
34.3806
436.044
449.268
22.6215
442.624
441.511
7.66066
435.989
12.3144
-60.4884
8.216
-44.9346
10.6453
-71.2871
8.34102
-67.8918
6.45507
-43.7012
0.69136
1.73381
-1.70034
49.1791
-1.2565
101.399
-1.88658
150.004
1.66924
196.833
4.54414
239.061
2.61441
277.054
-1.2836
313.463
1.46279
344.315
11.9105
369.954
23.9122
391.391
27.3769
407.835
19.9311
422.952
11.0872
433.934
12.8107
22.2089
-96.8838
-95.6272
7.59814
-106.965
-156.171
12.6647
-152.335
-249.036
9.31008
-119.422
-288.152
2.64141
-52.8977
-293.192
-1.18618
0.779898
-296.837
-0.463062
55.6279
-292.062
-0.788316
126.113
-298.433
-1.32485
191.822
-283.475
-0.475233
240.027
-244.558
2.97532
271.669
-201.937
2.11613
293.854
-164.352
3.47369
309.24
-144.779
7.06246
318.408
-126.117
5.39838
328.317
-108.475
5.52708
339.744
-100.95
8.32155
347.982
-92.3808
12.7103
350.602
-82.1225
11.2191
348.493
-71.7874
11.1803
-60.4232
8.24276
-154.666
-102.978
12.7715
-224.018
-222.278
20.0744
-201.433
-250.476
0.478615
-135.085
-283.66
2.07408
-57.1756
-293.642
-1.32634
0.907181
-297.457
-0.320382
59.8407
-293.162
-0.875865
143.616
-298.34
-0.864648
233.36
-271.863
-1.29702
297.029
-208.109
2.64033
331.884
-170.891
4.79217
356.248
-140.917
5.23282
380.365
-125.43
10.3086
396.632
-112.892
8.10164
411.43
-103.417
9.09373
428.495
-102.986
9.38541
442.062
-99.2263
12.468
444.828
-88.8561
12.4334
439.42
-73.2234
13.2546
-46.7185
11.8771
-249.509
-152.254
11.673
-251.183
-203.184
1.17658
-227.022
-230.356
-2.85165
-146.012
-66.6809
9.05265
-68.3666
-66.5911
-68.4179
-61.7337
-74.1119
-0.811904
-74.2029
-74.1622
-74.3146
-0.282557
-74.1369
-0.704641
-73.5035
-74.5693
-73.8828
64.1275
-72.8642
-1.64871
-73.0821
-73.1564
-73.3261
154.908
-73.2678
-0.199219
-73.6204
-73.5165
-73.7326
254.702
-67.1981
0.447869
-57.2488
-66.462
-56.412
324.52
-180.871
-5.13038
382.225
-160.608
14.0249
433.295
-163.872
6.32289
467.576
-165.444
9.29421
490.74
-159.77
4.93458
509.62
-153.793
7.33357
527.545
-147.481
7.67007
541.896
-142.118
7.35529
546.449
-132.652
6.86153
544.562
-121.229
8.07362
-79.6255
9.69143
-286.352
-119.59
4.61574
-280.979
-139.112
0.947451
-65.2635
-149.649
5.62207
-67.0773
-65.8694
-67.3042
1.32768
-57.6223
-59.2944
-1.3911
0.0655156
-24.8867
0.528908
44.3557
-18.3528
-19.0701
-18.3183
-19.1006
0.368068
16.3378
-7.49677
-0.381881
-18.3964
-18.6234
-18.3552
-18.6588
0.468916
0.0561632
7.59258
-0.528525
-18.3136
-18.0488
-18.2651
-18.1002
0.182957
-17.0041
26.2262
-0.146138
-18.5373
-18.1554
-18.4889
-18.2062
-47.5887
-0.257387
61.2886
-63.8723
0.645653
499.966
-130.096
1.61612
-89.9221
-116.524
-91.5485
-122.055
540.889
-131.389
4.96296
564.333
-135.382
2.34206
574.862
-134.304
5.19345
580.009
-127.482
6.56576
585.133
-120.49
6.56386
590.289
-114.862
5.79746
593.312
-108.99
5.60791
594.539
-101.496
5.20058
593.609
-95.0832
5.46636
-73.8018
8.33568
-292.792
-54.193
-0.487924
-292.389
-59.0095
-1.13855
-72.5639
-64.0955
-0.349794
-73.3254
-73.111
-73.7626
-0.231857
-25.9007
-0.0276144
44.5825
-17.7188
-17.4648
-17.6211
-17.5328
-0.0617322
6.07697
32.1783
-7.60181
0.113942
614.882
-66.1748
4.23783
-150.118
-151.934
-153.54
-154.946
619.463
-66.7608
3.56574
624.013
-64.3913
3.74671
627.44
-61.6039
3.40743
629.545
-59.4569
3.2486
630.944
-57.149
4.35776
631.868
-54.6057
4.45992
632.367
-52.2457
3.26347
631.844
-49.9411
2.4163
629.683
-48.6296
2.40845
-45.8961
4.00377
-296.355
-0.771425
-0.214975
-296.212
0.0919719
-0.521931
-74.1349
-0.411
-1.14229
-72.8849
-74.2196
-73.0785
0.261778
16.7943
-7.58199
-0.173315
-18.484
-18.647
-18.4479
-18.681
-0.122694
3.37325
37.8583
-2.41728
0.138401
620.662
0.544749
2.31387
-152.933
-153.997
-155.792
-156.776
620.989
0.290805
2.10219
620.806
0.0789096
2.0557
620.254
-0.0260876
2.2299
619.701
-0.262527
2.17247
619.181
-0.786414
1.97486
618.408
-0.864614
1.92044
617.355
-0.756072
1.97559
615.861
-0.53166
2.53597
614.358
-0.607448
2.65737
0.874912
3.02212
-292.195
54.0406
0.119163
-293.098
58.5393
0.163962
-72.8399
63.5843
-0.369968
-73.0964
-73.0872
-73.3728
0.221325
0.055546
7.54857
-0.0978862
-18.2943
-18.0181
-18.251
-18.0505
-0.135656
-0.053624
38.0389
0.82241
0.15179
621.598
64.0573
3.29873
-153.597
-153.787
-156.373
-156.594
622.196
62.7693
2.83858
622.635
61.3438
3.24255
623.024
59.6016
3.74186
623.35
57.3462
3.57025
623.89
55.2404
2.86029
624.061
53.3381
2.61927
624.318
52.529
2.93549
624.391
52.3882
3.41713
624.311
51.3544
3.5083
49.832
3.37125
-298.311
125.151
-0.0121468
-297.893
142.346
0.548313
-73.1697
153.883
0.850743
-73.4901
-73.4834
-73.8947
0.085706
-16.8838
26.0425
0.0463372
-18.548
-18.147
-18.4738
-18.1921
-0.171318
-3.44021
38.215
4.62838
0.186773
624.88
167.94
1.03735
-154.079
-153.96
-156.913
-157.163
628.564
161.312
4.9499
630.739
153.508
6.62345
631.593
146.892
4.07231
631.057
139.342
0.305904
630.665
133.804
0.655171
631.374
128.492
4.26468
631.917
122.595
6.21127
631.229
116.466
4.37773
629.879
111.614
1.50513
104.645
2.23191
-283.968
190.941
-0.136233
-272.471
231.067
0.357779
-67.0487
251.05
3.1941
-57.3675
-67.4024
-57.5768
-47.3019
0.658981
-63.5027
60.783
0.139434
0.247516
6.00562
-7.60617
32.0061
-0.181582
0.197183
3.33598
-2.37305
37.6768
-0.186273
0.12717
-0.103277
0.874196
37.8189
-0.114415
0.124473
-3.51122
4.68219
38.1117
-0.111294
-9.87282
-8.35165
-0.416268
130.424
126.9
1.47332
-15.1595
-9.90341
-15.2133
-15.5434
-8.52205
-15.4115
590.916
334.564
21.063
-140.632
-125.593
-142.3
-125.361
603.273
278.091
8.68981
610.122
251.416
-4.2781
614.461
234.719
-4.49283
622.158
222.815
4.08414
629.244
211.442
12.1598
632.003
198.908
12.2078
631.954
186.235
4.94414
630.959
173.83
-0.893888
631.977
167.646
1.71407
156.284
5.19392
-245.093
239.816
2.53909
-209.552
294.68
1.74482
-183.344
321.125
-3.79975
-128.605
492.115
-0.0266113
-89.0634
-115.42
-89.3099
-116.866
-64.949
609.112
-1.26443
-148.794
-150.749
-150.928
-152.895
1.47767
615.158
-2.59215
-151.903
-152.993
-153.995
-155.114
65.8625
616.509
-1.79856
-152.601
-152.986
-154.708
-155.14
172.776
620.151
-3.6932
-153.794
-154.579
-155.917
-156.37
330.381
587.16
14.4869
-139.409
-123.934
-143.783
-128.639
482.363
482.252
21.21
532.346
376.686
-25.5389
558.769
330.873
-10.5127
581.983
314.267
13.1972
595.765
293.959
23.1123
606.197
275.23
17.2263
611.133
255.751
2.80442
613.466
239.339
-5.51534
619.216
228.809
0.0299245
626.316
221.32
9.37111
205.439
9.90019
-203.488
271.608
1.79328
-174.154
330.07
3.73609
-164.729
379.041
8.2365
-131.816
534.726
3.9773
-65.1461
613.753
-2.21431
1.54154
615.362
-2.48308
64.4735
616.691
-2.1594
164.772
622.552
0.564523
274.905
599.808
4.16533
370.46
530.589
-27.2395
446.818
449.929
-24.7706
509.834
401.595
30.1761
538.38
371.846
37.6001
555.922
342.899
19.1005
568.1
323.378
-4.01075
575.681
304.459
-11.7705
588.629
294.653
-2.83419
606.256
282.365
14.7607
612.421
271.761
17.677
248.812
9.94252
-167.176
293.795
1.31088
-143.635
354.429
3.2808
-165.579
429.251
3.89365
-135.265
558.223
-2.59352
-62.8792
618.207
-1.51081
1.37955
615.08
-2.44983
62.6177
616.704
-1.65563
155.426
624.246
2.32625
249.655
605.831
-8.36343
324.194
555.229
-13.7836
394.58
508.189
26.7051
457.724
459.492
50.792
496.051
418.995
19.0934
507.87
380.023
-14.2484
519.256
361.822
-16.3217
541.718
353.004
-1.10921
566.868
346.577
20.8967
578.395
329.592
27.9758
586.707
313.599
12.8652
286.005
3.36314
-146.996
309.171
4.15972
-127.845
377.971
6.59626
-167.186
464.01
7.75369
-134.129
569.345
-1.28446
-60.1852
621.643
-1.49506
1.16465
614.546
-2.41277
60.5247
616.968
-1.12836
147.71
624.671
-0.36376
232.502
608.831
-9.70815
309.525
577.45
7.95521
368.121
536.618
32.0042
416.181
496.864
17.4091
451.462
454.521
-26.7127
472.097
410.141
-23.4895
498.695
394.527
1.89923
520.873
386.401
31.3868
536.209
378.389
34.4762
549.46
358.89
18.7119
559.417
343.952
-2.4025
322.078
1.27016
-128.676
317.749
3.30109
-117.136
395.724
3.2727
-161.784
487.922
0.656604
-127.639
575.118
0.87809
-58.1927
623.772
-1.54504
0.876002
613.779
-2.54319
58.2563
617.541
-1.18348
139.383
623.549
-4.16215
220.497
615.292
-1.63198
291.389
591.57
17.0305
342.6
554.87
14.2948
380.15
510.089
-15.9823
408.544
476.017
-22.8211
443
446.451
3.83007
472.988
424.656
42.1793
489.203
401.396
44.1329
506.634
389.762
22.8855
517.638
372.708
-1.99719
526.14
369.882
-2.5346
354.421
9.70777
-111.251
327.327
3.63646
-108.352
411.343
4.34782
-156.034
506.843
1.31681
-120.587
579.904
1.48793
-55.9403
625.133
-0.927193
0.231653
613.059
-2.73146
56.1308
617.958
-1.8458
133.367
622.799
-3.72231
208.829
621.988
6.59536
272.835
601.869
11.4997
323.295
565.692
-7.96466
363.378
521.175
-18.0236
395.891
502.281
2.71886
423.479
478.469
44.4289
444.423
449.738
48.4349
463.392
419.147
26.8044
475.079
399.328