/*--------------------------------*- C++ -*----------------------------------*\
  =========                 |
  \\      /  F ield         | OpenFOAM: The Open Source CFD Toolbox
   \\    /   O peration     | Website:  https://openfoam.org
    \\  /    A nd           | Version:  9
     \\/     M anipulation  |
\*---------------------------------------------------------------------------*/
FoamFile
{
    format      ascii;
    class       volScalarField;
    location    "0.009";
    object      rho;
}
// * * * * * * * * * * * * * * * * * * * * * * * * * * * * * * * * * * * * * //

dimensions      [1 -3 0 0 0 0 0];

internalField   nonuniform List<scalar> 
9720
(
2.27283
2.00432
1.33601
0.910996
0.950992
1.06372
1.06015
0.932384
0.753548
0.59638
0.488835
0.41431
0.385004
0.391468
0.409275
0.439082
0.488672
0.567691
0.660059
0.861798
2.00349
1.17015
0.60147
0.572124
0.884339
1.03346
1.03073
0.867797
0.595757
0.374121
0.262548
0.219818
0.222578
0.237732
0.265702
0.302115
0.351729
0.423265
0.507052
0.699078
1.35422
0.598803
0.51118
0.483944
0.861602
1.02971
1.02572
0.841684
0.474968
0.235938
0.160654
0.16712
0.183868
0.208317
0.236503
0.265917
0.30111
0.34826
0.406948
0.570576
0.914724
0.564801
0.48032
0.396581
0.672981
1.01923
1.07456
0.940291
0.442883
0.111588
0.119279
0.134161
0.152411
0.171649
0.189962
0.207919
0.22614
0.247961
0.269649
0.352545
0.924566
0.853575
0.832454
0.673385
0.0941075
0.187005
0.199168
0.206955
0.213096
0.219469
0.225486
0.230932
0.236818
0.245082
0.254766
0.292591
1.02699
0.999719
0.997055
0.988067
0.251995
0.259297
0.255161
0.252351
0.250065
0.249227
0.249777
0.251399
0.254199
0.258058
0.261888
0.272776
1.02314
0.996288
0.992889
1.04494
0.275133
0.261275
0.257863
0.254985
0.252648
0.251041
0.250161
0.250294
0.250817
0.252119
0.254002
0.26068
0.897699
0.834912
0.809829
0.909444
0.23542
0.181262
0.189743
0.195157
0.199511
0.203554
0.207142
0.210101
0.213023
0.217092
0.221926
0.232318
0.722509
0.566482
0.446063
0.39847
0.0928059
0.238236
0.26002
0.219538
0.0244805
0.0441158
0.0721658
0.0982202
0.119364
0.136305
0.149248
0.159774
0.169714
0.179721
0.188158
0.202617
0.571416
0.354359
0.220204
0.106491
0.17822
0.247111
0.247656
0.172614
0.0468634
0.016452
0.0225911
0.03743
0.058014
0.0780735
0.0962542
0.113842
0.128916
0.143275
0.154465
0.172595
0.467422
0.251361
0.155566
0.11461
0.189244
0.242586
0.243937
0.180932
0.074601
0.0233942
0.0134027
0.0160231
0.0238369
0.0377025
0.0554468
0.0739997
0.0916465
0.108007
0.120861
0.143365
0.396525
0.211737
0.163048
0.130405
0.197125
0.239396
0.24104
0.186364
0.0999696
0.0392954
0.0163058
0.0125289
0.0139157
0.0198862
0.0308281
0.0455483
0.061232
0.0766892
0.0911824
0.116633
0.370699
0.215418
0.179332
0.14892
0.203364
0.236667
0.239002
0.190938
0.120469
0.0606148
0.0248386
0.0139997
0.0144617
0.0162073
0.0206588
0.0286069
0.039049
0.0530329
0.0672626
0.0925106
0.377608
0.231354
0.202031
0.167097
0.209413
0.236677
0.237534
0.195352
0.136565
0.0807505
0.0393458
0.0203686
0.0164686
0.0169107
0.017964
0.0205733
0.0270009
0.0382745
0.0499584
0.0727997
0.39525
0.259248
0.229464
0.184319
0.215024
0.237652
0.237711
0.199349
0.148922
0.0987848
0.0577761
0.0320535
0.0214981
0.0182803
0.0181055
0.0190738
0.0227967
0.0298688
0.0383748
0.057845
0.42357
0.294137
0.259731
0.201785
0.220633
0.239924
0.238488
0.202774
0.159077
0.116353
0.0771027
0.0476693
0.0302158
0.0216499
0.0194081
0.019939
0.0214706
0.0244304
0.0300968
0.0460684
0.470559
0.34054
0.294586
0.220132
0.227097
0.243348
0.239732
0.206166
0.168904
0.131468
0.0950007
0.0640344
0.0415974
0.0289933
0.0239917
0.0219479
0.0220368
0.0232791
0.0262171
0.0382994
0.546555
0.407033
0.339275
0.241701
0.236268
0.247836
0.241866
0.21084
0.178884
0.145477
0.111302
0.0800607
0.0562764
0.0411265
0.032254
0.0265327
0.0240818
0.0245175
0.0265883
0.0345396
0.636469
0.486061
0.393331
0.263263
0.246633
0.252253
0.244554
0.216322
0.18713
0.156264
0.124041
0.0946415
0.0707917
0.0536726
0.0420289
0.0338404
0.0283757
0.0275159
0.028466
0.033653
0.833854
0.673625
0.548857
0.344294
0.285248
0.26466
0.252778
0.227832
0.201658
0.174022
0.146142
0.119998
0.0966069
0.0777388
0.0631018
0.0514133
0.0425276
0.0379793
0.0354301
0.0372488
2.2634
1.95727
1.25907
0.870623
0.951954
1.06846
1.06299
0.933174
0.750785
0.587465
0.477821
0.403543
0.372512
0.37897
0.39693
0.426071
0.473409
0.549594
0.639547
0.841195
1.96173
1.06522
0.578444
0.562094
0.898765
1.04123
1.03539
0.869297
0.591712
0.366158
0.251046
0.208635
0.211288
0.226695
0.254936
0.289904
0.336115
0.403804
0.483968
0.672291
1.28147
0.571761
0.496218
0.478302
0.879592
1.0382
1.03059
0.84171
0.46594
0.228972
0.150591
0.156279
0.172769
0.197738
0.226365
0.254138
0.286005
0.328804
0.383005
0.539708
0.873609
0.548402
0.464083
0.384997
0.717577
1.01981
1.07531
0.939735
0.449393
0.106693
0.114112
0.128083
0.144889
0.16277
0.1801
0.197346
0.214373
0.234731
0.254373
0.329545
0.915253
0.84962
0.822842
0.648207
0.0944093
0.181476
0.193201
0.200353
0.206095
0.21213
0.217735
0.222527
0.227652
0.234925
0.243587
0.277518
1.02473
0.998734
0.996518
0.985376
0.245113
0.252575
0.248595
0.245635
0.243599
0.242193
0.24247
0.243541
0.245741
0.249022
0.252489
0.262169
1.01956
0.995911
0.993493
1.04073
0.267497
0.254485
0.251383
0.24824
0.245534
0.243741
0.243102
0.242502
0.242533
0.243199
0.244768
0.250847
0.894598
0.835434
0.8106
0.908051
0.229171
0.176113
0.184183
0.189138
0.193419
0.197979
0.201495
0.203252
0.205022
0.208442
0.213402
0.223634
0.718727
0.564308
0.441104
0.408738
0.0953491
0.237797
0.259648
0.218219
0.0249143
0.0421262
0.0684981
0.0942704
0.115715
0.131805
0.143409
0.15243
0.16211
0.173073
0.181466
0.194149
0.561701
0.348409
0.216019
0.103723
0.17737
0.246255
0.246787
0.171564
0.0455197
0.0153188
0.0215494
0.035812
0.0548943
0.0733157
0.0897693
0.107222
0.123716
0.137879
0.147568
0.163231
0.454489
0.239566
0.145396
0.111108
0.188709
0.242391
0.243927
0.179964
0.0723609
0.0224324
0.0125423
0.0147994
0.0215409
0.033702
0.0507763
0.070058
0.0876609
0.102611
0.113372
0.134003
0.38364
0.199244
0.151706
0.125727
0.196172
0.23932
0.241096
0.185199
0.0977849
0.038055
0.0151836
0.0109615
0.0120892
0.0177535
0.028748
0.0430374
0.0576594
0.0709552
0.0835197
0.108234
0.355717
0.202541
0.16786
0.143033
0.201952
0.23708
0.238751
0.189823
0.118975
0.0582655
0.0227744
0.0122113
0.0127414
0.014657
0.0189202
0.0261
0.035061
0.0468404
0.0603525
0.0852779
0.362658
0.218399
0.191654
0.160467
0.207635
0.236097
0.237232
0.194859
0.134624
0.0771274
0.0357818
0.0183092
0.0149689
0.0150328
0.0155134
0.0173999
0.0225787
0.0329665
0.0446077
0.0664819
0.380687
0.246658
0.220127
0.177094
0.212786
0.236596
0.236866
0.198648
0.145704
0.0936689
0.0536179
0.030069
0.0197908
0.0158122
0.0153502
0.0161509
0.0196051
0.0265153
0.0345796
0.0523026
0.409286
0.280722
0.248712
0.193914
0.217497
0.237934
0.237009
0.20064
0.154435
0.111279
0.0738172
0.0454463
0.0277098
0.0183887
0.0163992
0.0171334
0.0192475
0.0224827
0.0275348
0.0414026
0.454799
0.324513
0.280132
0.210699
0.222862
0.240317
0.237308
0.202717
0.164143
0.127981
0.0920221
0.0608742
0.0375289
0.0244824
0.0206126
0.0195798
0.019972
0.0212698
0.0237497
0.0341721
0.528123
0.387995
0.320467
0.230756
0.230504
0.243718
0.238336
0.20657
0.175198
0.1421
0.107031
0.0746844
0.0501407
0.0357988
0.0285986
0.0240483
0.0218486
0.0221722
0.0238597
0.0310266
0.614773
0.464096
0.370606
0.250044
0.239324
0.247359
0.240243
0.211938
0.183475
0.151553
0.117844
0.0876442
0.0642132
0.0483368
0.0378265
0.0304248
0.0254266
0.024542
0.0253958
0.0300995
0.810157
0.647538
0.520053
0.322778
0.272999
0.257851
0.247131
0.222826
0.19642
0.167345
0.138763
0.112973
0.0901817
0.0715796
0.0571632
0.0459642
0.0376723
0.0338062
0.0316143
0.0331742
2.32524
1.92477
1.18436
0.841021
0.950187
1.06884
1.06144
0.930788
0.748566
0.581926
0.470348
0.397372
0.364136
0.370038
0.387211
0.415549
0.461652
0.536579
0.62728
0.831257
1.93828
0.95388
0.563559
0.564123
0.901888
1.03841
1.03231
0.864317
0.586244
0.359785
0.241737
0.200882
0.20372
0.219041
0.24749
0.281766
0.325444
0.390179
0.469421
0.659138
1.19536
0.546588
0.485049
0.481837
0.87713
1.03381
1.02767
0.834652
0.455332
0.224601
0.143142
0.147758
0.164535
0.19118
0.222394
0.249673
0.277822
0.316375
0.366318
0.518586
0.817978
0.532926
0.454804
0.373622
0.725561
1.01896
1.07316
0.936019
0.433348
0.102659
0.110798
0.124201
0.139964
0.156966
0.174004
0.191056
0.207796
0.227201
0.245308
0.312599
0.903385
0.844835
0.816104
0.634595
0.0867739
0.177487
0.189903
0.196691
0.201023
0.206072
0.211981
0.217451
0.222624
0.229199
0.237204
0.26794
1.01886
0.990561
0.988243
0.98192
0.240224
0.249087
0.244588
0.2413
0.239453
0.238206
0.238545
0.239676
0.241854
0.245253
0.249074
0.258569
1.01608
0.991057
0.987169
1.03465
0.262734
0.251028
0.247541
0.244147
0.241387
0.239725
0.239313
0.239298
0.239497
0.24023
0.241867
0.247895
0.890654
0.832422
0.807177
0.902951
0.224041
0.173642
0.180951
0.185629
0.189667
0.194522
0.198367
0.200227
0.202008
0.205526
0.210596
0.220947
0.714922
0.565006
0.445156
0.420995
0.0849734
0.23534
0.25711
0.217072
0.0228575
0.0410318
0.0664987
0.0914901
0.112944
0.128448
0.139559
0.148567
0.158255
0.169736
0.178253
0.190799
0.554323
0.346122
0.216535
0.0984018
0.172584
0.244231
0.245057
0.168769
0.0418408
0.0138472
0.0200138
0.0338665
0.0515952
0.0693338
0.0851986
0.102122
0.119703
0.133906
0.143097
0.158914
0.443184
0.228976
0.136504
0.105655
0.185088
0.239971
0.241922
0.176854
0.0681197
0.0205783
0.0115592
0.0135436
0.0199141
0.03104
0.0468137
0.0659347
0.0833994
0.0975556
0.108431
0.129185
0.373186
0.188804
0.14041
0.11874
0.192466
0.236847
0.239043
0.182129
0.093415
0.0354203
0.0139083
0.00995837
0.0108321
0.015958
0.0263429
0.0397071
0.0533431
0.0664891
0.0785388
0.103171
0.342552
0.192025
0.156295
0.134583
0.197117
0.234951
0.236588
0.186719
0.115136
0.0542288
0.02109
0.010998
0.0112843
0.0126789
0.0161766
0.0228563
0.0316857
0.0427239
0.055621
0.0802422
0.349125
0.20689
0.181969
0.151507
0.202066
0.2337
0.234917
0.192089
0.13085
0.0727564
0.0331955
0.0166612
0.0129565
0.0127268
0.0131933
0.0151355
0.0197562
0.0293107
0.0405512
0.061492
0.366792
0.234895
0.213232
0.168258
0.207656
0.234077
0.235016
0.196294
0.141898
0.0891193
0.0499451
0.0279258
0.0169676
0.0133268
0.0133537
0.0141918
0.0173152
0.0237981
0.0311775
0.0479064
0.395441
0.268887
0.241268
0.185214
0.212932
0.235208
0.235517
0.198458
0.150895
0.106547
0.0700747
0.0424361
0.0243035
0.0158097
0.0143917
0.015112
0.0174068
0.0205035
0.0250931
0.0379273
0.44043
0.311491
0.269309
0.201942
0.218177
0.237382
0.236088
0.200619
0.160745
0.124423
0.0883389
0.0570319
0.0340322
0.0212615
0.0181163
0.0176389
0.0181389
0.0194835
0.0218617
0.0311891
0.512752
0.37381
0.306272
0.221282
0.224889
0.240891
0.237202
0.204618
0.172359
0.138928
0.103069
0.0709916
0.0461121
0.031797
0.0254708
0.0215403
0.0198367
0.0203275
0.0218855
0.028439
0.599922
0.450068
0.353413
0.239477
0.232907
0.244917
0.2391
0.210004
0.181268
0.148618
0.114502
0.0838709
0.0599201
0.044028
0.0338898
0.0272008
0.0231372
0.0223859
0.0231292
0.0273344
0.797397
0.635057
0.50004
0.304748
0.263096
0.255211
0.245869
0.221095
0.194821
0.165221
0.136102
0.109685
0.086152
0.0667969
0.0524772
0.0419865
0.0344165
0.0308809
0.0286833
0.0300549
2.38113
1.87021
1.11062
0.825172
0.949096
1.06947
1.06078
0.927213
0.74243
0.573864
0.460049
0.38932
0.354181
0.360007
0.37718
0.406297
0.452873
0.526627
0.617895
0.823956
1.88668
0.844814
0.549608
0.569818
0.899911
1.03717
1.03187
0.861165
0.579976
0.354191
0.231882
0.19214
0.195175
0.210193
0.239151
0.274282
0.316663
0.379164
0.457732
0.648721
1.11172
0.535117
0.480442
0.478719
0.863475
1.03249
1.02791
0.832716
0.449926
0.218675
0.136485
0.138509
0.154345
0.182383
0.217506
0.247503
0.273067
0.307431
0.352938
0.499585
0.779322
0.531972
0.460734
0.373474
0.690472
1.02087
1.07468
0.936074
0.406114
0.0968715
0.105314
0.118694
0.134163
0.151386
0.169109
0.186663
0.203215
0.221234
0.237445
0.295908
0.896023
0.848537
0.820001
0.661269
0.102948
0.174316
0.188553
0.196735
0.200278
0.204022
0.209559
0.215675
0.220925
0.22622
0.232412
0.25811
1.01314
0.986443
0.984132
0.975307
0.238423
0.248584
0.244516
0.241063
0.239263
0.237743
0.237779
0.238411
0.23997
0.242751
0.246179
0.254616
1.01216
0.986055
0.981757
1.0297
0.261611
0.251027
0.248011
0.244919
0.242065
0.239876
0.239036
0.238831
0.23894
0.239382
0.240379
0.245011
0.886128
0.826555
0.799939
0.897848
0.223357
0.172069
0.179763
0.184976
0.189154
0.193489
0.197044
0.199132
0.201075
0.20442
0.208655
0.217622
0.712068
0.560735
0.437273
0.404216
0.0893321
0.234396
0.256266
0.216484
0.0217683
0.038029
0.0633225
0.0881113
0.10955
0.125651
0.137278
0.147111
0.156748
0.167319
0.175308
0.18782
0.551374
0.343168
0.2118
0.0943063
0.171143
0.244034
0.245201
0.168611
0.0412579
0.0126271
0.0181408
0.0311773
0.0479755
0.0653724
0.0821271
0.0990157
0.116253
0.130864
0.140136
0.156286
0.437365
0.22247
0.131507
0.102551
0.184732
0.239752
0.242289
0.176803
0.0672032
0.0190419
0.0105631
0.0123527
0.0181162
0.0289545
0.044013
0.0621588
0.0795887
0.0934242
0.104829
0.126229
0.368725
0.182473
0.133342
0.115593
0.192697
0.236241
0.239581
0.182226
0.0918511
0.033589
0.012858
0.00915235
0.0100578
0.0147627
0.0242798
0.0368297
0.049346
0.0622816
0.075204
0.0997391
0.33493
0.185861
0.14818
0.130309
0.196233
0.234344
0.237074
0.186807
0.113369
0.0521573
0.0197104
0.0102784
0.0103991
0.0114657
0.0144366
0.0201503
0.02839
0.0399365
0.0527166
0.0765854
0.340163
0.200028
0.174473
0.146576
0.199854
0.233079
0.235191
0.191591
0.129728
0.0704885
0.0316756
0.0155147
0.0116705
0.0109219
0.011203
0.0130085
0.0178294
0.0270825
0.0376693
0.0577621
0.355724
0.226847
0.207965
0.163204
0.205044
0.233261
0.235022
0.195745
0.140969
0.0871416
0.0474255
0.0258256
0.0151267
0.0113424
0.0113864
0.0127202
0.0158137
0.021805
0.0286664
0.0442198
0.382678
0.259531
0.237212
0.179805
0.210852
0.234097
0.23541
0.19846
0.150059
0.103543
0.0661283
0.0395551
0.021717
0.0134296
0.0128138
0.0137096
0.0161062
0.019241
0.0232055
0.0349834
0.426327
0.298958
0.261214
0.195857
0.216112
0.235889
0.23604
0.200883
0.159183
0.120544
0.0844692
0.0534292
0.0307249
0.0187277
0.0161503
0.0162655
0.0169839
0.0184242
0.0206118
0.029219
0.495859
0.357293
0.292864
0.213253
0.221641
0.239063
0.237136
0.20457
0.169664
0.135782
0.0993369
0.0672037
0.0429593
0.028549
0.0225981
0.0197872
0.0185837
0.0191001
0.0207372
0.0269995
0.582761
0.430968
0.334179
0.229595
0.227937
0.242912
0.238657
0.209085
0.178419
0.145784
0.11113
0.0804765
0.0562034
0.0398313
0.0301746
0.0243191
0.0212143
0.0211203
0.0219132
0.0258386
0.783197
0.615696
0.471462
0.284666
0.252687
0.252379
0.244329
0.218783
0.192273
0.162498
0.132741
0.105514
0.0813657
0.0617584
0.0474536
0.0377688
0.0315029
0.0287978
0.0268524
0.0281404
2.42582
1.84682
1.06901
0.813076
0.949538
1.06972
1.06163
0.926052
0.738028
0.567719
0.451291
0.384105
0.350226
0.356136
0.37368
0.404324
0.452319
0.525611
0.617297
0.823888
1.86732
0.792334
0.539326
0.572201
0.905725
1.04025
1.03358
0.860635
0.575764
0.350227
0.224654
0.186305
0.190774
0.205507
0.234035
0.270343
0.31447
0.377058
0.456083
0.648389
1.07297
0.526738
0.472825
0.479726
0.869956
1.03621
1.02999
0.832826
0.446048
0.214699
0.133367
0.133505
0.147532
0.175829
0.212921
0.245712
0.270597
0.302733
0.345899
0.490095
0.764971
0.527736
0.450782
0.365864
0.698648
1.0219
1.07648
0.938566
0.415615
0.0945299
0.102659
0.115955
0.130873
0.148083
0.166061
0.18418
0.20096
0.218414
0.233988
0.28717
0.891467
0.844518
0.811249
0.649089
0.084908
0.17198
0.187351
0.19652
0.199878
0.203099
0.208323
0.214966
0.22097
0.226435
0.232145
0.255021
1.00938
0.98434
0.983209
0.974882
0.23797
0.248708
0.244627
0.240943
0.238925
0.237678
0.237772
0.2384
0.23998
0.242843
0.246376
0.254476
1.00938
0.985222
0.982115
1.02685
0.261554
0.25176
0.248867
0.245913
0.243111
0.240699
0.239498
0.239216
0.239542
0.240389
0.241392
0.24549
0.882689
0.823381
0.796987
0.89625
0.224213
0.171658
0.179574
0.185026
0.189605
0.193677
0.19692
0.19932
0.201645
0.204948
0.20862
0.216874
0.708516
0.555675
0.429635
0.39805
0.0854474
0.234829
0.25762
0.2174
0.0209334
0.0370899
0.0622926
0.0868108
0.107665
0.124382
0.13718
0.147325
0.156567
0.166069
0.174102
0.187258
0.548053
0.339207
0.207116
0.0925588
0.170578
0.244935
0.24668
0.169183
0.0410776
0.0122253
0.0173454
0.0296898
0.0467872
0.0647435
0.0815152
0.0981046
0.114309
0.129527
0.140232
0.156542
0.433798
0.218577
0.128987
0.100742
0.185309
0.240703
0.243764
0.177946
0.0671757
0.0183662
0.0102202
0.0123564
0.0184316
0.0288578
0.0431886
0.0601584
0.0776075
0.0939782
0.10579
0.125976
0.366697
0.179675
0.130133
0.113984
0.193782
0.236899
0.241213
0.183648
0.0917944
0.0323847
0.0128257
0.0091607
0.00982854
0.0140337
0.0228348
0.0352824
0.0492927
0.0633038
0.0757624
0.0987031
0.332663
0.183584
0.144251
0.128328
0.196876
0.234874
0.238958
0.187882
0.112282
0.0510989
0.0198979
0.0100314
0.00999709
0.0107547
0.0138851
0.0204277
0.029398
0.0407181
0.0525242
0.0754092
0.336719
0.197594
0.170647
0.144572
0.199796
0.233735
0.23686
0.191632
0.128658
0.0699844
0.0314454
0.0147402
0.0108895
0.0109929
0.0115972
0.0135273
0.0180707
0.0263374
0.0364948
0.057208
0.350605
0.223815
0.204748
0.161316
0.204549
0.23384
0.235852
0.195264
0.141257
0.0867762
0.0465586
0.0241737
0.0143582
0.0117439
0.0117749
0.0126337
0.0150464
0.0204198
0.0279842
0.0443472
0.375815
0.255809
0.235883
0.177933
0.210623
0.2344
0.236128
0.199023
0.150879
0.102794
0.063759
0.0374412
0.0215739
0.0139827
0.0127119
0.0133136
0.0153559
0.0192148
0.0239039
0.0354267
0.417516
0.293082
0.25877
0.193645
0.216036
0.235874
0.23691
0.202399
0.159495
0.118297
0.0816477
0.0525022
0.0312927
0.0187618
0.0152028
0.0154659
0.0166654
0.0192069
0.0213424
0.0292336
0.484295
0.347729
0.287189
0.210011
0.221052
0.23863
0.23823
0.205717
0.168458
0.133454
0.0986164
0.0671262
0.0429322
0.0272224
0.0208
0.019585
0.0193457
0.0198767
0.0210921
0.0263097
0.570288
0.417422
0.324057
0.225205
0.226351
0.242121
0.23944
0.209067
0.176597
0.144726
0.110583
0.0796089
0.054944
0.0377198
0.0287784
0.0246036
0.0218885
0.0212464
0.0217799
0.025577
0.772269
0.598294
0.451343
0.273485
0.247445
0.250723
0.243988
0.21743
0.190897
0.161719
0.131037
0.102995
0.0786724
0.0596183
0.0463613
0.0371909
0.0308704
0.0275745
0.02622
0.027899
2.42733
1.84296
1.06019
0.806371
0.949711
1.07208
1.06287
0.926315
0.737761
0.568002
0.450304
0.385222
0.350914
0.356275
0.373373
0.404808
0.454125
0.528656
0.620988
0.827177
1.86652
0.789098
0.537164
0.570019
0.909703
1.04438
1.03506
0.860599
0.574983
0.350081
0.224335
0.187074
0.192205
0.206553
0.233695
0.269387
0.31431
0.378274
0.459074
0.653201
1.07575
0.524545
0.470694
0.479415
0.876963
1.04085
1.03139
0.832623
0.44462
0.213989
0.134541
0.134648
0.148744
0.177204
0.214409
0.246653
0.271083
0.303096
0.347109
0.494572
0.768122
0.52853
0.448723
0.361822
0.720372
1.02362
1.07731
0.940235
0.410902
0.094657
0.103018
0.116324
0.131047
0.148215
0.166674
0.185323
0.202063
0.219093
0.234241
0.288321
0.889668
0.84019
0.804248
0.624551
0.0807094
0.172202
0.187979
0.196929
0.199702
0.202552
0.207651
0.214471
0.220483
0.225811
0.231409
0.254355
1.00741
0.980865
0.97937
0.977614
0.238595
0.249132
0.244981
0.241197
0.238754
0.237401
0.237333
0.237832
0.239272
0.241916
0.245287
0.253164
1.00826
0.98492
0.982095
1.02757
0.262653
0.252011
0.248994
0.245814
0.242634
0.239906
0.238984
0.238946
0.239106
0.239681
0.240514
0.244442
0.881517
0.822945
0.797138
0.895475
0.224483
0.17217
0.180211
0.185493
0.189752
0.193966
0.197311
0.199897
0.202342
0.205257
0.208862
0.216961
0.707554
0.556244
0.431679
0.409748
0.0767625
0.235021
0.258297
0.218698
0.0204459
0.0384264
0.0636781
0.0881945
0.108869
0.125585
0.138465
0.148223
0.157074
0.166847
0.174976
0.18792
0.546696
0.339542
0.207493
0.0913315
0.169572
0.245024
0.246856
0.168945
0.039976
0.0122015
0.0174393
0.030065
0.0475224
0.0655689
0.0821923
0.0985824
0.114813
0.130428
0.141213
0.157053
0.433109
0.218986
0.129124
0.0997982
0.184301
0.241011
0.244088
0.177264
0.0657356
0.0180065
0.0101236
0.0123726
0.0185354
0.0289875
0.0433302
0.060184
0.0779425
0.0946551
0.10643
0.126126
0.366418
0.17973
0.130221
0.113358
0.193289
0.237446
0.241386
0.182555
0.0902012
0.0315503
0.0126802
0.00908418
0.00974268
0.0138822
0.0226314
0.0352968
0.0495938
0.0635816
0.0758258
0.0987766
0.332506
0.183523
0.144005
0.127954
0.19668
0.2355
0.23879
0.187069
0.110954
0.0500525
0.0195888
0.00991822
0.00987521
0.010626
0.0138615
0.0205111
0.0294316
0.0405294
0.0523405
0.075405
0.336537
0.19726
0.16999
0.144102
0.199722
0.234342
0.236411
0.191856
0.127641
0.0688236
0.0309886
0.0145527
0.0107719
0.0109263
0.0115378
0.0133675
0.0177458
0.025997
0.0363791
0.0572031
0.350504
0.223482
0.204029
0.160575
0.204406
0.234533
0.236185
0.195889
0.14004
0.085624
0.0460498
0.0239563
0.0143226
0.0116648
0.0116306
0.0124058
0.0148641
0.0204847
0.0281034
0.0442511
0.375742
0.2557
0.235237
0.177045
0.210431
0.235248
0.236568
0.198655
0.149566
0.101883
0.0634081
0.0372285
0.0214431
0.0137314
0.0124857
0.0131128
0.0152466
0.0190611
0.0235211
0.0350596
0.417135
0.292724
0.258304
0.192938
0.216178
0.236813
0.237156
0.201106
0.158458
0.118011
0.0812708
0.0519313
0.0308198
0.0183304
0.0150372
0.0153657
0.0165574
0.0186637
0.020701
0.0286849
0.483318
0.346414
0.286369
0.20951
0.221642
0.239612
0.238101
0.20462
0.168358
0.133195
0.0976249
0.0661759
0.042314
0.0268305
0.0208894
0.0194478
0.0188092
0.0192192
0.0205203
0.0258955
0.56868
0.414876
0.322325
0.224845
0.227177
0.243116
0.239324
0.208939
0.176788
0.143793
0.10961
0.0788298
0.0544061
0.0375279
0.0288597
0.0242895
0.0212988
0.0207049
0.0213197
0.0254032
0.770377
0.594112
0.446537
0.272089
0.247967
0.251587
0.244131
0.217956
0.190357
0.160546
0.130341
0.102771
0.0784729
0.0594849
0.04616
0.0369459
0.0304725
0.0272817
0.026114
0.0277764
2.38531
1.8623
1.09289
0.814782
0.952507
1.07528
1.06468
0.928431
0.740213
0.572012
0.457647
0.391046
0.356137
0.361303
0.377931
0.408255
0.457195
0.533251
0.626214
0.832714
1.88626
0.835016
0.5413
0.569764
0.912242
1.04794
1.03579
0.861801
0.576662
0.352004
0.229764
0.192808
0.196879
0.211322
0.238878
0.273777
0.317853
0.382993
0.464961
0.659649
1.11286
0.526419
0.471314
0.484185
0.881339
1.04412
1.03126
0.83289
0.44655
0.21618
0.136651
0.138291
0.154338
0.183309
0.219123
0.248738
0.273713
0.308335
0.355822
0.508435
0.777722
0.523965
0.446987
0.364241
0.719465
1.02622
1.07911
0.941545
0.41225
0.0961694
0.104569
0.117968
0.133598
0.151375
0.169993
0.188153
0.204761
0.222596
0.238615
0.298805
0.888507
0.837531
0.805627
0.626738
0.0824954
0.172658
0.188011
0.196151
0.199453
0.203166
0.208972
0.215575
0.221085
0.226348
0.23262
0.258994
1.00742
0.981252
0.979376
0.977547
0.238341
0.248071
0.243822
0.240252
0.238308
0.237061
0.237124
0.237699
0.239185
0.241966
0.245559
0.25437
1.00744
0.984747
0.982133
1.02767
0.262116
0.250561
0.247476
0.244455
0.24171
0.239702
0.238983
0.238762
0.238921
0.239474
0.24055
0.245303
0.880976
0.822563
0.796441
0.895519
0.223369
0.172069
0.179827
0.18504
0.189408
0.193968
0.197959
0.20033
0.202224
0.205312
0.209263
0.218143
0.706466
0.554563
0.429631
0.394578
0.0819244
0.234435
0.257394
0.217948
0.0205664
0.0391694
0.0646686
0.0893302
0.110821
0.127265
0.138805
0.148278
0.157577
0.168028
0.176394
0.18919
0.54735
0.339607
0.208773
0.0944947
0.170412
0.244372
0.246175
0.168289
0.0391368
0.0122909
0.0180415
0.0314812
0.0488226
0.0664016
0.0830282
0.0995412
0.116682
0.131855
0.141365
0.15728
0.435897
0.221751
0.130871
0.102639
0.185166
0.240239
0.243255
0.176642
0.0647788
0.0182744
0.0103156
0.0122836
0.0182556
0.0291248
0.0439749
0.0620044
0.0798706
0.0942013
0.105604
0.126854
0.367447
0.181711
0.133168
0.115665
0.193541
0.236742
0.240395
0.182217
0.0895971
0.0322035
0.0124902
0.00890176
0.00978452
0.014349
0.0238238
0.0366536
0.0496808
0.0626695
0.0754755
0.0998535
0.333952
0.184941
0.147952
0.130367
0.196728
0.234707
0.237696
0.186581
0.111174
0.0501178
0.0189634
0.00990823
0.0100571
0.011165
0.0142645
0.0201665
0.0284278
0.0397683
0.0523148
0.076316
0.339621
0.199541
0.174062
0.146929
0.199957
0.233295
0.235354
0.191092
0.127438
0.068183
0.0304592
0.0148983
0.0113424
0.0107185
0.0109779
0.012698
0.0173099
0.0263411
0.0371606
0.0574407
0.355552
0.227048
0.207665
0.163872
0.204923
0.233489
0.235204
0.195071
0.139
0.0850027
0.0459957
0.0250294
0.014845
0.0110894
0.0110832
0.0122807
0.0152859
0.0214652
0.0284778
0.0438921
0.382023
0.259929
0.238289
0.180638
0.210908
0.234391
0.235638
0.197773
0.148584
0.101854
0.0646802
0.0385668
0.0213006
0.0130442
0.0123921
0.0132509
0.0157388
0.0190546
0.022867
0.0344929
0.42463
0.298214
0.262518
0.196682
0.216421
0.23624
0.236266
0.200249
0.158133
0.119212
0.0827304
0.0521027
0.0300293
0.0180202
0.0157096
0.0159712
0.0168059
0.018
0.0199576
0.0284002
0.493019
0.35455
0.29287
0.213994
0.222026
0.239376
0.237188
0.203971
0.168951
0.134153
0.0973303
0.0656774
0.0418763
0.0276764
0.0224189
0.0197505
0.018236
0.0185448
0.0200153
0.0262275
0.579108
0.426272
0.332052
0.229894
0.228182
0.243114
0.238581
0.20847
0.177488
0.144068
0.109266
0.0789043
0.0550593
0.0392204
0.0300915
0.0242579
0.0207188
0.0204222
0.0211909
0.025405
0.779327
0.609225
0.464332
0.282084
0.251859
0.252291
0.244042
0.218155
0.191141
0.160987
0.131311
0.104334
0.0805075
0.0612234
0.0472094
0.0375605
0.0308166
0.0281327
0.0264633
0.0278018
2.32763
1.91106
1.16601
0.839682
0.96025
1.08064
1.06902
0.934708
0.747417
0.579807
0.468206
0.398363
0.364911
0.370132
0.38671
0.415992
0.464848
0.54285
0.635631
0.840617
1.9343
0.938177
0.560897
0.568995
0.914999
1.05234
1.03932
0.86748
0.583792
0.356718
0.238652
0.199992
0.203498
0.218896
0.246721
0.281244
0.326988
0.39487
0.477579
0.670522
1.1909
0.539594
0.482513
0.48629
0.888886
1.04801
1.03385
0.837452
0.453515
0.221401
0.140739
0.145235
0.162927
0.190963
0.223008
0.250197
0.278745
0.318691
0.371454
0.530167
0.809827
0.525641
0.450164
0.371803
0.724542
1.02704
1.0796
0.941551
0.417752
0.100132
0.1081
0.121402
0.137723
0.155759
0.173943
0.191594
0.208732
0.228191
0.246343
0.31672
0.895562
0.839266
0.811844
0.630139
0.0844689
0.174159
0.187975
0.194979
0.199308
0.204541
0.210836
0.216495
0.221635
0.228195
0.236283
0.267901
1.01165
0.986127
0.9841
0.979245
0.236915
0.247162
0.242877
0.239726
0.237927
0.236431
0.236586
0.237507
0.239579
0.243044
0.246968
0.256645
1.00942
0.987226
0.984646
1.02894
0.260323
0.249435
0.246402
0.243325
0.240634
0.238883
0.238423
0.238246
0.238407
0.239059
0.240561
0.246464
0.884254
0.826974
0.80177
0.895943
0.22175
0.171575
0.179348
0.184406
0.188823
0.194158
0.198467
0.200185
0.20167
0.204907
0.209868
0.220153
0.709408
0.558556
0.436713
0.412363
0.0810108
0.235041
0.257587
0.217879
0.0223997
0.0399051
0.0650912
0.0902537
0.112231
0.128391
0.139652
0.148519
0.158168
0.169881
0.178662
0.191095
0.551377
0.342725
0.212529
0.0971892
0.172795
0.245593
0.246741
0.169843
0.0416454
0.0133137
0.0193857
0.0332547
0.0511019
0.0688992
0.0846308
0.10153
0.119584
0.134548
0.143835
0.15921
0.441496
0.2279
0.13486
0.104775
0.185956
0.241393
0.243672
0.177863
0.0674838
0.0199114
0.0112485
0.013227
0.0194664
0.0303075
0.0458508
0.0651859
0.0834085
0.0979805
0.108747
0.129203
0.371016
0.186967
0.13943
0.118084
0.193581
0.238106
0.2407
0.18295
0.0925891
0.0346408
0.0135321
0.00955314
0.0103616
0.015321
0.0257104
0.0393706
0.0532301
0.0663881
0.0782797
0.102897
0.340659
0.190341
0.155464
0.134269
0.198067
0.236163
0.2381
0.187245
0.114226
0.053301
0.0203958
0.0104976
0.0108006
0.0123523
0.0159393
0.0225311
0.031273
0.0421082
0.0549233
0.0799077
0.347463
0.205792
0.180805
0.151662
0.202707
0.234845
0.236165
0.192384
0.130099
0.0715966
0.0320128
0.0158922
0.0126177
0.0123846
0.0127975
0.0146744
0.0190925
0.0284771
0.0399759
0.0612427
0.364953
0.234065
0.212438
0.168735
0.208247
0.235173
0.236157
0.196742
0.141211
0.0876658
0.0483208
0.0269844
0.0166769
0.0129433
0.0129441
0.0137371
0.0168051
0.023434
0.0309954
0.0477188
0.393242
0.267509
0.241268
0.185572
0.213725
0.236261
0.236525
0.198892
0.150029
0.104866
0.0683249
0.0414815
0.0238792
0.0153023
0.0139403
0.0146677
0.0171338
0.0204953
0.0250543
0.0376314
0.437755
0.308626
0.268362
0.202002
0.219078
0.238382
0.236987
0.200712
0.15973
0.122866
0.0868933
0.0560662
0.0333877
0.0204379
0.017567
0.0174088
0.0180358
0.0193131
0.0215674
0.0305404
0.509796
0.369064
0.303232
0.220681
0.225572
0.241727
0.23785
0.20425
0.171482
0.137724
0.101742
0.0697618
0.0449566
0.0306816
0.0250581
0.0215271
0.0196584
0.0200574
0.0214237
0.0278018
0.597401
0.444406
0.347633
0.238118
0.233076
0.245535
0.239474
0.209528
0.180431
0.147239
0.112743
0.0821352
0.0584447
0.043103
0.0335912
0.027077
0.0227463
0.0218416
0.022521
0.0268221
0.796205
0.630085
0.489925
0.298963
0.261155
0.255207
0.245685
0.22048
0.193645
0.163228
0.133835
0.107715
0.0847678
0.0659552
0.0519378
0.0414391
0.0334872
0.0299793
0.0280298
0.0294867
2.26504
1.94582
1.24499
0.878704
0.968014
1.08479
1.07264
0.940857
0.754341
0.58812
0.477832
0.405017
0.372908
0.378416
0.395604
0.425761
0.475589
0.554268
0.646112
0.848585
1.95561
1.04832
0.584331
0.577093
0.916969
1.05754
1.04477
0.875803
0.594036
0.365884
0.25046
0.20937
0.212204
0.227117
0.254178
0.28902
0.336642
0.406716
0.489544
0.680355
1.27309
0.563449
0.49748
0.48991
0.894816
1.05316
1.03977
0.847219
0.467349
0.228672
0.149909
0.155739
0.173013
0.198608
0.227137
0.254536
0.286912
0.331456
0.388385
0.550633
0.860251
0.536416
0.45595
0.38192
0.73595
1.03142
1.0838
0.94532
0.442436
0.105695
0.112769
0.126243
0.143328
0.162079
0.180192
0.197853
0.215388
0.235783
0.255937
0.335555
0.907091
0.843318
0.818279
0.636788
0.0868023
0.178086
0.190295
0.19744
0.203298
0.209719
0.215589
0.220471
0.225654
0.233194
0.24219
0.277638
1.01619
0.993763
0.992503
0.981745
0.23778
0.249508
0.245742
0.242985
0.241043
0.239421
0.239601
0.240521
0.242607
0.245854
0.249298
0.259189
1.01349
0.992336
0.990041
1.03383
0.26051
0.251399
0.248566
0.245672
0.243164
0.241475
0.240911
0.240317
0.240291
0.240793
0.242212
0.248253
0.889021
0.832713
0.808815
0.902094
0.221944
0.174236
0.182165