/*--------------------------------*- C++ -*----------------------------------*\
  =========                 |
  \\      /  F ield         | OpenFOAM: The Open Source CFD Toolbox
   \\    /   O peration     | Website:  https://openfoam.org
    \\  /    A nd           | Version:  9
     \\/     M anipulation  |
\*---------------------------------------------------------------------------*/
FoamFile
{
    format      ascii;
    class       volScalarField;
    location    "0.009";
    object      rho.C4;
}
// * * * * * * * * * * * * * * * * * * * * * * * * * * * * * * * * * * * * * //

dimensions      [1 -3 0 0 0 0 0];

internalField   nonuniform List<scalar> 
9720
(
2.27289
2.00438
1.33606
0.911027
0.951024
1.06376
1.06018
0.932413
0.753571
0.596399
0.488852
0.414328
0.385026
0.391497
0.409312
0.439132
0.488741
0.567779
0.66016
0.861917
2.00355
1.17019
0.601492
0.572146
0.884373
1.0335
1.03077
0.867828
0.595779
0.374141
0.262573
0.219851
0.222624
0.237796
0.265786
0.302224
0.351872
0.423446
0.507265
0.699344
1.35426
0.598824
0.511199
0.483965
0.861639
1.02976
1.02576
0.841718
0.474992
0.235972
0.160699
0.167187
0.183959
0.208433
0.236647
0.26609
0.301316
0.348507
0.407236
0.570962
0.914753
0.564821
0.48034
0.396606
0.673024
1.01929
1.07462
0.940349
0.442915
0.111642
0.119353
0.134257
0.152528
0.171787
0.190119
0.208095
0.226335
0.248177
0.269884
0.352848
0.924593
0.853604
0.832486
0.673425
0.0941675
0.187172
0.199348
0.207145
0.213293
0.219674
0.225698
0.23115
0.237042
0.245316
0.25501
0.292871
1.02702
0.999752
0.997091
0.988122
0.252214
0.259547
0.255409
0.252598
0.250312
0.249475
0.250027
0.251652
0.254457
0.258321
0.262157
0.273057
1.02317
0.99632
0.992924
1.045
0.275392
0.261547
0.258134
0.255254
0.252917
0.25131
0.250431
0.250565
0.251089
0.252395
0.254281
0.260969
0.897723
0.834937
0.809857
0.909492
0.235658
0.181464
0.189957
0.195378
0.19974
0.203789
0.207382
0.210344
0.213271
0.217346
0.222188
0.232594
0.722528
0.566501
0.446083
0.398498
0.0928498
0.238376
0.260183
0.219686
0.0245033
0.0441635
0.0722467
0.0983333
0.119504
0.136467
0.149427
0.159968
0.169922
0.179944
0.188392
0.202871
0.571431
0.354376
0.220231
0.106531
0.178335
0.247282
0.247839
0.172749
0.0469048
0.0164688
0.022616
0.0374729
0.0580821
0.0781671
0.0963725
0.113985
0.129082
0.143461
0.154666
0.172822
0.467436
0.251381
0.155601
0.114665
0.189369
0.242758
0.244121
0.181076
0.0746661
0.0234173
0.0134171
0.0160411
0.0238647
0.0377483
0.0555168
0.0740958
0.0917672
0.108151
0.121023
0.143561
0.39654
0.211763
0.163099
0.130476
0.197259
0.239568
0.241225
0.186514
0.100057
0.0393329
0.0163226
0.0125427
0.013932
0.0199107
0.0308675
0.0456078
0.0613133
0.0767929
0.0913082
0.1168
0.370717
0.215455
0.1794
0.149007
0.203504
0.23684
0.239189
0.191094
0.120575
0.0606714
0.0248635
0.014015
0.0144788
0.0162273
0.0206852
0.0286443
0.0391014
0.0531063
0.067359
0.0926496
0.377631
0.231404
0.202119
0.167199
0.209559
0.236853
0.237722
0.195514
0.136685
0.0808256
0.0393853
0.0203909
0.016488
0.0169314
0.0179868
0.0206003
0.027038
0.0383297
0.0500332
0.0729131
0.395281
0.259314
0.229573
0.184436
0.215177
0.237831
0.237902
0.199517
0.149053
0.0988771
0.0578344
0.0320885
0.021523
0.0183024
0.0181285
0.0190993
0.0228292
0.0299137
0.038434
0.0579374
0.423611
0.294222
0.259862
0.201916
0.220791
0.240107
0.238681
0.202946
0.159219
0.116463
0.0771809
0.0477205
0.0302499
0.0216757
0.0194329
0.0199663
0.0215019
0.0244675
0.0301436
0.0461433
0.470615
0.340651
0.294743
0.220277
0.227261
0.243536
0.239929
0.206344
0.169057
0.131595
0.095097
0.0641025
0.041644
0.0290279
0.0240227
0.0219783
0.0220689
0.0233143
0.026258
0.0383629
0.546626
0.407172
0.339462
0.241863
0.23644
0.248029
0.242067
0.211024
0.179049
0.145618
0.111415
0.0801459
0.0563398
0.0411762
0.032296
0.0265694
0.0241167
0.0245545
0.02663
0.0345984
0.636551
0.486225
0.393548
0.263441
0.246814
0.252451
0.244758
0.216513
0.187304
0.156417
0.124167
0.094743
0.0708724
0.0537381
0.0420836
0.0338869
0.0284166
0.0275576
0.0285113
0.033712
0.833951
0.673831
0.549148
0.344524
0.285459
0.264871
0.252993
0.228037
0.201848
0.174194
0.146294
0.12013
0.0967199
0.0778352
0.0631844
0.0514843
0.0425897
0.0380384
0.0354887
0.0373174
2.26345
1.95731
1.25909
0.870636
0.951969
1.06848
1.06301
0.933188
0.750797
0.587475
0.477833
0.403559
0.372533
0.379
0.39697
0.426124
0.473484
0.54969
0.639658
0.841328
1.96177
1.06524
0.578451
0.562101
0.898777
1.04125
1.0354
0.869307
0.591721
0.366173
0.25107
0.208671
0.21134
0.226767
0.25503
0.290026
0.336273
0.404005
0.484206
0.672591
1.28149
0.571768
0.496223
0.478306
0.879599
1.03821
1.03059
0.841716
0.465953
0.22901
0.150642
0.156354
0.172871
0.197871
0.226529
0.254333
0.286236
0.329079
0.383326
0.54014
0.873622
0.548408
0.464087
0.384999
0.717581
1.01982
1.07531
0.93974
0.449404
0.106758
0.114199
0.128194
0.145023
0.162927
0.180278
0.197544
0.214592
0.234972
0.254635
0.32988
0.915266
0.849629
0.822848
0.64821
0.0944852
0.181676
0.193414
0.200575
0.206324
0.212367
0.217978
0.222776
0.227908
0.23519
0.243862
0.27783
1.02474
0.998744
0.996524
0.985381
0.245376
0.252875
0.248889
0.245927
0.243888
0.242482
0.242759
0.243833
0.246036
0.249321
0.252793
0.262486
1.01957
0.995921
0.9935
1.04073
0.267807
0.25481
0.251703
0.248556
0.245847
0.244052
0.243413
0.242813
0.242844
0.24351
0.245084
0.251172
0.894609
0.835442
0.810605
0.908056
0.229455
0.176353
0.184433
0.189395
0.193683
0.19825
0.20177
0.203529
0.205301
0.208727
0.213695
0.223944
0.718736
0.564315
0.441116
0.408749
0.0954165
0.238006
0.259892
0.218438
0.024946
0.0421836
0.0685937
0.0944048
0.11588
0.131992
0.14361
0.152646
0.162343
0.173325
0.18173
0.194432
0.561709
0.348422
0.216051
0.10378
0.177541
0.24651
0.24706
0.171765
0.0455766
0.0153395
0.0215799
0.0358628
0.054972
0.0734198
0.0898992
0.107383
0.123906
0.13809
0.147791
0.163478
0.454499
0.239586
0.14544
0.111183
0.188891
0.242639
0.244194
0.180171
0.0724499
0.0224628
0.0125597
0.0148197
0.021571
0.0337511
0.0508545
0.0701678
0.0877974
0.10277
0.113547
0.134214
0.383653
0.199274
0.15177
0.125821
0.19636
0.239564
0.241357
0.18541
0.0979047
0.0381053
0.0152037
0.0109763
0.0121066
0.017781
0.0287931
0.0431045
0.0577487
0.0710654
0.0836521
0.108414
0.355734
0.202585
0.167947
0.143148
0.202144
0.23732
0.239008
0.190038
0.119119
0.0583387
0.0228038
0.0122282
0.0127608
0.0146799
0.0189495
0.0261401
0.0351152
0.0469151
0.0604542
0.0854284
0.362683
0.218459
0.191765
0.160599
0.207833
0.236335
0.237486
0.19508
0.134783
0.0772216
0.0358282
0.0183355
0.0149917
0.0150556
0.0155367
0.0174264
0.0226145
0.0330229
0.0446875
0.066602
0.38072
0.246737
0.220263
0.177243
0.212987
0.236834
0.23712
0.198872
0.145873
0.0937836
0.0536892
0.0301125
0.0198198
0.0158352
0.0153729
0.016176
0.0196385
0.0265629
0.0346418
0.0523973
0.40933
0.280823
0.248873
0.194078
0.217703
0.238173
0.237261
0.200864
0.154616
0.111417
0.0739164
0.04551
0.0277483
0.0184147
0.0164238
0.0171617
0.0192815
0.0225228
0.0275839
0.0414779
0.454861
0.324643
0.280322
0.210879
0.223072
0.240558
0.23756
0.202943
0.164337
0.128142
0.092144
0.0609554
0.03758
0.0245174
0.0206449
0.0196131
0.0200068
0.0213069
0.0237914
0.0342353
0.528202
0.388158
0.320689
0.230953
0.230721
0.243962
0.238589
0.206803
0.175407
0.142278
0.107168
0.0747829
0.0502097
0.035852
0.0286445
0.0240886
0.0218855
0.0222101
0.0239017
0.0310862
0.614865
0.464287
0.370863
0.250258
0.239549
0.247607
0.240499
0.212177
0.183693
0.15174
0.117995
0.0877609
0.0643044
0.0484103
0.0378866
0.030474
0.0254686
0.0245841
0.0254415
0.0301598
0.810266
0.64778
0.520397
0.323049
0.273254
0.258109
0.247395
0.223079
0.196653
0.167552
0.138943
0.113128
0.090313
0.0716882
0.0572523
0.0460381
0.0377354
0.0338666
0.0316747
0.033244
2.32526
1.92478
1.18436
0.841023
0.950189
1.06884
1.06144
0.93079
0.748568
0.58193
0.470357
0.397388
0.364161
0.370076
0.387262
0.415618
0.461748
0.536707
0.627431
0.831441
1.93829
0.953882
0.56356
0.564123
0.901888
1.03841
1.03231
0.864318
0.586248
0.359801
0.241768
0.200929
0.203791
0.219139
0.24762
0.281931
0.325656
0.390451
0.469746
0.65956
1.19536
0.546589
0.485049
0.481837
0.877131
1.03381
1.02767
0.834652
0.455347
0.224653
0.143208
0.147856
0.164671
0.191361
0.222621
0.249942
0.278134
0.316745
0.366748
0.519173
0.81798
0.532926
0.454804
0.373622
0.725561
1.01896
1.07316
0.936019
0.433359
0.102746
0.110915
0.12435
0.140145
0.157177
0.174244
0.191324
0.208092
0.227527
0.24566
0.313043
0.903387
0.844836
0.816104
0.634595
0.0868629
0.177754
0.190193
0.196993
0.201334
0.206393
0.212311
0.217791
0.222972
0.229559
0.237576
0.268359
1.01886
0.990561
0.988244
0.98192
0.240548
0.249491
0.244987
0.241696
0.239847
0.238599
0.238941
0.240074
0.242257
0.245661
0.249489
0.259001
1.01608
0.991057
0.987169
1.03465
0.263115
0.251463
0.247972
0.244573
0.24181
0.240147
0.239736
0.23972
0.239919
0.240654
0.242296
0.248336
0.890655
0.832422
0.807177
0.902951
0.224389
0.173962
0.181286
0.185972
0.190019
0.194887
0.198739
0.200601
0.202384
0.20591
0.210993
0.221366
0.714923
0.565009
0.445168
0.421004
0.0850537
0.235633
0.257452
0.21738
0.0228959
0.0411073
0.0666234
0.0916675
0.113165
0.128698
0.139828
0.148852
0.158563
0.170074
0.178608
0.191178
0.554327
0.346134
0.216578
0.098474
0.172814
0.244582
0.245433
0.169042
0.0419128
0.0138725
0.0200525
0.0339326
0.0516952
0.0694677
0.0853646
0.102327
0.119953
0.134187
0.143392
0.15924
0.443191
0.229
0.136559
0.105752
0.185337
0.240316
0.242292
0.177138
0.0682356
0.0206164
0.0115814
0.0135693
0.0199518
0.0311003
0.0469099
0.0660757
0.0835773
0.0977598
0.108656
0.129457
0.373199
0.188842
0.140492
0.118864
0.192725
0.237187
0.239407
0.182421
0.0935744
0.0354857
0.013934
0.00997673
0.0108528
0.015991
0.0263995
0.039792
0.0534551
0.0666275
0.0787042
0.103399
0.342572
0.192083
0.156407
0.134734
0.197383
0.235288
0.236948
0.187018
0.115332
0.0543258
0.0211279
0.0110185
0.0113074
0.012706
0.016211
0.0229038
0.0317511
0.0428135
0.055744
0.0804312
0.349155
0.206971
0.182119
0.151684
0.202339
0.234035
0.235274
0.192397
0.131072
0.0728821
0.0332552
0.0166937
0.0129836
0.0127534
0.0132201
0.0151661
0.0197971
0.0293758
0.0406474
0.0616393
0.366834
0.235003
0.213422
0.168459
0.207936
0.234412
0.235373
0.196608
0.142133
0.0892728
0.0500368
0.0279816
0.0170023
0.0133533
0.01338
0.0142207
0.0173533
0.0238546
0.0312519
0.0480206
0.395498
0.269025
0.241493
0.185438
0.213218
0.235544
0.235874
0.198773
0.151144
0.106733
0.0702065
0.0425198
0.0243506
0.0158401
0.0144203
0.0151446
0.0174477
0.0205522
0.0251523
0.0380173
0.440509
0.311667
0.269569
0.202189
0.21847
0.237721
0.236445
0.200937
0.161012
0.124643
0.0885047
0.0571396
0.0340963
0.0213025
0.018154
0.0176792
0.0181812
0.0195286
0.0219121
0.0312637
0.512859
0.374034
0.306577
0.221552
0.225191
0.241234
0.237559
0.204943
0.172648
0.139173
0.103257
0.0711225
0.0461994
0.0318608
0.0255265
0.0215892
0.0198815
0.0203733
0.0219359
0.0285099
0.600047
0.450336
0.353765
0.239769
0.233218
0.245265
0.239461
0.210339
0.181572
0.148877
0.114708
0.0840263
0.060037
0.04412
0.0339637
0.0272602
0.0231879
0.0224363
0.0231838
0.0274061
0.797551
0.635407
0.50052
0.305114
0.263445
0.255573
0.246239
0.221448
0.195147
0.165508
0.136348
0.109894
0.0863255
0.066937
0.0525891
0.0420773
0.0344931
0.0309536
0.0287558
0.0301374
2.38114
1.87021
1.11062
0.825172
0.949096
1.06947
1.06078
0.927213
0.742431
0.573867
0.46006
0.389341
0.354215
0.360058
0.377249
0.406389
0.453
0.526802
0.618102
0.824213
1.88668
0.844814
0.549608
0.569818
0.899911
1.03717
1.03187
0.861165
0.579981
0.354212
0.231922
0.192203
0.195271
0.210326
0.239327
0.274506
0.316946
0.379531
0.458174
0.649308
1.11172
0.535117
0.480442
0.478719
0.863475
1.03249
1.02791
0.832716
0.449946
0.218745
0.136571
0.138635
0.154521
0.182622
0.217814
0.247873
0.27349
0.307925
0.353509
0.500373
0.779322
0.531972
0.460734
0.373474
0.690472
1.02087
1.07468
0.936074
0.406138
0.0969849
0.105467
0.118889
0.1344
0.151667
0.169431
0.187024
0.203612
0.22167
0.237913
0.296485
0.896023
0.848537
0.820001
0.661269
0.103115
0.174681
0.188951
0.197153
0.200705
0.204458
0.210007
0.216137
0.221397
0.226704
0.232909
0.25866
1.01314
0.986443
0.984132
0.975307
0.238894
0.249143
0.245068
0.241608
0.239803
0.23828
0.238318
0.238951
0.240515
0.243302
0.246737
0.255193
1.01216
0.986055
0.981757
1.0297
0.262163
0.251628
0.248605
0.245506
0.242646
0.240453
0.239612
0.239407
0.239515
0.239957
0.240957
0.245601
0.886128
0.826555
0.799939
0.897848
0.223856
0.172505
0.18022
0.185445
0.189635
0.193985
0.197549
0.19964
0.201585
0.204938
0.209185
0.218177
0.712069
0.560739
0.437288
0.404234
0.0894529
0.234781
0.256716
0.216888
0.0218184
0.0381237
0.0634829
0.0883401
0.109839
0.125982
0.137639
0.147497
0.157161
0.167766
0.175779
0.188324
0.551377
0.343184
0.211855
0.0943953
0.171432
0.244476
0.245674
0.168954
0.0413498
0.0126573
0.0181869
0.0312588
0.0481011
0.0655434
0.0823431
0.0992818
0.116576
0.131232
0.140528
0.156719
0.437374
0.222501
0.131574
0.102671
0.185046
0.240188
0.242757
0.177162
0.0673491
0.0190872
0.0105899
0.0123843
0.0181623
0.0290296
0.0441315
0.062334
0.0798157
0.0936888
0.105125
0.126587
0.368741
0.182522
0.133441
0.115747
0.193028
0.236672
0.240046
0.182596
0.0920499
0.0336683
0.0128896
0.00917486
0.0100833
0.014802
0.024348
0.0369343
0.0494856
0.0624568
0.075417
0.100031
0.334957
0.185936
0.148319
0.130496
0.196572
0.234774
0.237535
0.187187
0.113615
0.0522779
0.019757
0.0103036
0.0104262
0.0114974
0.0144771
0.0202065
0.0284687
0.0400485
0.0528694
0.0768208
0.340203
0.200134
0.17466
0.146797
0.200201
0.233508
0.235649
0.191983
0.130008
0.0706467
0.0317497
0.0155534
0.0117018
0.0109519
0.0112334
0.0130436
0.0178784
0.0271604
0.037784
0.057945
0.355779
0.226986
0.208208
0.163458
0.205402
0.233691
0.23548
0.196146
0.14127
0.0873356
0.047537
0.0258912
0.0151671
0.0113724
0.0114163
0.0127544
0.0158584
0.0218712
0.0287562
0.0443601
0.382751
0.259709
0.237504
0.180089
0.21122
0.234529
0.23587
0.198866
0.15038
0.103775
0.0662857
0.0396556
0.0217731
0.0134641
0.0128474
0.0137475
0.0161543
0.0193008
0.023278
0.0350945
0.426429
0.299182
0.261548
0.19617
0.21649
0.236325
0.236502
0.201295
0.159523
0.120816
0.084671
0.0535622
0.0308019
0.0187758
0.0161938
0.0163127
0.0170355
0.0184808
0.0206757
0.029313
0.496002
0.357586
0.293251
0.213597
0.22203
0.239506
0.2376
0.20499
0.17003
0.13609
0.0995724
0.067367
0.0430669
0.0286237
0.0226613
0.0198453
0.0186394
0.019158
0.0208017
0.0270893
0.582934
0.431323
0.334628
0.229966
0.228336
0.243363
0.239125
0.209516
0.178805
0.146114
0.111391
0.0806721
0.0563458
0.0399382
0.0302596
0.0243895
0.0212768
0.0211846
0.0219828
0.0259279
0.783414
0.616175
0.47208
0.285122
0.253128
0.252847
0.244809
0.219237
0.192691
0.162866
0.133054
0.105774
0.0815769
0.0619262
0.0475867
0.0378776
0.0315968
0.0288882
0.0269417
0.0282415
2.42582
1.84682
1.06901
0.813076
0.949538
1.06972
1.06163
0.926052
0.738029
0.567723
0.451304
0.384131
0.350267
0.356197
0.373761
0.404433
0.45247
0.525818
0.617544
0.824193
1.86732
0.792334
0.539326
0.572201
0.905725
1.04025
1.03358
0.860635
0.57577
0.350254
0.224701
0.18638
0.190888
0.205665
0.234242
0.270606
0.314803
0.37749
0.456607
0.649088
1.07297
0.526738
0.472825
0.479726
0.869956
1.03621
1.02999
0.832826
0.446073
0.214784
0.133469
0.133651
0.147735
0.176107
0.213284
0.246151
0.271097
0.30331
0.346565
0.491016
0.764971
0.527736
0.450782
0.365864
0.698648
1.0219
1.07648
0.938566
0.415644
0.0946664
0.102839
0.116184
0.131152
0.148413
0.16644
0.184606
0.201428
0.218925
0.234535
0.287835
0.891467
0.844518
0.811249
0.649089
0.0850837
0.172417
0.187828
0.197022
0.20039
0.203619
0.208856
0.215515
0.221533
0.227011
0.232733
0.255664
1.00938
0.98434
0.983209
0.974882
0.23857
0.249383
0.245291
0.241596
0.239572
0.238321
0.238415
0.239043
0.240626
0.243496
0.247038
0.255158
1.00938
0.985222
0.982115
1.02685
0.262258
0.25249
0.249588
0.246624
0.243812
0.241392
0.240186
0.239903
0.240227
0.241075
0.24208
0.246189
0.882689
0.823381
0.796987
0.89625
0.224853
0.172186
0.180127
0.185595
0.190187
0.194271
0.197521
0.199927
0.202255
0.205566
0.209249
0.217527
0.708517
0.55568
0.429654
0.398073
0.0855879
0.23529
0.25816
0.217885
0.0209909
0.0372024
0.062484
0.087081
0.108004
0.124777
0.137614
0.147791
0.157062
0.166595
0.174654
0.187852
0.548057
0.339227
0.207182
0.0926656
0.170923
0.245463
0.247246
0.169592
0.0411869
0.0122608
0.017398
0.0297822
0.0469346
0.064949
0.0817759
0.0984219
0.114684
0.129956
0.140696
0.15706
0.433809
0.218615
0.129067
0.100884
0.185686
0.241223
0.244323
0.178374
0.0673496
0.0184179
0.0102508
0.0123944
0.0184891
0.0289492
0.043328
0.0603576
0.0778702
0.0942974
0.106149
0.126405
0.366717
0.179733
0.130248
0.114164
0.194177
0.237411
0.241766
0.184089
0.0920289
0.0324741
0.0128632
0.00918832
0.00985893
0.0140783
0.0229097
0.0354008
0.04946
0.0635201
0.0760232
0.0990491
0.332696
0.183674
0.144412
0.128548
0.197279
0.235382
0.239505
0.188333
0.112567
0.0512375
0.0199547
0.0100612
0.010028
0.0107893
0.0139308
0.0204961
0.0294975
0.0408579
0.0527077
0.0756817
0.336767
0.19772
0.170866
0.144831
0.200206
0.234241
0.237403
0.192092
0.128983
0.070171
0.0315335
0.0147837
0.0109233
0.0110283
0.0116352
0.0135723
0.0181319
0.0264287
0.0366249
0.0574208
0.35067
0.22398
0.205032
0.161613
0.204969
0.234347
0.236393
0.195733
0.141612
0.0870045
0.0466875
0.0242447
0.0144026
0.0117814
0.0118131
0.0126756
0.0150977
0.020492
0.0280865
0.0445158
0.375902
0.256018
0.236228
0.178266
0.211056
0.234909
0.236669
0.199501
0.151257
0.103064
0.0639351
0.0375508
0.02164
0.0140267
0.0127529
0.013358
0.0154093
0.0192845
0.0239931
0.0355638
0.417637
0.293345
0.259162
0.194011
0.216481
0.236386
0.237453
0.202885
0.159894
0.118607
0.0818731
0.0526548
0.031387
0.0188203
0.015252
0.0155183
0.0167246
0.0192777
0.0214231
0.0293485
0.484465
0.348071
0.287639
0.21041
0.221506
0.239148
0.238776
0.206211
0.16888
0.133805
0.098888
0.0673189
0.0430603
0.0273072
0.0208679
0.0196522
0.0194149
0.0199502
0.0211725
0.0264153
0.570496
0.417837
0.324573
0.225634
0.226815
0.242646
0.239989
0.20957
0.177041
0.145106
0.110886
0.0798366
0.055108
0.0378377
0.0288729
0.024688
0.0219667
0.0213253
0.0218638
0.0256819
0.772533
0.59886
0.452049
0.274001
0.247951
0.251266
0.244547
0.217954
0.191378
0.162145
0.131397
0.10329
0.0789087
0.0598061
0.0465141
0.0373188
0.030981
0.0276782
0.0263232
0.0280176
2.42733
1.84296
1.06019
0.806371
0.949711
1.07208
1.06287
0.926315
0.737762
0.568007
0.450318
0.385249
0.350957
0.356337
0.373457
0.404921
0.454282
0.528872
0.621245
0.827492
1.86652
0.789098
0.537164
0.570019
0.909703
1.04438
1.03506
0.860599
0.57499
0.350109
0.224385
0.187152
0.192325
0.206719
0.233911
0.269659
0.314657
0.378725
0.459621
0.653929
1.07575
0.524545
0.470694
0.479415
0.876963
1.04085
1.03139
0.832623
0.444645
0.214077
0.134648
0.134802
0.148959
0.177496
0.214791
0.247113
0.271604
0.303697
0.347803
0.495537
0.768122
0.52853
0.448723
0.361822
0.720372
1.02362
1.07731
0.940235
0.410936
0.0947992
0.103206
0.116564
0.131338
0.14856
0.167071
0.18577
0.202553
0.219627
0.234811
0.289016
0.889668
0.84019
0.804248
0.624551
0.0808891
0.172657
0.188478
0.197453
0.200235
0.203093
0.208204
0.215043
0.221069
0.22641
0.23202
0.255023
1.00741
0.980865
0.97937
0.977614
0.239254
0.249837
0.245675
0.241879
0.239428
0.238071
0.238002
0.238502
0.239944
0.242595
0.245975
0.253871
1.00826
0.98492
0.982095
1.02757
0.26343
0.252774
0.249748
0.246556
0.243365
0.240627
0.239701
0.239661
0.23982
0.240395
0.24123
0.245168
0.881517
0.822945
0.797138
0.895475
0.225191
0.172724
0.180791
0.186089
0.19036
0.194585
0.19794
0.200532
0.202982
0.205904
0.20952
0.217643
0.707555
0.55625
0.431699
0.409765
0.0768934
0.235553
0.25892
0.219258
0.0205089
0.03855
0.063885
0.0884842
0.10923
0.126003
0.138926
0.148715
0.157595
0.167399
0.175556
0.188542
0.546699
0.339564
0.207563
0.0914433
0.169941
0.245593
0.247465
0.169384
0.0400906
0.0122395
0.0174955
0.0301637
0.0476804
0.0657891
0.0824704
0.0989185
0.115208
0.130879
0.141702
0.157596
0.43312
0.219026
0.129209
0.0999484
0.184703
0.241569
0.244689
0.177722
0.0659185
0.0180607
0.0101557
0.012413
0.0185968
0.029085
0.043478
0.0603929
0.078218
0.0949925
0.10681
0.126578
0.36644
0.179792
0.130345
0.113549
0.193712
0.237995
0.241978
0.183024
0.0904479
0.0316431
0.0127197
0.00911343
0.00977477
0.0139289
0.0227093
0.0354211
0.0497714
0.0638115
0.0761016
0.0991408
0.332541
0.183619
0.144175
0.128187
0.19711
0.236044
0.239374
0.187548
0.111254
0.0501969
0.0196485
0.00994968
0.00990756
0.0106618
0.0139095
0.0205836
0.0295372
0.0406769
0.0525336
0.075691
0.336589
0.197393
0.170221
0.144378
0.200159
0.234883
0.236987
0.192346
0.127984
0.0690188
0.0310812
0.0145983
0.0108071
0.0109632
0.0115778
0.0134147
0.0178096
0.0260925
0.0365157
0.0574263
0.350574
0.223657
0.20433
0.16089
0.204853
0.235072
0.236758
0.196388
0.140413
0.0858637
0.0461854
0.0240306
0.0143692
0.0117042
0.0116707
0.0124495
0.0149178
0.020561
0.0282113
0.0444282
0.375835
0.255922
0.235603
0.177396
0.21089
0.235788
0.237142
0.19916
0.149962
0.102166
0.0635933
0.0373432
0.0215123
0.0137773
0.0125287
0.0131592
0.0153023
0.0191337
0.0236134
0.0352028
0.417264
0.293003
0.258719
0.193323
0.216648
0.237355
0.237729
0.201616
0.158877
0.118338
0.0815072
0.0520901
0.0309182
0.018391
0.0150887
0.0154206
0.0166191
0.0187361
0.0207835
0.0288039
0.483499
0.346775
0.286844
0.209931
0.222122
0.24016
0.238676
0.205138
0.168803
0.133563
0.0979077
0.0663762
0.0424473
0.0269187
0.0209612
0.0195179
0.01888
0.0192943
0.0206028
0.0260049
0.568899
0.415313
0.322867
0.225296
0.227668
0.24367
0.2399
0.209467
0.177255
0.14419
0.109926
0.0790666
0.0545768
0.0376513
0.0289592
0.0243772
0.0213789
0.020786
0.021406
0.0255126
0.770656
0.594705
0.447273
0.272629
0.248499
0.252159
0.244718
0.218507
0.19086
0.160989
0.130716
0.10308
0.0787199
0.0596811
0.0463195
0.0370793
0.0305873
0.0273894
0.0262217
0.0279003
2.38531
1.8623
1.09289
0.814782
0.952507
1.07528
1.06468
0.928431
0.740214
0.572017
0.45766
0.391071
0.356176
0.36136
0.378008
0.408358
0.45734
0.533448
0.626447
0.832998
1.88626
0.835016
0.5413
0.569764
0.912242
1.04794
1.03579
0.861801
0.576668
0.35203
0.229811
0.192883
0.196992
0.211478
0.23908
0.274032
0.318177
0.383412
0.465469
0.660318
1.11286
0.526419
0.471314
0.484185
0.881339
1.04412
1.03126
0.83289
0.446574
0.216263
0.136753
0.13844
0.154546
0.18359
0.219484
0.249167
0.274202
0.308904
0.356482
0.50935
0.777722
0.523965
0.446987
0.364241
0.719465
1.02622
1.07911
0.941545
0.41228
0.0963039
0.104747
0.118195
0.133876
0.151703
0.170371
0.188577
0.205225
0.223102
0.239158
0.299477
0.888507
0.837531
0.805627
0.626738
0.0826747
0.173083
0.188476
0.196638
0.19995
0.203673
0.209493
0.216112
0.221634
0.22691
0.233196
0.259631
1.00742
0.981252
0.979376
0.977547
0.238986
0.248726
0.244466
0.240887
0.238937
0.237687
0.23775
0.238326
0.239815
0.242603
0.246204
0.255037
1.00744
0.984747
0.982133
1.02767
0.262875
0.251268
0.248173
0.245143
0.24239
0.240376
0.239654
0.239432
0.23959
0.240143
0.241222
0.245987
0.880976
0.822563
0.796441
0.895519
0.224058
0.172586
0.180366
0.185593
0.189974
0.194548
0.198551
0.200926
0.202822
0.205919
0.209881
0.218787
0.706466
0.554568
0.42965
0.394605
0.0820712
0.234958
0.258007
0.218499
0.0206264
0.0392861
0.0648637
0.0896041
0.111166
0.127661
0.139235
0.148736
0.158064
0.168551
0.176944
0.189779
0.547353
0.339627
0.208839
0.0946044
0.170758
0.244903
0.246743
0.168698
0.0392414
0.0123263
0.0180958
0.0315781
0.0489741
0.0666082
0.0832883
0.0998577
0.117061
0.132286
0.141825
0.157789
0.435907
0.221789
0.130952
0.102784
0.185543
0.24076
0.243816
0.177069
0.0649473
0.018326
0.0103464
0.0123209
0.0183113
0.0292151
0.044115
0.0622089
0.0801381
0.0945161
0.105955
0.127277
0.367467
0.181771
0.133287
0.115848
0.193937
0.237256
0.240948
0.182655
0.0898273
0.0322931
0.0125266
0.00892802
0.00981418
0.0143941
0.0239017
0.0367759
0.0498469
0.0628791
0.0757295
0.100198
0.333985
0.185031
0.148117
0.13059
0.197131
0.235215
0.238242
0.187029
0.111458
0.0502541
0.0190169
0.0099372
0.010088
0.0112008
0.0143113
0.020233
0.0285218
0.0399015
0.0524944
0.0765901
0.33967
0.199667
0.174285
0.147192
0.200367
0.2338
0.235893
0.191551
0.12776
0.0683636
0.0305435
0.014942
0.0113776
0.0107528
0.0110132
0.012739
0.0173668
0.0264308
0.037293
0.0576543
0.355618
0.227214
0.207953
0.164173
0.205343
0.233994
0.235742
0.195539
0.139348
0.0852245
0.0461227
0.0251031
0.0148909
0.0111242
0.011118
0.0123201
0.015337
0.021541
0.0285823
0.0440572
0.382111
0.26014
0.238635
0.180974
0.211339
0.234897
0.236175
0.198246
0.148954
0.102119
0.0648593
0.0386801
0.0213651
0.013084
0.0124308
0.0132942
0.0157934
0.0191236
0.0229511
0.0346229
0.424753
0.29848
0.262912
0.19705
0.216863
0.236749
0.236804
0.200727
0.158527
0.119524
0.0829592
0.0522531
0.0301175
0.0180747
0.0157594
0.0160251
0.0168652
0.0180649
0.0200306
0.0285081
0.493189
0.354893
0.293324
0.214396
0.222478
0.239891
0.237727
0.204457
0.169373
0.134504
0.0975968
0.0658624
0.0419984
0.0277609
0.0224916
0.0198178
0.0182999
0.0186109
0.0200884
0.0263295
0.579313
0.426687
0.332572
0.230326
0.228646
0.243636
0.239123
0.208967
0.177931
0.144444
0.109561
0.0791257
0.0552208
0.0393421
0.0301896
0.0243397
0.0207902
0.0204948
0.0212692
0.0255071
0.779585
0.609785
0.465043
0.282608
0.252367
0.252831
0.244595
0.218675
0.191619
0.161405
0.131666
0.104629
0.080747
0.0614144
0.0473622
0.0376857
0.030923
0.0282348
0.0265648
0.027918
2.32765
1.91107
1.16601
0.839684
0.960252
1.08064
1.06903
0.934709
0.74742
0.579812
0.468217
0.398383
0.364941
0.370176
0.38677
0.416072
0.46496
0.542998
0.635804
0.840823
1.93431
0.938179
0.560898
0.568996
0.914999
1.05234
1.03932
0.86748
0.583797
0.356738
0.238691
0.200053
0.203588
0.219018
0.246879
0.281445
0.327246
0.395201
0.477974
0.671027
1.1909
0.539595
0.482513
0.48629
0.888887
1.04801
1.03385
0.837452
0.453535
0.221469
0.140824
0.145361
0.163101
0.191194
0.223297
0.250536
0.279137
0.319154
0.371993
0.530904
0.809829
0.525642
0.450164
0.371803
0.724542
1.02704
1.0796
0.941551
0.41778
0.100245
0.108248
0.12159
0.137952
0.156029
0.174251
0.191937
0.209109
0.228604
0.246789
0.317282
0.895564
0.839267
0.811844
0.630139
0.0846224
0.174501
0.188347
0.195367
0.199706
0.20495
0.211257
0.216926
0.222077
0.228649
0.236753
0.268429
1.01165
0.986128
0.9841
0.979245
0.237453
0.247683
0.243391
0.240235
0.238433
0.236933
0.237089
0.238011
0.240087
0.243559
0.24749
0.257186
1.00942
0.987227
0.984646
1.02894
0.260956
0.249998
0.246959
0.243876
0.241179
0.239424
0.238963
0.238785
0.238945
0.239597
0.241103
0.247019
0.884255
0.826974
0.80177
0.895943
0.222323
0.171988
0.179779
0.184849
0.189279
0.194628
0.198947
0.200665
0.20215
0.205395
0.21037
0.220679
0.70941
0.55856
0.436729
0.412377
0.0811263
0.23548
0.258101
0.218341
0.0224511
0.0399996
0.0652489
0.0904789
0.112513
0.128712
0.139998
0.148886
0.158563
0.170311
0.179115
0.191575
0.551381
0.342741
0.212582
0.0972776
0.173075
0.246019
0.247197
0.170174
0.0417338
0.0133443
0.0194334
0.0333376
0.0512288
0.0690699
0.0848427
0.101793
0.119902
0.134907
0.144213
0.159624
0.441505
0.227932
0.134927
0.104894
0.186259
0.241813
0.244123
0.178208
0.0676241
0.0199573
0.0112759
0.0132589
0.0195133
0.0303827
0.0459709
0.0653634
0.0836352
0.0982423
0.109035
0.129549
0.371033
0.187015
0.13953
0.118235
0.193898
0.238521
0.241145
0.183304
0.0927814
0.0347199
0.0135634
0.00957524
0.0103867
0.0153609
0.0257803
0.0394774
0.0533726
0.0665642
0.0784897
0.103186
0.340685
0.190414
0.155603
0.134454
0.198392
0.236574
0.238539
0.187608
0.114463
0.0534175
0.0204409
0.0105221
0.0108281
0.0123854
0.0159819
0.0225904
0.0313547
0.0422203
0.0550774
0.080146
0.347503
0.205894
0.18099
0.151879
0.20304
0.235254
0.2366
0.192758
0.130365
0.0717468
0.0320834
0.0159304
0.0126505
0.0124169
0.0128301
0.0147116
0.0191423
0.0285566
0.0400955
0.0614283
0.365007
0.2342
0.212672
0.168982
0.208589
0.235582
0.236592
0.197124
0.141494
0.0878489
0.048429
0.0270505
0.0167189
0.0129752
0.0129758
0.013772
0.0168512
0.0235035
0.0310887
0.0478624
0.393315
0.267681
0.241546
0.185847
0.214075
0.236672
0.23696
0.199276
0.150329
0.105087
0.0684808
0.0415817
0.0239362
0.0153385
0.0139745
0.0147068
0.0171837
0.0205561
0.0251283
0.0377433
0.437857
0.308845
0.268683
0.202303
0.219438
0.238796
0.237422
0.201098
0.160052
0.123128
0.0870912
0.0561954
0.0334643
0.0204862
0.0176119
0.0174577
0.018088
0.0193687
0.0216292
0.0306314
0.509934
0.369344
0.303605
0.221012
0.225942
0.242146
0.238286
0.204643
0.17183
0.138018
0.101967
0.0699174
0.0450599
0.0307566
0.025125
0.0215873
0.0197132
0.0201131
0.0214844
0.0278876
0.597564
0.444743
0.348063
0.238475
0.233456
0.24596
0.239913
0.209934
0.180798
0.147549
0.112987
0.0823189
0.0585826
0.0432125
0.033681
0.0271497
0.0228072
0.0219017
0.0225862
0.0269093
0.796407
0.630529
0.490511
0.299405
0.261579
0.255648
0.246136
0.220907
0.194037
0.163571
0.134127
0.107962
0.0849739
0.0661229
0.0520724
0.0415477
0.0335775
0.0300651
0.0281161
0.0295863
2.26508
1.94585
1.24501
0.878718
0.968029
1.0848
1.07266
0.94087
0.754352
0.588131
0.477845
0.405034
0.372931
0.378448
0.395647
0.425818
0.475669
0.55437
0.64623
0.848722
1.95565
1.04834
0.584338
0.5771
0.91698
1.05755
1.04479
0.875812
0.594045
0.3659
0.250488
0.209412
0.212265
0.2272
0.254285
0.289157
0.336822
0.406942
0.489812
0.680688
1.27311
0.563456
0.497484
0.489914
0.894823
1.05316
1.03978
0.847224
0.467365
0.228718
0.149969
0.155829
0.173136
0.198767
0.227333
0.254766
0.287184
0.331781
0.388764
0.551142
0.860264
0.536422
0.455954
0.38192
0.73595
1.03142
1.0838
0.94532
0.442448
0.105775
0.112875
0.126377
0.14349
0.162269
0.180408
0.198092
0.215652
0.236074
0.256252
0.33596
0.907103
0.843327
0.818285
0.636788
0.0869101
0.178331
0.190556
0.19771
0.203576
0.210005
0.215882
0.220771
0.225961
0.233512
0.24252
0.278014
1.0162
0.993773
0.992509
0.981745
0.238178
0.249879
0.246104
0.243341
0.241394
0.23977
0.23995
0.240871
0.24296
0.246212
0.249662
0.259568
1.0135
0.992346
0.990047
1.03383
0.260979
0.251802
0.24896
0.246058
0.243545
0.241853
0.241287
0.240691
0.240665
0.241168
0.242591
0.248643
0.889032
0.832721
0.808819
0.902094
0.222371
0.174535
0.182474
0.187434
0.191971
0.19693
0.200642