/*--------------------------------*- C++ -*----------------------------------*\
  =========                 |
  \\      /  F ield         | OpenFOAM: The Open Source CFD Toolbox
   \\    /   O peration     | Website:  https://openfoam.org
    \\  /    A nd           | Version:  9
     \\/     M anipulation  |
\*---------------------------------------------------------------------------*/
FoamFile
{
    format      ascii;
    class       volScalarField;
    location    "0.009";
    object      rho.Air;
}
// * * * * * * * * * * * * * * * * * * * * * * * * * * * * * * * * * * * * * //

dimensions      [1 -3 0 0 0 0 0];

internalField   nonuniform List<scalar> 
9720
(
0.00219926
0.00195672
0.00133177
0.000925603
0.000945634
0.00106422
0.00106007
0.000933182
0.000770265
0.000569437
0.000378224
0.00024673
0.000172893
0.000136268
0.000108022
8.21471e-05
7.90966e-05
8.21741e-05
9.04866e-05
0.000128259
0.00194882
0.00123462
0.000670541
0.000631366
0.000918906
0.00106564
0.00105316
0.000888446
0.000601964
0.000286294
0.000124885
6.61088e-05
4.3617e-05
3.59866e-05
3.10589e-05
2.56464e-05
2.52625e-05
2.64615e-05
2.96906e-05
4.35698e-05
0.00133734
0.000662481
0.00057404
0.000538752
0.000908793
0.00106078
0.00103981
0.000858852
0.00041704
9.02626e-05
2.79312e-05
1.47976e-05
1.08752e-05
9.72402e-06
9.15629e-06
8.38566e-06
8.17251e-06
8.37874e-06
9.03024e-06
1.26348e-05
0.000927345
0.000618713
0.000526136
0.000335952
0.000568117
0.000870597
0.000923096
0.000809835
0.000333056
8.67873e-06
4.8698e-06
3.79979e-06
3.41212e-06
3.27799e-06
3.20361e-06
3.17799e-06
3.19842e-06
3.2892e-06
3.46092e-06
4.47215e-06
0.000935272
0.000909698
0.000913358
0.000569377
1.02619e-05
3.01174e-06
2.89296e-06
2.77746e-06
2.69353e-06
2.66738e-06
2.6621e-06
2.67331e-06
2.71152e-06
2.79831e-06
2.9166e-06
3.39623e-06
0.00104171
0.00105147
0.00105468
0.000835405
5.56836e-06
3.78827e-06
3.51365e-06
3.29186e-06
3.11616e-06
2.99762e-06
2.91104e-06
2.87684e-06
2.88787e-06
2.92248e-06
2.96891e-06
3.11883e-06
0.00103888
0.001043
0.00104713
0.00088362
5.86006e-06
3.74503e-06
3.49764e-06
3.29367e-06
3.12865e-06
3.0004e-06
2.91719e-06
2.86068e-06
2.8288e-06
2.8335e-06
2.85021e-06
2.93647e-06
0.000914884
0.000883876
0.000866746
0.000764606
4.7955e-06
2.52551e-06
2.50859e-06
2.47334e-06
2.43047e-06
2.39819e-06
2.38745e-06
2.37986e-06
2.38402e-06
2.40593e-06
2.44735e-06
2.5701e-06
0.000754023
0.000591326
0.000399758
0.000276958
2.75215e-06
5.97922e-06
6.37172e-06
5.13633e-06
4.81782e-07
6.43117e-07
9.58572e-07
1.2265e-06
1.43289e-06
1.59517e-06
1.70992e-06
1.79188e-06
1.86944e-06
1.95787e-06
2.04496e-06
2.21719e-06
0.000553939
0.000277756
8.53931e-05
6.79686e-06
2.84095e-06
3.74951e-06
3.69902e-06
2.52673e-06
6.75613e-07
2.16094e-07
2.92958e-07
4.68654e-07
7.02456e-07
9.16894e-07
1.09319e-06
1.25361e-06
1.39361e-06
1.54307e-06
1.66862e-06
1.87814e-06
0.000366692
0.000120436
2.57005e-05
3.97955e-06
2.71507e-06
3.39763e-06
3.38191e-06
2.47031e-06
9.89155e-07
2.94814e-07
1.6097e-07
1.98882e-07
2.91925e-07
4.38248e-07
6.14472e-07
7.99373e-07
9.84954e-07
1.16598e-06
1.30675e-06
1.55156e-06
0.000240553
6.45604e-05
1.39991e-05
3.30802e-06
2.60138e-06
3.12703e-06
3.13482e-06
2.40132e-06
1.24742e-06
4.7548e-07
1.96879e-07
1.36491e-07
1.50726e-07
2.163e-07
3.35634e-07
4.96884e-07
6.69116e-07
8.36416e-07
9.85231e-07
1.2508e-06
0.000168367
4.26413e-05
1.02516e-05
3.07482e-06
2.51866e-06
2.92095e-06
2.94079e-06
2.32802e-06
1.43925e-06
7.17406e-07
2.90831e-07
1.49278e-07
1.53043e-07
1.72059e-07
2.25267e-07
3.17426e-07
4.31989e-07
5.7739e-07
7.17759e-07
9.81261e-07
0.000131
3.4276e-05
8.90335e-06
2.98023e-06
2.48275e-06
2.78883e-06
2.79786e-06
2.28006e-06
1.5878e-06
9.33976e-07
4.38328e-07
2.1101e-07
1.72246e-07
1.79464e-07
1.92575e-07
2.21964e-07
2.89519e-07
4.05081e-07
5.22434e-07
7.69772e-07
0.000103092
2.92002e-05
8.32064e-06
2.9079e-06
2.4624e-06
2.6978e-06
2.70876e-06
2.25934e-06
1.68558e-06
1.10221e-06
6.1502e-07
3.27999e-07
2.24473e-07
1.9382e-07
1.9195e-07
2.00444e-07
2.37308e-07
3.10333e-07
3.99759e-07
6.18369e-07
7.71008e-05
2.36917e-05
7.69199e-06
2.91378e-06
2.47257e-06
2.65922e-06
2.64218e-06
2.23546e-06
1.74468e-06
1.24877e-06
7.99705e-07
4.9068e-07
3.16535e-07
2.26411e-07
2.02166e-07
2.07286e-07
2.23464e-07
2.56624e-07
3.1924e-07
5.02077e-07
7.30041e-05
2.28684e-05
7.44596e-06
2.94518e-06
2.51203e-06
2.6701e-06
2.61232e-06
2.2355e-06
1.80316e-06
1.37496e-06
9.81108e-07
6.65893e-07
4.34808e-07
2.96403e-07
2.42273e-07
2.25944e-07
2.29135e-07
2.47954e-07
2.83519e-07
4.24072e-07
7.55869e-05
2.38226e-05
7.60933e-06
3.04614e-06
2.60148e-06
2.70483e-06
2.61996e-06
2.25295e-06
1.87747e-06
1.50953e-06
1.15535e-06
8.34016e-07
5.79257e-07
4.10475e-07
3.18174e-07
2.69314e-07
2.53533e-07
2.61873e-07
2.87943e-07
3.83414e-07
8.27822e-05
2.65895e-05
8.15806e-06
3.22173e-06
2.72093e-06
2.75305e-06
2.64175e-06
2.29428e-06
1.9551e-06
1.62314e-06
1.2872e-06
9.74847e-07
7.13367e-07
5.2781e-07
4.12779e-07
3.4171e-07
2.96626e-07
2.96593e-07
3.08666e-07
3.75381e-07
0.000116907
3.9307e-05
1.14225e-05
4.19152e-06
3.19548e-06
2.91665e-06
2.74298e-06
2.42521e-06
2.12217e-06
1.81893e-06
1.51386e-06
1.22461e-06
9.69699e-07
7.75479e-07
6.34858e-07
5.25082e-07
4.40152e-07
4.01349e-07
3.86224e-07
4.16768e-07
0.00238049
0.00232923
0.0016502
0.00112971
0.00105563
0.00119721
0.00119745
0.00106395
0.000848194
0.000537697
0.000279977
0.000153339
0.00010141
7.97436e-05
6.34864e-05
5.07039e-05
5.06078e-05
5.33792e-05
5.96574e-05
8.64601e-05
0.00231534
0.00167522
0.00112624
0.00113423
0.0015481
0.00176557
0.00169074
0.00138082
0.000723544
0.000205078
6.26014e-05
3.07217e-05
2.1698e-05
1.91772e-05
1.72982e-05
1.51886e-05
1.53219e-05
1.64607e-05
1.88939e-05
2.87149e-05
0.00164001
0.00106444
0.00172657
0.0026332
0.00379227
0.00351168
0.00330019
0.00258854
0.000469319
3.73088e-05
9.48682e-06
5.5403e-06
4.70246e-06
4.75264e-06
4.85794e-06
4.815e-06
4.86476e-06
5.10511e-06
5.63751e-06
8.21691e-06
0.00109974
0.00102804
0.002408
0.00255089
0.00549154
0.00604402
0.00586617
0.00527604
0.000663508
1.32979e-06
1.48823e-06
1.58402e-06
1.67845e-06
1.78655e-06
1.89524e-06
2.0087e-06
2.12425e-06
2.27517e-06
2.45264e-06
3.22424e-06
0.00103722
0.00143389
0.00367082
0.00532001
8.62597e-06
1.19582e-06
1.31158e-06
1.41952e-06
1.52499e-06
1.63757e-06
1.74569e-06
1.84468e-06
1.9471e-06
2.07707e-06
2.21069e-06
2.63213e-06
0.00116974
0.00173013
0.00368315
0.00742332
1.39883e-06
1.50406e-06
1.63744e-06
1.75243e-06
1.85102e-06
1.93702e-06
2.01518e-06
2.09095e-06
2.168e-06
2.25518e-06
2.33561e-06
2.51774e-06
0.00117766
0.00168537
0.00338645
0.00725599
1.60223e-06
1.57898e-06
1.71326e-06
1.82652e-06
1.91953e-06
1.99851e-06
2.07234e-06
2.13745e-06
2.18921e-06
2.24284e-06
2.29681e-06
2.43152e-06
0.00105214
0.00139612
0.00261054
0.00687783
1.41742e-06
1.12549e-06
1.27448e-06
1.4e-06
1.50951e-06
1.61611e-06
1.71267e-06
1.78949e-06
1.8562e-06
1.933e-06
2.01489e-06
2.17861e-06
0.000834994
0.000709967
0.000434145
0.000595475
1.46879e-06
1.10397e-06
1.27578e-06
1.1019e-06
1.52403e-07
2.85584e-07
4.90581e-07
7.05806e-07
9.07918e-07
1.08484e-06
1.22852e-06
1.34385e-06
1.46106e-06
1.59502e-06
1.70825e-06
1.89397e-06
0.000518294
0.000191059
3.30839e-05
6.28448e-07
8.792e-07
1.224e-06
1.27311e-06
9.13925e-07
2.67579e-07
1.08698e-07
1.58794e-07
2.79536e-07
4.4907e-07
6.20985e-07
7.77634e-07
9.43974e-07
1.10998e-06
1.26968e-06
1.39215e-06
1.59813e-06
0.000262517
5.58289e-05
7.65212e-06
9.38006e-07
1.03218e-06
1.34981e-06
1.40287e-06
1.05509e-06
4.43018e-07
1.52377e-07
1.02345e-07
1.23207e-07
1.82355e-07
2.87907e-07
4.39268e-07
6.18042e-07
7.93203e-07
9.56079e-07
1.07957e-06
1.32112e-06
0.000142118
2.74261e-05
4.54993e-06
1.1444e-06
1.1537e-06
1.45673e-06
1.51454e-06
1.17504e-06
6.28022e-07
2.6037e-07
1.20336e-07
9.45308e-08
1.04903e-07
1.54574e-07
2.53653e-07
3.89244e-07
5.35327e-07
6.73945e-07
8.04422e-07
1.0747e-06
9.28429e-05
1.92927e-05
3.88989e-06
1.3066e-06
1.26378e-06
1.54903e-06
1.60925e-06
1.28214e-06
8.08611e-07
4.16099e-07
1.73903e-07
1.03854e-07
1.10482e-07
1.31397e-07
1.75024e-07
2.46926e-07
3.34606e-07
4.51068e-07
5.86451e-07
8.51432e-07
7.19511e-05
1.65999e-05
3.91134e-06
1.44888e-06
1.37329e-06
1.63159e-06
1.68843e-06
1.38556e-06
9.69966e-07
5.74533e-07
2.70249e-07
1.47064e-07
1.3074e-07
1.37791e-07
1.48299e-07
1.68374e-07
2.18232e-07
3.22423e-07
4.39214e-07
6.70404e-07
5.68292e-05
1.48079e-05
4.01621e-06
1.57326e-06
1.47528e-06
1.70876e-06
1.76161e-06
1.47953e-06
1.10025e-06
7.16423e-07
4.08149e-07
2.35058e-07
1.70471e-07
1.48632e-07
1.4783e-07
1.57276e-07
1.94625e-07
2.66375e-07
3.47394e-07
5.36878e-07
4.46422e-05
1.29006e-05
4.04885e-06
1.69451e-06
1.56945e-06
1.78288e-06
1.82651e-06
1.55312e-06
1.20192e-06
8.65585e-07
5.72352e-07
3.61383e-07
2.36671e-07
1.69177e-07
1.58457e-07
1.67778e-07
1.93966e-07
2.30734e-07
2.83571e-07
4.37571e-07
4.4351e-05
1.29912e-05
4.11889e-06
1.81058e-06
1.66723e-06
1.85716e-06
1.87956e-06
1.61585e-06
1.30427e-06
1.01476e-06
7.35933e-07
5.01114e-07
3.20123e-07
2.17296e-07
1.95999e-07
1.94919e-07
2.01666e-07
2.20991e-07
2.52582e-07
3.77647e-07
4.67112e-05
1.39627e-05
4.34243e-06
1.95477e-06
1.79024e-06
1.93969e-06
1.93423e-06
1.68734e-06
1.42334e-06
1.15996e-06
8.88526e-07
6.33045e-07
4.29167e-07
3.13759e-07
2.64615e-07
2.35482e-07
2.23982e-07
2.31645e-07
2.55764e-07
3.50038e-07
5.21486e-05
1.60879e-05
4.80229e-06
2.11933e-06
1.91482e-06
2.01668e-06
1.98882e-06
1.76398e-06
1.52621e-06
1.27134e-06
1.00201e-06
7.52443e-07
5.52952e-07
4.23574e-07
3.44193e-07
2.90711e-07
2.59679e-07
2.61115e-07
2.75756e-07
3.4323e-07
7.5787e-05
2.48274e-05
7.06634e-06
2.80988e-06
2.29831e-06
2.19493e-06
2.12377e-06
1.92228e-06
1.70171e-06
1.45977e-06
1.21872e-06
9.97369e-07
8.01237e-07
6.45199e-07
5.28108e-07
4.386e-07
3.81157e-07
3.60917e-07
3.51856e-07
3.79157e-07
0.00286169
0.00326406
0.00244236
0.00145687
0.00134637
0.00154966
0.00154715
0.00145659
0.000842591
0.00028902
8.08411e-05
3.42491e-05
2.31524e-05
1.92123e-05
1.58489e-05
1.4838e-05
1.55674e-05
1.74124e-05
2.0319e-05
3.09862e-05
0.0032721
0.00308669
0.00187668
0.00216208
0.0029498
0.00331662
0.003227
0.00279821
0.000399644
4.76733e-05
9.27189e-06
4.89539e-06
4.391e-06
4.4211e-06
4.52093e-06
4.63593e-06
5.00319e-06
5.80774e-06
7.03069e-06
1.12117e-05
0.00249883
0.00176661
0.00362124
0.00535259
0.00634666
0.00611382
0.00628078
0.00404105
9.36666e-05
3.54527e-06
1.0946e-06
1.12688e-06
1.27475e-06
1.52198e-06
1.81267e-06
2.04927e-06
2.2736e-06
2.57752e-06
2.96704e-06
4.33395e-06
0.00145941
0.00178257
0.00467593
0.0198863
0.0104294
0.0111306
0.0241314
0.000829193
1.23615e-05
4.48723e-07
6.26437e-07
7.97283e-07
9.60951e-07
1.11872e-06
1.26691e-06
1.41383e-06
1.55772e-06
1.71993e-06
1.89142e-06
2.45281e-06
0.00136153
0.0027487
0.00477306
0.000478758
3.87834e-07
1.23888e-06
1.35684e-06
1.43485e-06
1.49315e-06
1.55631e-06
1.62667e-06
1.69617e-06
1.76784e-06
1.86011e-06
1.95895e-06
2.27361e-06
0.00151205
0.00330074
0.00664116
0.0260895
1.40659e-06
1.82578e-06
1.82586e-06
1.8374e-06
1.86325e-06
1.89587e-06
1.93617e-06
1.983e-06
2.03534e-06
2.09861e-06
2.15772e-06
2.29476e-06
0.0015327
0.00333189
0.00660147
0.0269737
1.65742e-06
1.91554e-06
1.91976e-06
1.9297e-06
1.94843e-06
1.97664e-06
2.01329e-06
2.05462e-06
2.09014e-06
2.12713e-06
2.16688e-06
2.2764e-06
0.00144934
0.00293089
0.00427847
0.000609269
1.47137e-06
1.36759e-06
1.43599e-06
1.49325e-06
1.55254e-06
1.62361e-06
1.68716e-06
1.73397e-06
1.78038e-06
1.84814e-06
1.92838e-06
2.08269e-06
0.000839487
0.00040231
9.42161e-05
9.95915e-06
4.11395e-07
1.20251e-06
1.40474e-06
1.2297e-06
1.64281e-07
3.34658e-07
5.47108e-07
7.62305e-07
9.51607e-07
1.09574e-06
1.20705e-06
1.30523e-06
1.41635e-06
1.5509e-06
1.65597e-06
1.82232e-06
0.000277299
4.23143e-05
3.03189e-06
3.38024e-07
1.02415e-06
1.51983e-06
1.58776e-06
1.1322e-06
3.00954e-07
1.1246e-07
1.68553e-07
2.92664e-07
4.49102e-07
6.06512e-07
7.53965e-07
9.20005e-07
1.09862e-06
1.2477e-06
1.34865e-06
1.53753e-06
7.26671e-05
7.54506e-06
8.2283e-07
4.81762e-07
1.10972e-06
1.50447e-06
1.57744e-06
1.18542e-06
4.76645e-07
1.59371e-07
9.99092e-08
1.15572e-07
1.70959e-07
2.73811e-07
4.26936e-07
6.15749e-07
7.87247e-07
9.26075e-07
1.03794e-06
1.277e-06
2.94869e-05
3.9711e-06
8.56326e-07
6.17112e-07
1.1691e-06
1.50795e-06
1.58058e-06
1.22969e-06
6.54421e-07
2.64142e-07
1.12372e-07
9.2599e-08
1.01816e-07
1.51101e-07
2.52073e-07
3.821e-07
5.12821e-07
6.41248e-07
7.67367e-07
1.0523e-06
1.94308e-05
3.53439e-06
9.80536e-07
7.46335e-07
1.21293e-06
1.52e-06
1.59068e-06
1.2781e-06
8.13581e-07
3.9905e-07
1.59934e-07
1.0085e-07
1.07328e-07
1.25405e-07
1.60317e-07
2.22402e-07
3.05448e-07
4.18711e-07
5.61621e-07
8.45946e-07
1.60762e-05
3.43711e-06
1.16955e-06
8.71299e-07
1.25955e-06
1.53813e-06
1.60649e-06
1.33441e-06
9.33252e-07
5.35236e-07
2.50504e-07
1.43563e-07
1.23656e-07
1.25404e-07
1.30677e-07
1.50601e-07
1.98906e-07
3.05661e-07
4.31982e-07
6.67103e-07
1.31519e-05
3.48682e-06
1.39285e-06
9.90265e-07
1.31216e-06
1.56457e-06
1.63139e-06
1.38362e-06
1.02282e-06
6.61312e-07
3.8543e-07
2.30824e-07
1.53202e-07
1.30017e-07
1.31885e-07
1.45396e-07
1.86659e-07
2.64232e-07
3.45616e-07
5.29591e-07
1.20188e-05
3.57787e-06
1.58897e-06
1.11048e-06
1.36525e-06
1.59868e-06
1.66357e-06
1.41928e-06
1.10137e-06
8.03121e-07
5.50079e-07
3.44858e-07
2.05248e-07
1.47922e-07
1.45163e-07
1.5808e-07
1.92678e-07
2.33357e-07
2.82897e-07
4.29141e-07
1.25805e-05
3.88546e-06
1.77887e-06
1.22996e-06
1.42118e-06
1.63955e-06
1.69368e-06
1.45607e-06
1.19152e-06
9.53338e-07
6.98772e-07
4.61087e-07
2.78126e-07
1.90656e-07
1.85428e-07
1.92336e-07
2.03614e-07
2.2284e-07
2.54515e-07
3.76774e-07
1.40815e-05
4.54385e-06
2.02812e-06
1.36276e-06
1.49375e-06
1.691e-06
1.72611e-06
1.5114e-06
1.3007e-06
1.07892e-06
8.21548e-07
5.77658e-07
3.80823e-07
2.85867e-07
2.5533e-07
2.31594e-07
2.23833e-07
2.3293e-07
2.57486e-07
3.58585e-07
1.64955e-05
5.54378e-06
2.34088e-06
1.50236e-06
1.57292e-06
1.74092e-06
1.76033e-06
1.57704e-06
1.38904e-06
1.16664e-06
9.21028e-07
6.91443e-07
5.09585e-07
3.99062e-07
3.28417e-07
2.77404e-07
2.57549e-07
2.60929e-07
2.77918e-07
3.52996e-07
2.55245e-05
9.0258e-06
3.45046e-06
1.96023e-06
1.82764e-06
1.85856e-06
1.85516e-06
1.71099e-06
1.53534e-06
1.32928e-06
1.12496e-06
9.37861e-07
7.64112e-07
6.12793e-07
4.95217e-07
4.10065e-07
3.71912e-07
3.65136e-07
3.60747e-07
3.90254e-07
0.00292672
0.00403294
0.00430993
0.00296408
0.00245993
0.00234728
0.00217297
0.00200301
0.000288735
4.11585e-05
6.66662e-06
2.8899e-06
2.63926e-06
2.58647e-06
2.64733e-06
2.85726e-06
3.31769e-06
4.09243e-06
5.06554e-06
7.80224e-06
0.00404043
0.00988435
0.0132677
0.00970703
0.00807297
0.0079225
0.00709374
0.00559348
5.71263e-05
2.74418e-06
7.28179e-07
7.94882e-07
9.80005e-07
1.24604e-06
1.55609e-06
1.86641e-06
2.22594e-06
2.74705e-06
3.3744e-06
4.91725e-06
0.00442972
0.0136238
0.0143453
0.00868964
0.00848828
0.00928885
0.00973005
0.00619048
9.23131e-06
4.5775e-07
5.08663e-07
6.40509e-07
8.7798e-07
1.1913e-06
1.56004e-06
1.86737e-06
2.12382e-06
2.43862e-06
2.80441e-06
3.78597e-06
0.00305074
0.0103883
0.0091682
0.000358169
0.000893211
0.00248188
0.0281522
0.00036591
3.06866e-07
5.92474e-07
8.34457e-07
1.05947e-06
1.2558e-06
1.4308e-06
1.56664e-06
1.70096e-06
1.833e-06
1.97359e-06
2.11671e-06
2.62853e-06
0.00246723
0.00855948
0.00928527
0.00072141
8.29655e-07
1.70489e-06
1.84719e-06
1.92014e-06
1.94698e-06
1.97833e-06
2.02853e-06
2.08667e-06
2.14271e-06
2.20901e-06
2.28485e-06
2.55363e-06
0.00223327
0.00790304
0.0097629
0.0132682
2.12028e-06
2.55201e-06
2.51534e-06
2.47869e-06
2.45418e-06
2.43649e-06
2.43851e-06
2.44963e-06
2.47145e-06
2.50706e-06
2.54723e-06
2.642e-06
0.00203914
0.00684714
0.00960233
0.0292916
2.46847e-06
2.66759e-06
2.64122e-06
2.60819e-06
2.57501e-06
2.5497e-06
2.54431e-06
2.54786e-06
2.55273e-06
2.56034e-06
2.57317e-06
2.63428e-06
0.00185656
0.00529561
0.00652789
0.000486584
2.1722e-06
1.8807e-06
1.95427e-06
2.00257e-06
2.04467e-06
2.09133e-06
2.12685e-06
2.14543e-06
2.16714e-06
2.21353e-06
2.27629e-06
2.40408e-06
0.000332948
4.86496e-05
4.83309e-06
2.27627e-07
6.75353e-07
1.70951e-06
1.98571e-06
1.73091e-06
2.09861e-07
4.23005e-07
7.06955e-07
9.86489e-07
1.22449e-06
1.392e-06
1.50658e-06
1.60903e-06
1.72149e-06
1.85296e-06
1.95163e-06
2.10762e-06
4.32725e-05
2.52399e-06
4.0712e-07
4.62321e-07
1.34572e-06
2.00444e-06
2.08804e-06
1.4833e-06
3.81774e-07
1.32209e-07
2.00826e-07
3.56969e-07
5.47487e-07
7.35802e-07
9.19344e-07
1.11555e-06
1.32207e-06
1.49094e-06
1.59161e-06
1.78075e-06
6.49392e-06
6.42193e-07
4.37749e-07
6.46975e-07
1.45707e-06
1.97394e-06
2.06874e-06
1.55009e-06
6.07609e-07
1.89385e-07
1.14713e-07
1.33541e-07
1.97756e-07
3.24029e-07
5.06941e-07
7.30868e-07
9.37928e-07
1.08812e-06
1.21116e-06
1.47294e-06
2.67992e-06
6.87407e-07
5.27191e-07
8.22257e-07
1.51319e-06
1.94541e-06
2.04654e-06
1.59134e-06
8.29568e-07
3.20697e-07
1.30039e-07
1.03858e-07
1.15685e-07
1.7303e-07
2.92047e-07
4.46932e-07
5.91404e-07
7.34561e-07
8.87211e-07
1.20779e-06
2.38488e-06
8.24588e-07
6.99245e-07
9.74194e-07
1.53381e-06
1.92616e-06
2.02322e-06
1.62677e-06
1.02153e-06
4.85774e-07
1.8534e-07
1.14589e-07
1.20836e-07
1.40358e-07
1.78665e-07
2.44614e-07
3.37482e-07
4.76449e-07
6.42988e-07
9.66109e-07
2.3927e-06
1.02398e-06
9.32808e-07
1.10773e-06
1.558e-06
1.91611e-06
2.00728e-06
1.66705e-06
1.16117e-06
6.4573e-07
2.93753e-07
1.62889e-07
1.37864e-07
1.3171e-07
1.35234e-07
1.57616e-07
2.17164e-07
3.39888e-07
4.84047e-07
7.5262e-07
2.32037e-06
1.26522e-06
1.21399e-06
1.20935e-06
1.59658e-06
1.91937e-06
2.00865e-06
1.70167e-06
1.25338e-06
7.93789e-07
4.47106e-07
2.62316e-07
1.69464e-07
1.3486e-07
1.3634e-07
1.55855e-07
2.03069e-07
2.90164e-07
3.83241e-07
5.8653e-07
2.41673e-06
1.50981e-06
1.44879e-06
1.30963e-06
1.64268e-06
1.93035e-06
2.01615e-06
1.72399e-06
1.33133e-06
9.48405e-07
6.33337e-07
3.94411e-07
2.24357e-07
1.53536e-07
1.53617e-07
1.70904e-07
2.11805e-07
2.61652e-07
3.13564e-07
4.71717e-07
2.70248e-06
1.77603e-06
1.63984e-06
1.41117e-06
1.68696e-06
1.95112e-06
2.02709e-06
1.74632e-06
1.41692e-06
1.11412e-06
8.10957e-07
5.24456e-07
3.02535e-07
2.01583e-07
1.97856e-07
2.0889e-07
2.27555e-07
2.51827e-07
2.85955e-07
4.17846e-07
3.23645e-06
2.15647e-06
1.87245e-06
1.52042e-06
1.73864e-06
1.98459e-06
2.04201e-06
1.78519e-06
1.51954e-06
1.25862e-06
9.47046e-07
6.52623e-07
4.21265e-07
3.0302e-07
2.71329e-07
2.54403e-07
2.50242e-07
2.60833e-07
2.90372e-07
4.04284e-07
3.95067e-06
2.61623e-06
2.14376e-06
1.63186e-06
1.79905e-06
2.02288e-06
2.05917e-06
1.83504e-06
1.60457e-06
1.34889e-06
1.05439e-06
7.82798e-07
5.62473e-07
4.25384e-07
3.49587e-07
2.97246e-07
2.83869e-07
2.90524e-07
3.12261e-07
3.98439e-07
6.10457e-06
3.80234e-06
2.89089e-06
2.03235e-06
2.00918e-06
2.10932e-06
2.11832e-06
1.94394e-06
1.7447e-06
1.50955e-06
1.26875e-06
1.04624e-06
8.39643e-07
6.62896e-07
5.26225e-07
4.32091e-07
4.00787e-07
4.00158e-07
4.00079e-07
4.369e-07
0.00170778
0.00170297
0.00147853
0.00116222
0.00100303
0.000879136
0.000794207
0.00073127
4.22739e-05
4.37868e-06
8.36361e-07
8.91906e-07
1.06706e-06
1.31076e-06
1.55695e-06
1.8111e-06
2.14399e-06
2.62925e-06
3.19407e-06
4.38603e-06
0.00172184
0.00268643
0.00263644
0.00252917
0.00246684
0.002598
0.00247769
0.00190082
4.62603e-06
2.88652e-07
3.58391e-07
5.38558e-07
7.95669e-07
1.07712e-06
1.39125e-06
1.72783e-06
2.09498e-06
2.57876e-06
3.12347e-06
4.18889e-06
0.00152009
0.0026688
0.00467687
0.00507389
0.00675346
0.00695343
0.00731288
0.00497966
1.08825e-07
2.67118e-07
4.34353e-07
6.36775e-07
9.41614e-07
1.32564e-06
1.73393e-06
2.08384e-06
2.36659e-06
2.71461e-06
3.13042e-06
4.16585e-06
0.00121454
0.00240298
0.00488254
0.00148991
0.00224804
3.98748e-09
0.0218189
0.00041277
1.15345e-06
7.4405e-07
1.04028e-06
1.30848e-06
1.53365e-06
1.74085e-06
1.91859e-06
2.07262e-06
2.21335e-06
2.3488e-06
2.47969e-06
2.99381e-06
0.00103015
0.00249187
0.00572042
9.59307e-05
1.00187e-06
2.03798e-06
2.21594e-06
2.31421e-06
2.34223e-06
2.37035e-06
2.42199e-06
2.49122e-06
2.55495e-06
2.61902e-06
2.69072e-06
2.9511e-06
0.000876821
0.00266008
0.00704004
0.00031629
2.72071e-06
3.06718e-06
3.01807e-06
2.97113e-06
2.9426e-06
2.9245e-06
2.92068e-06
2.92673e-06
2.94392e-06
2.97544e-06
3.01393e-06
3.09578e-06
0.000784258
0.00248779
0.00744179
0.0241588
3.16561e-06
3.22415e-06
3.18507e-06
3.14454e-06
3.10597e-06
3.07374e-06
3.05531e-06
3.05176e-06
3.05248e-06
3.05654e-06
3.06192e-06
3.10013e-06
0.000717844
0.00187266
0.00499848
0.000303138
2.79695e-06
2.26136e-06
2.35013e-06
2.41005e-06
2.46244e-06
2.51037e-06
2.54721e-06
2.57293e-06
2.59864e-06
2.64125e-06
2.69366e-06
2.81235e-06
6.02637e-05
5.63774e-06
2.7329e-07
2.38716e-07
7.88764e-07
2.11622e-06
2.45356e-06
2.13204e-06
2.41255e-07
4.96796e-07
8.40315e-07
1.16856e-06
1.44266e-06
1.65642e-06
1.81601e-06
1.94305e-06
2.06277e-06
2.18973e-06
2.29718e-06
2.47509e-06
6.78618e-06
4.35479e-07
3.55212e-07
5.79958e-07
1.62026e-06
2.41664e-06
2.51835e-06
1.77932e-06
4.49293e-07
1.52007e-07
2.27846e-07
4.04873e-07
6.42519e-07
8.8488e-07
1.10936e-06
1.33358e-06
1.55501e-06
1.75949e-06
1.89749e-06
2.11386e-06
1.34234e-06
4.85511e-07
4.52618e-07
8.09509e-07
1.75957e-06
2.37737e-06
2.49119e-06
1.86565e-06
7.21096e-07
2.14358e-07
1.30978e-07
1.60504e-07
2.46367e-07
3.95508e-07
6.01109e-07
8.44432e-07
1.0905e-06
1.31185e-06
1.46768e-06
1.74767e-06
9.84449e-07
5.85089e-07
5.76665e-07
1.02035e-06
1.8347e-06
2.34033e-06
2.46642e-06
1.91972e-06
9.82475e-07
3.62947e-07
1.55323e-07
1.22254e-07
1.32919e-07
1.93448e-07
3.22196e-07
5.05662e-07
7.06231e-07
9.01689e-07
1.07713e-06
1.41589e-06
1.08732e-06
7.34679e-07
7.77897e-07
1.19943e-06
1.85579e-06
2.31916e-06
2.4442e-06
1.95965e-06
1.20113e-06
5.63909e-07
2.26959e-07
1.31283e-07
1.34716e-07
1.50431e-07
1.98957e-07
2.93726e-07
4.22124e-07
5.87864e-07
7.66131e-07
1.12148e-06
1.26851e-06
9.31527e-07
1.04607e-06
1.36354e-06
1.87587e-06
2.30785e-06
2.42456e-06
1.99572e-06
1.37331e-06
7.66382e-07
3.51667e-07
1.80045e-07
1.48199e-07
1.53103e-07
1.64406e-07
1.93746e-07
2.61826e-07
3.90462e-07
5.50918e-07
8.78099e-07
1.43954e-06
1.1714e-06
1.35067e-06
1.50188e-06
1.91307e-06
2.3056e-06
2.41316e-06
2.02999e-06
1.50271e-06
9.46172e-07
5.20997e-07
2.84058e-07
1.87015e-07
1.63062e-07
1.65746e-07
1.83145e-07
2.25984e-07
3.15469e-07
4.36503e-07
6.95654e-07
1.59865e-06
1.43505e-06
1.63006e-06
1.61104e-06
1.96424e-06
2.30995e-06
2.41501e-06
2.06451e-06
1.60035e-06
1.12022e-06
7.17384e-07
4.35983e-07
2.6283e-07
1.86402e-07
1.80657e-07
1.93927e-07
2.32649e-07
3.01813e-07
3.78369e-07
5.65866e-07
1.80777e-06
1.70303e-06
1.84895e-06
1.71192e-06
2.01055e-06
2.32347e-06
2.42143e-06
2.09498e-06
1.68898e-06
1.29131e-06
9.21221e-07
6.08087e-07
3.66819e-07
2.35494e-07
2.18753e-07
2.28253e-07
2.56017e-07
3.06147e-07
3.45029e-07
4.86573e-07
2.13827e-06
2.0546e-06
2.10709e-06
1.81159e-06
2.05614e-06
2.35007e-06
2.43319e-06
2.12699e-06
1.78349e-06
1.45738e-06
1.10937e-06
7.73249e-07
4.99361e-07
3.32088e-07
2.89934e-07
2.9172e-07
3.01381e-07
3.18422e-07
3.45475e-07
4.52829e-07
2.55203e-06
2.45499e-06
2.40332e-06
1.90758e-06
2.10975e-06
2.38402e-06
2.4418e-06
2.16316e-06
1.86981e-06
1.57696e-06
1.2394e-06
9.16235e-07
6.44468e-07
4.61272e-07
3.85934e-07
3.52018e-07
3.38268e-07
3.42588e-07
3.59268e-07
4.53403e-07
3.47642e-06
3.27862e-06
3.1671e-06
2.28989e-06
2.30312e-06
2.45596e-06
2.47756e-06
2.25801e-06
2.02501e-06
1.75985e-06
1.46834e-06
1.19229e-06
9.40297e-07
7.38056e-07
5.97918e-07
4.99466e-07
4.53576e-07
4.4035e-07
4.44858e-07
4.99656e-07
0.00168581
0.0017032
0.00148802
0.00116161
0.000996364
0.00087114
0.000787333
0.000725066
3.50625e-05
3.74013e-06
8.44743e-07
9.06871e-07
1.07499e-06
1.30514e-06
1.54957e-06
1.81373e-06
2.16423e-06
2.66841e-06
3.25118e-06
4.45493e-06
0.00169439
0.00266481
0.00263715
0.00257476
0.00244019
0.00255277
0.00244495
0.00189257
4.35577e-06
3.83705e-07
4.32935e-07
5.91652e-07
8.31281e-07
1.09822e-06
1.40483e-06
1.74241e-06
2.13095e-06
2.64145e-06
3.2143e-06
4.31225e-06
0.00150933
0.00266015
0.00468778
0.00506212
0.00695526
0.00691529
0.00720646
0.00495081
3.58286e-07
3.85869e-07
5.00028e-07
6.81728e-07
9.89029e-07
1.38676e-06
1.80729e-06
2.16304e-06
2.45702e-06
2.82155e-06
3.26265e-06
4.35325e-06
0.00121637
0.00240905
0.00493911
0.00158038
0.00615337
0.000144914
0.0170858
0.000217639
7.78605e-07
7.63631e-07
1.07839e-06
1.35641e-06
1.58784e-06
1.80556e-06
2.00267e-06
2.17892e-06
2.3257e-06
2.46001e-06
2.59342e-06
3.13479e-06
0.00103685
0.00256777
0.00581063
1.50448e-06
1.0484e-06
2.11325e-06
2.30479e-06
2.4077e-06
2.43257e-06
2.45893e-06
2.51372e-06
2.59093e-06
2.65891e-06
2.72517e-06
2.79885e-06
3.07178e-06
0.000883512
0.00272417
0.00717798
0.00302006
2.96624e-06
3.18767e-06
3.1368e-06
3.08857e-06
3.05728e-06
3.03623e-06
3.03694e-06
3.04427e-06
3.06259e-06
3.09435e-06
3.1334e-06
3.21859e-06
0.000789058
0.00251467
0.00750022
0.0272447
3.47121e-06
3.35255e-06
3.31226e-06
3.26925e-06
3.22631e-06
3.19029e-06
3.17726e-06
3.17936e-06
3.1799e-06
3.18348e-06
3.1883e-06
3.22799e-06
0.000720903
0.00189576
0.00503322
0.000737824
3.06551e-06
2.35978e-06
2.45599e-06
2.51791e-06
2.56875e-06
2.62102e-06
2.66257e-06
2.69497e-06
2.72584e-06
2.76618e-06
2.81936e-06
2.94054e-06
4.96563e-05
5.23142e-06
2.57615e-07
1.96043e-07
7.56304e-07
2.38592e-06
2.76954e-06
2.41374e-06
2.6796e-07
5.37083e-07
8.95233e-07
1.23582e-06
1.5179e-06
1.74349e-06
1.916e-06
2.04594e-06
2.16528e-06
2.29968e-06
2.4132e-06
2.59878e-06
5.64614e-06
4.25083e-07
3.54531e-07
5.89839e-07
1.70195e-06
2.5526e-06
2.66221e-06
1.8772e-06
4.61982e-07
1.60014e-07
2.39589e-07
4.26449e-07
6.80158e-07
9.37423e-07
1.17151e-06
1.402e-06
1.63097e-06
1.85096e-06
2.00033e-06
2.22353e-06
1.21297e-06
4.86611e-07
4.6943e-07
8.42106e-07
1.84562e-06
2.50995e-06
2.63071e-06
1.95958e-06
7.4344e-07
2.20998e-07
1.36442e-07
1.69471e-07
2.61425e-07
4.1783e-07
6.31264e-07
8.80688e-07
1.14189e-06
1.38359e-06
1.55062e-06
1.83654e-06
9.5095e-07
6.01491e-07
6.07135e-07
1.06961e-06
1.92742e-06
2.46991e-06
2.599e-06
2.00872e-06
1.01436e-06
3.70669e-07
1.62233e-07
1.27543e-07
1.38396e-07
1.99973e-07
3.31692e-07
5.25671e-07
7.43484e-07
9.53299e-07
1.13539e-06
1.48591e-06
1.05898e-06
7.54612e-07
8.21294e-07
1.26072e-06
1.94955e-06
2.44506e-06
2.56838e-06
2.05142e-06
1.24556e-06
5.79478e-07
2.36455e-07
1.3637e-07
1.39372e-07
1.55138e-07
2.07636e-07
3.10255e-07
4.47263e-07
6.18998e-07
8.0381e-07
1.17442e-06
1.24298e-06
9.51281e-07
1.10143e-06
1.43239e-06
1.96964e-06
2.43032e-06
2.54269e-06
2.09903e-06
1.43012e-06
7.92124e-07
3.65662e-07
1.86236e-07
1.52974e-07
1.59354e-07
1.72668e-07
2.03594e-07
2.73251e-07
4.06392e-07
5.75994e-07
9.21634e-07
1.43092e-06
1.19706e-06
1.4184e-06
1.57654e-06
2.00582e-06
2.42574e-06
2.53369e-06
2.13682e-06
1.56354e-06
9.81165e-07
5.41428e-07
2.93795e-07
1.94723e-07
1.70822e-07
1.73386e-07
1.90022e-07
2.34888e-07
3.31648e-07
4.60277e-07
7.33362e-07
1.61088e-06
1.4723e-06
1.70942e-06
1.69188e-06
2.0565e-06
2.42986e-06
2.53589e-06
2.1594e-06
1.66301e-06
1.16437e-06
7.46773e-07
4.52177e-07
2.7372e-07
1.94197e-07
1.87399e-07
2.01205e-07
2.42589e-07
3.14802e-07
3.93451e-07
5.93781e-07
1.8363e-06
1.7518e-06
1.94008e-06
1.80007e-06
2.10603e-06
2.44297e-06
2.5384e-06
2.17909e-06
1.75659e-06
1.34774e-06
9.57792e-07
6.28196e-07
3.79155e-07
2.43179e-07
2.27114e-07
2.37932e-07
2.67345e-07
3.13286e-07
3.53172e-07
5.03744e-07
2.17971e-06
2.11517e-06
2.20831e-06
1.90586e-06
2.15695e-06
2.46785e-06
2.54267e-06
2.21347e-06
1.86417e-06
1.51961e-06
1.14693e-06
7.96874e-07
5.15051e-07
3.43008e-07
3.04437e-07
3.02881e-07
3.09418e-07
3.23382e-07
3.52626e-07
4.67425e-07
2.59575e-06
2.52168e-06
2.51799e-06
2.00524e-06
2.21437e-06
2.50025e-06
2.54887e-06
2.26132e-06
1.95694e-06
1.63638e-06
1.28311e-06
9.47692e-07
6.66005e-07
4.79164e-07
4.0485e-07
3.64632e-07
3.469e-07
3.50151e-07
3.67976e-07
4.70409e-07
3.52537e-06
3.36183e-06
3.3031e-06
2.39235e-06
2.41129e-06
2.57025e-06
2.58495e-06
2.36501e-06
2.10931e-06
1.82383e-06
1.52435e-06
1.24043e-06
9.76654e-07
7.68133e-07
6.23998e-07
5.20534e-07
4.68842e-07
4.54882e-07
4.61503e-07
5.21512e-07
0.00287964
0.00404292
0.00433101
0.00295911
0.00240213
0.00231417
0.00215253
0.00197841
0.000222182
3.06382e-05
5.0574e-06
2.47131e-06
2.36818e-06
2.34748e-06
2.44538e-06
2.69587e-06
3.13724e-06
3.88816e-06
4.86256e-06
7.47632e-06
0.00400232
0.00990386
0.0135255
0.00984671
0.00797389
0.00762221
0.00686091
0.00545426
4.05512e-05
2.22358e-06
7.70389e-07
8.50369e-07
1.04918e-06
1.30868e-06
1.60157e-06
1.92739e-06
2.31514e-06
2.87819e-06
3.55531e-06
5.11335e-06
0.00438596
0.0133748
0.0141999
0.00882356
0.0098091
0.00934106
0.00950218
0.00638991
4.60702e-06
5.3664e-07
5.95812e-07
7.34755e-07
9.92756e-07
1.33898e-06
1.72648e-06
2.05833e-06
2.35046e-06
2.7061e-06
3.12307e-06
4.18715e-06
0.00303535
0.0103744
0.00907075
0.00108249
0.0056672
1.91384e-09
0.0187994
0.000173245
3.47937e-07
6.97948e-07
9.63739e-07
1.21187e-06
1.4342e-06
1.63902e-06
1.81673e-06
1.97016e-06
2.1081e-06
2.25074e-06
2.40002e-06
2.95962e-06
0.00248934
0.00899849
0.00877762
1.31636e-06
1.02926e-06
1.97091e-06
2.14464e-06
2.22895e-06
2.25714e-06
2.29093e-06
2.34922e-06
2.41749e-06
2.47644e-06
2.54098e-06
2.61773e-06
2.90821e-06
0.00223206
0.00828077
0.0101353
0.0067927
2.89378e-06
2.95902e-06
2.90899e-06
2.86366e-06
2.83756e-06
2.81942e-06
2.82015e-06
2.82784e-06
2.84623e-06
2.87975e-06
2.91996e-06
3.01466e-06
0.00203368
0.00706638
0.00981981
0.0309569
3.38536e-06
3.10569e-06
3.06835e-06
3.02847e-06
2.99178e-06
2.96516e-06
2.95455e-06
2.95392e-06
2.95385e-06
2.95774e-06
2.96687e-06
3.02113e-06
0.00186201
0.00545034
0.00655572
0.00019298
2.9819e-06
2.19871e-06
2.28276e-06
2.3375e-06
2.38597e-06
2.44e-06
2.4852e-06
2.5087e-06
2.52884e-06
2.57033e-06
2.6288e-06
2.75887e-06
0.000225133
3.6863e-05
2.95967e-06
2.89146e-07
8.47153e-07
2.31678e-06
2.68948e-06
2.34365e-06
2.66381e-07
5.12547e-07
8.46509e-07
1.16646e-06
1.44046e-06
1.64274e-06
1.77959e-06
1.89373e-06
2.01366e-06
2.15397e-06
2.2649e-06
2.4364e-06
3.01948e-05
2.1003e-06
4.50272e-07
5.67721e-07
1.56942e-06
2.35e-06
2.45436e-06
1.7307e-06
4.21438e-07
1.51375e-07
2.33324e-07
4.19122e-07
6.50388e-07
8.76805e-07
1.09112e-06
1.31033e-06
1.54165e-06
1.74069e-06
1.85825e-06
2.06426e-06
4.71405e-06
6.51709e-07