/*--------------------------------*- C++ -*----------------------------------*\
  =========                 |
  \\      /  F ield         | OpenFOAM: The Open Source CFD Toolbox
   \\    /   O peration     | Website:  https://openfoam.org
    \\  /    A nd           | Version:  9
     \\/     M anipulation  |
\*---------------------------------------------------------------------------*/
FoamFile
{
    format      ascii;
    class       volScalarField;
    location    "0.009";
    object      rhoE;
}
// * * * * * * * * * * * * * * * * * * * * * * * * * * * * * * * * * * * * * //

dimensions      [1 -1 -2 0 0 0 0];

internalField   nonuniform List<scalar> 
9720
(
3.54977e+06
3.04366e+06
2.13863e+06
1.56744e+06
1.64566e+06
1.80737e+06
1.78496e+06
1.60976e+06
1.34298e+06
1.07185e+06
873916
738430
692133
711442
751411
839536
965317
1.15331e+06
1.35276e+06
1.79493e+06
3.02997e+06
1.74194e+06
1.06016e+06
1.02785e+06
1.5231e+06
1.75884e+06
1.73905e+06
1.51244e+06
1.06808e+06
670610
482604
405480
437993
490211
576738
696463
858310
1.05166e+06
1.26885e+06
1.69706e+06
2.14488e+06
1.05166e+06
917627
850027
1.47634e+06
1.74812e+06
1.72727e+06
1.45534e+06
820199
397397
303674
357846
442400
547660
667362
792846
941650
1.09525e+06
1.29185e+06
1.7339e+06
1.56111e+06
1.00908e+06
838858
726682
1.17651e+06
1.72777e+06
1.79489e+06
1.58521e+06
775737
282461
351950
427696
506056
578272
650962
718712
788883
860010
938970
1.19997e+06
1.59331e+06
1.4661e+06
1.42218e+06
1.16887e+06
277899
666160
719983
755544
785070
810986
837192
857983
883367
911875
946561
1.06837e+06
1.74249e+06
1.7e+06
1.69204e+06
1.66945e+06
884650
927021
913234
902701
893320
888573
889624
894112
902684
914194
925718
962073
1.71717e+06
1.67584e+06
1.66671e+06
1.74275e+06
968747
935824
924772
914722
906827
901552
899087
900945
903876
908947
916785
941225
1.54702e+06
1.4539e+06
1.39859e+06
1.52983e+06
838466
659286
698491
720021
736259
752557
764735
773441
785165
797758
815633
852555
1.28496e+06
1.01302e+06
768213
699294
282766
802533
878849
751751
86784.2
158512
262001
362825
443703
510051
564552
603928
642827
678827
710682
763605
1.02365e+06
633857
371082
268584
613270
853033
855834
605926
161362
53503.6
75481.4
133158
209519
284158
358493
425950
485694
542802
588111
656516
832573
459680
295734
335511
661682
838237
845181
642211
264640
76468.8
43456.4
53777.5
82378.5
131831
199775
269174
339133
407176
461106
548685
704169
391323
344337
405148
696287
827981
835598
662509
360338
138424
54474.7
42331
48951.4
67936.4
107681
162674
225819
287662
343367
441294
664069
421092
423066
478861
725226
817787
829994
678388
434359
214968
87232.5
50318
52981.7
55867.9
72488.7
102626
144628
197248
250240
348400
682350
472699
523028
547704
749157
816711
825805
694956
492834
287796
139010
72211.7
58175.2
56660.9
60104.9
70119.3
95984.5
136181
180657
271449
721823
558527
638589
615550
772973
818958
828010
708085
540474
358047
207785
115290
78299.7
63073.9
60539.7
63908.2
78249.5
102635
136842
213193
805689
673079
759304
676734
793597
825145
832696
719527
575007
419994
276054
171960
111435
77094.5
66483.2
67117.8
72484.6
84814.4
108734
168827
926098
824750
899613
743496
820082
835318
837926
734181
612029
475683
342697
234935
156102
105244
83890.7
74971.7
76263.1
84624
97188
141323
1.10594e+06
1.00364e+06
1.04147e+06
810971
850391
848389
845820
749997
646649
528128
406204
295302
209695
148165
112462
92764.9
87247.1
92342
99881.3
127930
1.299e+06
1.20711e+06
1.21939e+06
888170
886398
861799
856039
770740
678680
570441
455507
347100
261244
194829
150124
120860
103821
102563
105964
126627
1.72736e+06
1.61761e+06
1.62998e+06
1.1366e+06
1.0074e+06
902141
885608
810040
731503
635798
538192
441122
357930
286763
230147
185404
154285
138459
131335
141005
3.54195e+06
2.97582e+06
2.04126e+06
1.52159e+06
1.6698e+06
1.84185e+06
1.81337e+06
1.63476e+06
1.3553e+06
1.06725e+06
860611
724483
674994
692279
730689
816530
937950
1.11983e+06
1.31423e+06
1.75488e+06
2.97211e+06
1.63149e+06
1.04001e+06
1.02328e+06
1.56958e+06
1.80453e+06
1.77426e+06
1.54035e+06
1.07601e+06
665583
467920
389543
421433
473458
558795
674566
829019
1.01438e+06
1.22383e+06
1.64495e+06
2.05187e+06
1.02441e+06
902990
859003
1.53839e+06
1.79947e+06
1.76968e+06
1.48485e+06
820889
390509
291747
345199
426428
530420
649484
770218
911115
1.05468e+06
1.23948e+06
1.6677e+06
1.51209e+06
991212
822317
722701
1.27309e+06
1.77238e+06
1.83637e+06
1.61731e+06
804528
278997
346040
420232
494380
561700
630715
697176
763752
831542
903539
1.14245e+06
1.59478e+06
1.47657e+06
1.4335e+06
1.15215e+06
287072
665848
717871
750361
777735
802486
826906
845191
867155
892821
924005
1.03424e+06
1.75803e+06
1.72271e+06
1.72045e+06
1.70819e+06
889722
930712
914477
901502
891787
883904
883334
885525
891633
900916
910257
942343
1.73099e+06
1.6986e+06
1.69661e+06
1.76932e+06
973569
940145
927379
914338
903815
896946
894856
892952
893416
895932
901891
924127
1.56042e+06
1.47515e+06
1.42404e+06
1.55762e+06
841797
660589
696981
717623
733300
749820
761733
766241
773505
783825
801355
837811
1.29248e+06
1.02094e+06
771732
727756
311270
843305
922266
785348
92570.2
157022
256311
356268
438805
503542
555174
590043
626778
665479
699242
746873
1.01658e+06
631144
367202
269948
639887
893351
896896
633447
166450
53574.9
74312.1
129592
204283
275411
343075
409222
473600
531619
575321
634679
816010
443963
282262
335035
689170
876477
884429
667505
269310
76600.8
41401
51467.8
77844.3
121798
187079
259470
330571
396720
442949
522402
686753
372233
330960
406183
721214
862474
871550
687592
366329
137453
52367.3
38296.1
43709.8
61924.1
102019
156537
217956
272505
319843
415810
643477
401095
408040
478331
747446
851463
861463
703190
444215
214035
82863.5
44700.2
47227.8
51612.6
68126.3
96407.8
132958
177261
227535
326220
659574
453588
508092
544353
769643
844579
855655
719833
502793
285654
130485
65726.5
53763.2
51786.4
53987.5
61015.8
81552.4
118995
163574
252051
696603
538287
624470
610082
791219
843995
854821
731529
548647
352087
197876
109556
73429.3
56361.9
52964.7
54791.4
67881.3
92152.1
124871
195952
779027
649804
742169
671288
808363
846211
855442
736842
580060
415232
271193
167114
104624
66870.4
56956.9
57824.5
65430.7
78496.3
100597
153639
896545
795459
875905
733751
830103
852031
855933
746240
615509
476675
341117
228923
143811
90331.9
72898.7
67427.2
69598.7
77771.8
88544.8
126863
1.07133e+06
968387
1.00861e+06
798272
855884
861044
858859
758934
652995
531295
403263
282537
190493
130990
101233
84879.5
79801
83853.5
89847.7
115330
1.25816e+06
1.16615e+06
1.17706e+06
867751
886663
870493
865492
778305
685764
571698
446606
329062
241233
178406
137541
110489
93909.3
91830.6
94781.7
113631
1.68152e+06
1.5701e+06
1.57733e+06
1.09306e+06
992951
904038
890021
815547
733527
629909
524501
424270
340625
269158
212675
168595
138180
124060
117646
126016
3.6963e+06
2.97268e+06
1.97593e+06
1.50101e+06
1.69196e+06
1.87414e+06
1.84107e+06
1.66111e+06
1.37463e+06
1.07359e+06
861629
724160
671600
688931
723411
805736
927721
1.11265e+06
1.31594e+06
1.76795e+06
2.98328e+06
1.55241e+06
1.03853e+06
1.03648e+06
1.59637e+06
1.83153e+06
1.79745e+06
1.55922e+06
1.08591e+06
663988
460783
383560
417096
473498
558331
672290
826982
1.01631e+06
1.23487e+06
1.67862e+06
1.96634e+06
1.00359e+06
894363
874119
1.56894e+06
1.82203e+06
1.79211e+06
1.49765e+06
819548
390443
281204
340585
427689
537486
664014
784293
921555
1.06546e+06
1.24806e+06
1.69194e+06
1.44275e+06
973885
818249
717492
1.31241e+06
1.80076e+06
1.8633e+06
1.64202e+06
791290
281044
348147
424509
502633
569469
636750
705793
776310
846575
917329
1.143e+06
1.59713e+06
1.48619e+06
1.44989e+06
1.14383e+06
272840
678390
736761
770419
794136
817095
843972
866478
889283
914718
945836
1.05195e+06
1.77302e+06
1.73118e+06
1.72549e+06
1.73409e+06
891906
957114
941391
927867
919229
912343
912315
915273
921617
932328
943370
976311
1.75087e+06
1.715e+06
1.71013e+06
1.78643e+06
981846
967679
955678
942686
932426
926220
925278
926115
927374
930700
937300
960574
1.57803e+06
1.49072e+06
1.43596e+06
1.57177e+06
846192
680242
714345
737940
756077
773873
787007
793203
802333
815749
833335
871085
1.30472e+06
1.03807e+06
793355
759419
264397
866480
951252
814166
89117.1
159293
261414
362449
447085
510749
564160
604913
644615
683862
718931
771034
1.01597e+06
632152
371734
263315
649909
924675
930355
650856
159217
52417
74081.6
126331
199202
274119
343743
411938
479444
536180
584039
650666
807965
431307
265205
326606
707265
909574
919866
686671
265356
74963.5
39286.4
48116.8
76119.8
120251
182805
256153
326472
392823
446374
530278
676758
357960
318511
399345
741996
896657
908519
711758
366770
130746
48681.7
36037.8
41201.3
58618.7
97215.5
148878
208916
268793
317188
415736
629806
388201
400931
475505
766431
887869
898900
731545
449999
205937
79583.3
41470
42467
45712.5
59424.1
87572.8
126011
171019
219303
320118
646945
443633
506888
542362
788656
881051
893338
750183
511505
283527
128102
61462.6
47004.6
45021.6
48378.4
56583.9
75813.6
111566
154980
242869
680506
528410
631291
608067
813745
880531
895009
763394
562580
355162
194123
103800
63072.6
49320.5
49534.5
51693.6
63006.7
86432.1
116538
187584
760078
640445
750237
674071
834998
883300
896944
770386
602686
423876
269601
159270
93865.3
60452.9
53527.9
53471.4
61003.7
72773
94102.4
146627
879383
790209
882404
742095
857116
889405
898753
781703
642178
489091
340530
221481
135968
83229.6
67616.5
62696.9
63988.4
71531.8
82942.8
119768
1.05906e+06
972604
1.01891e+06
810474
882437
900278
902779
797424
680151
544413
407071
283288
185243
122656
94444.7
77790.2
73367.2
77804.1
83882.7
108553
1.25617e+06
1.18399e+06
1.19014e+06
880682
913290
911891
910006
815776
714843
592220
461280
334311
236208
169567
128550
103292
88420.1
86004.5
88081.3
105140
1.69233e+06
1.61403e+06
1.61326e+06
1.09561e+06
1.01569e+06
946768
935819
855055
768981
659833
546115
434550
340493
262804
205772
162812
132497
117801
109548
116940
3.84938e+06
2.93187e+06
1.89169e+06
1.48951e+06
1.70451e+06
1.8946e+06
1.85738e+06
1.67302e+06
1.37609e+06
1.0664e+06
852623
713593
657589
678393
712532
793726
919182
1.10883e+06
1.32268e+06
1.79047e+06
2.94381e+06
1.43738e+06
1.02942e+06
1.05118e+06
1.60518e+06
1.8462e+06
1.81296e+06
1.56917e+06
1.08397e+06
655184
447653
370041
402304
465565
553603
668529
822382
1.01799e+06
1.24765e+06
1.71798e+06
1.86548e+06
995631
887286
870079
1.56505e+06
1.83453e+06
1.8079e+06
1.5059e+06
818368
384287
268825
327719
421607
538611
676939
805319
936582
1.08186e+06
1.26159e+06
1.7196e+06
1.38984e+06
978557
838589
724602
1.26022e+06
1.83234e+06
1.88385e+06
1.655e+06
748886
277644
345373
423175
507360
581264
649513
720399
794274
864972
933848
1.14133e+06
1.59885e+06
1.50388e+06
1.47524e+06
1.19972e+06
408945
706347
772444
811977
832486
851486
877291
903180
926098
947440
973932
1.06725e+06
1.7814e+06
1.74031e+06
1.73046e+06
1.72279e+06
945585
1.01193e+06
994244
978201
968698
959687
956801
957414
961232
969891
979738
1.00963e+06
1.76071e+06
1.72166e+06
1.715e+06
1.78953e+06
1.04271e+06
1.0254e+06
1.01273e+06
998869
986508
977736
974531
973363
973619
975529
979865
998523
1.5873e+06
1.49478e+06
1.43558e+06
1.57484e+06
899626
715036
748736
775142
796891
814393
824979
830267
840143
855778
870997
903277
1.31201e+06
1.04033e+06
787028
734669
330468
908361
998518
852958
89120.4
152738
263370
369532
456946
522505
577603
628295
673978
711957
742375
796657
1.01549e+06
629007
368836
265686
680303
973467
981293
686360
163691
50862.1
73289.1
121680
190305
267771
347588
424434
493395
547799
594394
669683
804616
423189
256456
330719
743065
956834
970096
720287
276373
76354
38168.4
44291
71186.8
119349
184205
256593
325059
386336
448727
543889
673457
349589
310822
405212
781510
941520
958330
747231
381377
130130
45873.2
33981.1
40602.3
58794.4
95053.4
143380
196869
260435
319874
423538
619118
380478
398906
484910
802173
932181
948085
770848
466986
204039
76431.4
40930.3
41239.4
42855.4
53651.8
77747.3
115890
168521
219528
319406
638008
438468
510920
555091
820594
924715
941784
789578
530374
284334
129203
61152.7
43511.3
39008.8
41569.7
50951.7
72868.6
110331
151096
237047
668343
522690
643263
619184
845007
922691
942104
801230
581590
364058
196409
100398
56074.6
42018.6
44291.5
50490.3
62281.6
83788
111257
179596
742571
632173
767218
685031
869607
924290
942899
808903
629622
438553
269555
152618
83549.8
52916.1
51333.9
53153.3
59542.4
70321.4
88837.7
140651
861601
779214
889458
755623
892426
929593
944396
821826
673194
503727
339373
210707
125241
77453.9
64784.2
60860.6
61016.7
67981.7
79780.4
117008
1.04237e+06
966640
1.02417e+06
822665
914269
940277
949164
839708
709661
557899
404113
278166
181882
117758
88307.1
73570.6
69165.9
74004.6
81735.4
107042
1.24926e+06
1.18706e+06
1.18874e+06
891268
941536
952398
955937
854999
739967
606343
468749
340153
234750
160874
118820
95044.8
83447.1
83899.3
85841.7
101644
1.70344e+06
1.64567e+06
1.61881e+06
1.08431e+06
1.03072e+06
986035
979200
889476
797123
682007
562962
443052
337305
253250
194161
153943
127660
115083
105629
112282
3.94913e+06
2.91135e+06
1.83683e+06
1.47372e+06
1.71296e+06
1.90127e+06
1.86417e+06
1.67789e+06
1.37275e+06
1.05737e+06
841502
702927
648647
673444
708730
789981
919823
1.11314e+06
1.33243e+06
1.80607e+06
2.92814e+06
1.36992e+06
1.01833e+06
1.06129e+06
1.62409e+06
1.85616e+06
1.82138e+06
1.57453e+06
1.07997e+06
648190
436853
360520
390620
456448
548380
665677
822477
1.02326e+06
1.25944e+06
1.74077e+06
1.81047e+06
986400
874949
880334
1.58636e+06
1.84248e+06
1.81755e+06
1.51119e+06
814142
379019
261575
316833
412168
532311
675595
813043
940614
1.0858e+06
1.26222e+06
1.72674e+06
1.36723e+06
971235
821348
718765
1.28367e+06
1.83893e+06
1.89698e+06
1.66722e+06
768714
277452
343389
420601
505566
584723
653454
724929
800872
871883
941264
1.13481e+06
1.59776e+06
1.50416e+06
1.46968e+06
1.18423e+06
315556
713510
785177
829353
849375
867064
892222
920830
946874
968693
994992
1.07993e+06
1.78499e+06
1.74669e+06
1.73969e+06
1.74328e+06
980584
1.03539e+06
1.01755e+06
1.00033e+06
989686
981520
978293
978632
982652
991996
1.00272e+06
1.03203e+06
1.76263e+06
1.72719e+06
1.72338e+06
1.79983e+06
1.08324e+06
1.05583e+06
1.04312e+06
1.02895e+06
1.0163e+06
1.00663e+06
1.0018e+06
999375
999817
1.00315e+06
1.0077e+06
1.02468e+06
1.58874e+06
1.49579e+06
1.43667e+06
1.58253e+06
938444
733046
766671
794110
819641
837901
846718
851153
862206
879252
892760
921676
1.31092e+06
1.03565e+06
777511
731349
322492
951796
1.04977e+06
896607
89549.9
150073
266911
375898
462005
528759
587833
643000
691397
727693
755712
812471
1.01067e+06
621732
363750
270121
699961
1.00786e+06
1.01905e+06
712476
167248
50442.4
74363.3
119276
187128
267102
352209
434880
502570
555668
605178
685024
801279
418109
252921
334405
768166
989467
1.00615e+06
746249
285143
78689
38830.7
44138.4
71928.7
122369
188972
258983
323696
391318
457828
555943
671106
346514
307175
410011
808768
971823
993593
773662
395177
130841
46182.9
33820
40982
59579.5
93679.6
139627
196089
264730
331879
432209
615078
378019
398226
490451
827228
961017
983659
797330
479145
204661
77506.9
41480.6
42218.4
42019.3
51633.7
77521.2
119009
176790
227812
322570
634585
437285
514542
564595
842869
953342
975875
813356
541091
286502
131841
61773.6
42364.3
39216.1
42089.3
53025
76534.5
112910
151031
238184
662948
522105
649535
629436
865614
950213
971909
822842
596058
370027
201191
98431.6
53326.3
42594
45477.9
52550.7
63011.4
82123
110244
181312
732914
631079
780748
694968
891653
949813
971562
832861
647724
449979
271937
147768
81835.3
54676.7
52921.5
55452.4
60003.8
72137.5
91241.9
144552
848869
774323
898499
765639
915236
953452
972924
849089
693225
514165
337984
208231
126344
79699.2
64260.4
61007.8
60819.3
70579.8
82982.8
120271
1.02617e+06
959523
1.02912e+06
830837
934870
962689
978677
866180
727352
565479
407373
278829
186169
117553
84863.3
74807.9
71637.9
76285.9
85295.3
107206
1.23487e+06
1.17654e+06
1.1841e+06
897403
959134
973663
984206
877339
753513
615927
474169
346582
238592
157480
115091
95629.3
86396.1
86643.4
88029.7
102117
1.69718e+06
1.63863e+06
1.59846e+06
1.07147e+06
1.03643e+06
1.00422e+06
1.00331e+06
906693
811403
695092
570559
446844
335779
249395
191665
153957
128736
113554
105062
112699
3.95183e+06
2.90662e+06
1.82443e+06
1.46202e+06
1.71418e+06
1.90624e+06
1.86609e+06
1.67881e+06
1.3727e+06
1.05706e+06
840528
705627
649175
673494
708107
790771
923437
1.11957e+06
1.34082e+06
1.81341e+06
2.9281e+06
1.36696e+06
1.01611e+06
1.05976e+06
1.63195e+06
1.86381e+06
1.82372e+06
1.57453e+06
1.07915e+06
647547
436499
363221
391966
456635
548216
664956
823441
1.02671e+06
1.26726e+06
1.75155e+06
1.81475e+06
984621
874285
883653
1.60068e+06
1.84952e+06
1.82054e+06
1.51074e+06
812085
378765
263362
318312
415199
536776
680311
815933
942190
1.08728e+06
1.26674e+06
1.74144e+06
1.37298e+06
971587
816568
718016
1.32468e+06
1.84202e+06
1.89872e+06
1.672e+06
762278
278783
345176
422152
506543
585820
656144
729550
805664
875579
943689
1.14097e+06
1.59618e+06
1.49876e+06
1.45913e+06
1.14002e+06
298614
714274
787925
831413
849244
865425
890006
919466
945624
967287
993257
1.07848e+06
1.78206e+06
1.74006e+06
1.73143e+06
1.74757e+06
987316
1.03716e+06
1.01956e+06
1.00221e+06
989906
981357
977399
977166
980834
989507
999817
1.02834e+06
1.7606e+06
1.72653e+06
1.72308e+06
1.80254e+06
1.09636e+06
1.05742e+06
1.04407e+06
1.02908e+06
1.0152e+06
1.00442e+06
1.00087e+06
999535
999316
1.00152e+06
1.00533e+06
1.02172e+06
1.58688e+06
1.49511e+06
1.43674e+06
1.58398e+06
947309
735613
769619
796508
820935
839661
848563
853811
865911
881444
894600
922947
1.30944e+06
1.03741e+06
782098
753529
261822
962978
1.06397e+06
912456
87634
156414
273656
383313
468532
534444
593324
647285
694584
732431
760252
815938
1.00911e+06
622281
364183
265671
696482
1.00995e+06
1.0217e+06
713055
162894
50532.8
75251.2
121431
190713
271012
355668
437842
506086
560456
609946
688289
800684
419175
252892
331462
765087
992722
1.01e+06
745326
279962
77538
38546.1
44326.5
72576.8
123268
190048
259878
325962
394693
461500
557799
670409
347276
307386
408507
808377
976157
997238
770809
388845
127231
45466.5
33502.3
40681.3
59105
93083.1
139995
197488
266220
333341
433661
614948
377978
398552
489987
828260
965897
985669
795583
473743
200219
76303.2
41077.1
41839.2
41617.9
51586.5
77863.1
119315
176716
227861
323108
635026
437256
514589
564383
844562
958150
976365
816417
538097
282209
130074
61113.1
41990.5
38939.4
41807.7
52575.7
75489.7
112055
150505
238247
663581
523047
649719
628519
867327
955293
975880
829144
593375
366038
199229
97687.7
53232.5
42277.1
45067.1
51895.4
62576.3
82470.6
110670
181619
733527
633218
781314
693319
893333
955790
976507
835368
644306
446569
270734
147183
81417.3
54007.7
52263.1
54856.5
59715.2
71604.6
90345.8
144181
849106
776510
899449
764529
918268
960020
977750
846604
689793
513348
337326
206469
125065
78186.8
63702.9
60642.6
60607.6
68797.7
81323.6
118420
1.0255e+06
959715
1.0291e+06
830614
939728
969285
981604
863518
727455
566290
405023
276421
184048
115905
84861.9
74078.9
69795.5
74648.4
83589.5
105630
1.23374e+06
1.17425e+06
1.18149e+06
898268
965422
980357
987016
878866
756880
614839
471808
343799
236131
156218
115218
94850.4
84738.7
84939.4
85973.8
101121
1.69606e+06
1.63326e+06
1.58748e+06
1.06938e+06
1.04217e+06
1.01072e+06
1.00705e+06
912182
812319
692440
568613
446495
335005
248853
191407
153850
127327
112398
104349
112146
3.85798e+06
2.92309e+06
1.86799e+06
1.47337e+06
1.71204e+06
1.90585e+06
1.86218e+06
1.67561e+06
1.3723e+06
1.06103e+06
849214
715593
659176
679958
713018
796173
926213
1.12101e+06
1.33791e+06
1.80583e+06
2.9458e+06
1.42689e+06
1.01876e+06
1.05675e+06
1.6271e+06
1.86449e+06
1.81777e+06
1.56995e+06
1.07768e+06
648555
444216
370531
401641
465103
553160
668047
825221
1.02615e+06
1.26336e+06
1.73946e+06
1.8646e+06
983819
877764
889093
1.59925e+06
1.84937e+06
1.81352e+06
1.50548e+06
810745
379381
266551
324916
422312
542774
683297
810590
941033
1.08876e+06
1.27604e+06
1.75317e+06
1.38642e+06
963099
812163
719986
1.32173e+06
1.84666e+06
1.89798e+06
1.66974e+06
761371
277773
344842
422352
508946
586246
657258
730640
805957
877612
946782
1.1622e+06
1.58914e+06
1.48902e+06
1.4546e+06
1.14353e+06
303133
704977
775868
815628
835971
855443
882489
910699
935084
956696
984029
1.08074e+06
1.77697e+06
1.73573e+06
1.72758e+06
1.74075e+06
978974
1.01647e+06
999383
983309
973385
965627
962754
963227
967055
976047
986875
1.01856e+06
1.75307e+06
1.71955e+06
1.71502e+06
1.79702e+06
1.08161e+06
1.03106e+06
1.01853e+06
1.0051e+06
993599
986277
983875
982343
982739
985146
989858
1.0093e+06
1.58015e+06
1.48932e+06
1.43005e+06
1.57907e+06
931118
720247
753788
780685
804347
823329
835379
841269
851048
866408
880521
912172
1.3024e+06
1.0294e+06
774611
722860
296248
948697
1.0476e+06
897357
86177.2
159183
272507
379153
466744
533222
587749
638308
684016
722028
752572
807751
1.00846e+06
621494
363555
271634
685990
986625
997679
694161
157191
50123.6
74356.2
124712
195639
274393
354748
431456
500681
556915
604269
679490
803017
422094
256542
336318
753997
970576
986440
729634
269016
74310.1
37918.2
44664
72491.1
121363
186196
258895
329364
392371
456072
551638
670647
349503
312300
410172
794436
955359
974240
757216
375655
125923
44863
33180.3
39670.4
57668.4
94164.8
143850
199420
264017
324566
427966
617569
380209
402558
490473
813972
945416
962990
779854
463163
198365
74177.2
39696.2
40247.1
42158.3
53436
78379.4
117081
169888
220344
320797
638628
440585
517502
564156
831032
937160
954083
798064
527925
278209
125136
59190.3
42685.3
38591.7
41059.5
50345.4
71660.1
108733
150193
237485
670340
528347
651280
630305
854742
934985
954173
810470
581457
358574
192223
98329.3
55564.4
41450.7
43659.7
49436.8
61070.4
83461.9
111553
180370
743535
639691
780485
696760
880255
936726
955628
818084
630768
435433
266761
150533
82763.1
51910.4
50091.3
51926.5
58821.3
70423.4
88753.5
140680
860954
785313
903346
767846
904388
942076
957683
830039
675716
503977
337174
207986
123576
74971.9
63431.7
60290.4
61000.5
66892.3
78298.1
114634
1.04028e+06
970326
1.03691e+06
835282
926603
952528
961335
847018
714589
558905
401198
274482
178249
114628
88135.4
73943.5
68203.3
72533.6
79565.5
104255
1.24729e+06
1.18877e+06
1.19699e+06
903459
953784
964203
967141
863029
746289
607362
465628
335676
230940
158960
118968
95536.9
82266
81724.1
82835.5
99664.7
1.70345e+06
1.64816e+06
1.61889e+06
1.08945e+06
1.04022e+06
996962
989324
898786
803181
683858
562038
441484
335910
252517
194537
154401
125463
112649
103857
110948
3.70061e+06
2.95445e+06
1.95539e+06
1.50354e+06
1.7099e+06
1.89545e+06
1.8529e+06
1.66859e+06
1.37259e+06
1.06839e+06
856971
724425
669603
686616
720947
805379
930592
1.12011e+06
1.32567e+06
1.77858e+06
2.97637e+06
1.53638e+06
1.03938e+06
1.0479e+06
1.61663e+06
1.8554e+06
1.80818e+06
1.56482e+06
1.08e+06
656092
454866
380077
412294
469795
555622
670647
827864
1.02212e+06
1.24619e+06
1.69216e+06
1.95601e+06
994419
893951
885505
1.59065e+06
1.8436e+06
1.80246e+06
1.50222e+06
813607
383167
274373
334714
425795
538553
667623
788563
929085
1.07866e+06
1.27093e+06
1.73186e+06
1.42904e+06
962901
812829
724702
1.3215e+06
1.83546e+06
1.88346e+06
1.6566e+06
762506
276804
343702
420826
503107
573820
645015
717533
791029
863150
934866
1.17275e+06
1.5882e+06
1.4803e+06
1.44596e+06
1.1443e+06
300463
682362
745144
779264
802894
826334
854312
877686
900247
925808
957307
1.06703e+06
1.76947e+06
1.73085e+06
1.72562e+06
1.73425e+06
943173
972818
955974
941875
932369
923775
922129
923931
929572
940216
951307
984518
1.74087e+06
1.70962e+06
1.70688e+06
1.78789e+06
1.03907e+06
984444
972298
959036
947765
940663
938698
938332
938850
941317
947135
969784
1.56976e+06
1.48324e+06
1.42768e+06
1.56905e+06
894751
687782
723123
747745
767583
787122
801452
805908
813433
826015
842992
879826
1.29637e+06
1.02704e+06
780327
749026
266881
920265
1.01233e+06
865523
91107.7
157459
261815
365161
452288
518372
572497
614033
654799
694782
730091
781557
1.01051e+06
625437
365295
267243
667649
953361
959178
669910
163327
51780.1
73954.8
126710
200437
276517
347081
417005
486676
545963
594626
660279
805308
428822
264947
332568
727576
936861
947349
705347
268535
74560.9
39182.8
47718.3
75494.2
119601
182639
257723
331141
399370
453929
537338
672385
356959
320248
405913
763411
922387
934896
729671
370867
130422
48068.8
34839.5
39991.5
57475.6
96596.9
149611
210898
272064
320701
419584
626177
387073
406565
484832
787143
912604
923674
748605
455584
206188
78098.6
40216.3
41611.1
45570.1
59517.9
87618.6
126431
171432
219405
322409
645075
444727
515147
555345
808071
904561
916031
766860
518619
283498
125324
59547.8
46660.7
44492.3
47781.3
55972.7
74609.8
109870
154594
244892
679702
532866
641941
622669
832640
903035
916491
781190
570299
354940
190849
101674
62787.9
48543.9
48858.6
50924.9
62052.2
86282.4
117515
189700
758525
645840
763972
688794
854596
905081
918112
787178
609855
424301
267337
157752
93305.6
59053.8
52329.8
52312.9
60674.7
73606.1
95297.1
147515
878416
795458
894479
756995
877382
910555
919433
796212
649363
491633
340748
220734
134884
80554.7
65934.3
62346.7
64230.9
71546.2
82675.5
118235
1.05963e+06
978122
1.02952e+06
824263
902195
920488
921847
810074
689222
549453
408152
281835
182310
119023
93484.5
78289.2
73206.5
77354.8
82611.8
106381
1.26046e+06
1.19256e+06
1.19614e+06
893285
931729
931055
927727
829045
725100
597095
461010
331272
232462
167073
128235
103786
87694.7
84408.5
85598.3
102952
1.70333e+06
1.6327e+06
1.61913e+06
1.0982e+06
1.0286e+06
963807
951159
868724
778499
663077
545122
432048
338603
261901
205610
162347
129726
114612
106984
114861
3.54491e+06
2.96066e+06
2.03058e+06
1.54236e+06
1.69757e+06
1.86954e+06
1.8312e+06
1.64957e+06
1.36344e+06
1.06908e+06
860805
726626
673310
689743
727711
815721
938801
1.1231e+06
1.31875e+06
1.75922e+06
2.95869e+06
1.61631e+06
1.05412e+06
1.04942e+06
1.59859e+06
1.83385e+06
1.79164e+06
1.5535e+06
1.08219e+06
666046
468034
390103
420171
471355
554795
669727
823461
1.01016e+06
1.22127e+06
1.64093e+06
2.033e+06
1.01258e+06
907866
878397
1.56693e+06
1.82694e+06
1.78757e+06
1.49718e+06
825595
390763
289759
345154
426803
529752
647493
767928
910844
1.0587e+06
1.24966e+06
1.68594e+06
1.48769e+06
972746
813042
732967
1.32764e+06
1.82701e+06
1.87657e+06
1.64878e+06
802418
277628
343276
417661
491958
560520
632156
701260
770818
839388
913349
1.16485e+06
1.58465e+06
1.46858e+06
1.42719e+06
1.14835e+06
272089
659641
713203
745590
773240
798968
824073
842901
865096
891761
923981
1.03841e+06
1.75043e+06
1.71949e+06
1.71884e+06
1.72501e+06
897034
928637
912530
899896
890280
881354
880251
881801
887286
896101
905171
937541
1.72258e+06
1.69416e+06
1.69298e+06
1.78106e+06
986511
938218
925423
912833
902701
895592
893536
891757
891472
893045
898365
920401
1.55318e+06
1.47172e+06
1.42159e+06
1.56456e+06
848168
660339
695668
716455
733325
750914
762820
766053
772728
782922
800627
836439
1.28511e+06
1.01866e+06
775704
726470
301917
885419
968775
826474
87054
158653
259098
359049
441077
504392
554688
589596
627442
666729
700033
745817
1.00933e+06
627729
366038
267203
644330
908257
911080
639261
161619
53094.2
74790.4
130751
204746
274633
341805
408819
474591
532645
575727
632954
806910
438239
279079
332216
695761
891103
898283
674223
265216
75724.9
40742.8
50384.5
76085.3
119497
185179
259097
331075
396593
441803
519885
676125
367131
328476
403375
729440
876948
885331
694597
364888
135223
50797.3
37192.5
42901.8
61145.4
101491
156363
217337
270827
316940
412676
633850
394542
407797
477831
755950
865957
874718
711255
444412
211381
79983.4
43810.3
46791.7
51966.6
68453.5
95887.2
131342
174565
224209
323647
650486
448540
509206
546368
777927
858344
868181
729418
504442
282756
126819
64365.9
53830.8
51299.1
53496.5
59966.7
79684.8
116529
161429
250311
688691
535212
626633
612821
799919
857298
867717
741990
551141
349738
194156
107681
73018.8
55310.8
52043.1
53933.7
66894.3
91173.2
124167
194659
772367
647955
744383
674699
817629
859040
867926
746031
583059
413941
268038
164957
103445
65100.6
55763.4
56632.5
64665.9
78413.9
100458
152002
893827
796639
877304
737110
839479
864314
868174
754094
618848
475909
338720
226961
141955
87935.7
71417.2
66459.4
68920.1
77171.1
87407
124345
1.07362e+06
973504
1.00955e+06
801286
864744
873059
870609
766168
657088
531577
401940
280634
187732
127886
99395.1
83966.1
79064.2
82852.1
88147.8
112991
1.26735e+06
1.17935e+06
1.17648e+06
869469
894850
882338
876681
786105
690768
573194
445630
326510
237735
175099
135708
109639
92337.6
89858.5
92353.7
111423
1.69964e+06
1.59812e+06
1.58553e+06
1.08507e+06
996417
914862
900309
824227
738938
631158
523358
421704
337434
266146
210618
166710
134835
120854
115218
123942
3.54994e+06
3.03071e+06
2.12269e+06
1.57908e+06
1.67216e+06
1.83763e+06
1.80641e+06
1.62663e+06
1.35273e+06
1.07518e+06
875733
741435
690708
708669
747762
837420
963908
1.15298e+06
1.35254e+06
1.7934e+06
3.01962e+06
1.72699e+06
1.07067e+06
1.05081e+06
1.56014e+06
1.79075e+06
1.75694e+06
1.52477e+06
1.07396e+06
670223
483909
408082
438749
487843
570723
688454
848642
1.04196e+06
1.25846e+06
1.68266e+06
2.1353e+06
1.03677e+06
917326
870328
1.51752e+06
1.77824e+06
1.74549e+06
1.46667e+06
825134
396783
303943
358998
441287
542218
657656
780991
929962
1.08682e+06
1.28836e+06
1.73415e+06
1.54294e+06
985683
816051
725554
1.29267e+06
1.77297e+06
1.83568e+06
1.61601e+06
802152
280169
346554
420283
495409
567305
641561
710561
782892
853129
934633
1.21197e+06
1.57993e+06
1.4474e+06
1.40079e+06
1.13367e+06
282659
645495
696579
729441
759204
786643
813783
834889
860498
890145
926957
1.0557e+06
1.73176e+06
1.69421e+06
1.68894e+06
1.69617e+06
867023
899950
885687
874749
865816
860625
862020
866753
875423
886987
899337
937557
1.70874e+06
1.67235e+06
1.66396e+06
1.75235e+06
950598
908894
897056
886924
879180
874008
871640
874208
877161
882231
890777
916458
1.53989e+06
1.45079e+06
1.39614e+06
1.54538e+06
821721
640529
677848
698295
714820
730923
742070
750632
762759
776189
794781
831614
1.2771e+06
1.00496e+06
756299
718947
290241
832496
911089
776625
91753
154172
255521
353703
431635
495861
548739
587589
626485
661625