/*--------------------------------*- C++ -*----------------------------------*\
  =========                 |
  \\      /  F ield         | OpenFOAM: The Open Source CFD Toolbox
   \\    /   O peration     | Website:  https://openfoam.org
    \\  /    A nd           | Version:  9
     \\/     M anipulation  |
\*---------------------------------------------------------------------------*/
FoamFile
{
    format      ascii;
    class       volVectorField;
    location    "0.009";
    object      rhoU;
}
// * * * * * * * * * * * * * * * * * * * * * * * * * * * * * * * * * * * * * //

dimensions      [1 -2 -1 0 0 0 0];

internalField   nonuniform List<vector> 
9720
(
(-989.569 -997.737 82.5506)
(-654.84 -1000.65 65.4293)
(-618.814 -997.805 6.8451)
(-536.335 -920.49 -8.8421)
(-323.611 -1083.6 -4.66439)
(-106.32 -1203.44 -10.7133)
(102.721 -1186.32 -6.80086)
(333.986 -1059.89 -6.44914)
(479.564 -836.288 -1.34883)
(512.769 -600.609 0.413828)
(495.936 -425.408 -1.48194)
(460.978 -305.366 3.36433)
(456.009 -242.527 4.79498)
(483.023 -210.146 0.128311)
(518.379 -186.644 1.85053)
(579.987 -184.009 7.72705)
(662.982 -186.642 16.5203)
(782.462 -196.976 17.0754)
(904.791 -212.993 17.1796)
(1169.85 -243.364 18.993)
(-980.193 -655.446 72.8799)
(-687.888 -686.141 15.2413)
(-526.267 -571.783 -5.6701)
(-408.972 -642.216 -12.7939)
(-348.868 -999.305 -4.82558)
(-106.319 -1176.83 -10.6212)
(109.116 -1160.53 -5.39563)
(347.668 -998.625 -3.87645)
(458.058 -644.327 -2.66124)
(393.608 -337.409 4.0639)
(325.862 -188.709 0.151389)
(290.613 -122.645 0.539844)
(317.612 -109.763 2.6734)
(355.857 -102.108 3.18966)
(415.115 -102.118 5.07668)
(493.242 -112.135 4.80568)
(598.315 -118.715 6.088)
(724.719 -123.869 8.48506)
(867.129 -116.824 10.7241)
(1138.9 -116.916 14.6803)
(-981.128 -606.448 26.6011)
(-569.109 -520.569 2.64039)
(-486.595 -483.767 -4.28622)
(-386.693 -510.138 -17.9506)
(-360.858 -962.198 -5.42913)
(-120.704 -1167.15 -8.5507)
(119.501 -1151.17 -7.83359)
(363.548 -952.816 1.02847)
(405.896 -467.555 -5.19453)
(266.751 -166.402 -1.32415)
(218.716 -91.8769 4.6638)
(258.928 -81.4594 -3.24521)
(313.607 -83.5337 -4.3694)
(379.901 -92.8638 -4.73588)
(453.962 -104.651 1.77838)
(530.72 -117.792 3.44155)
(622.404 -125.167 0.155362)
(722.471 -129.864 -3.35535)
(849.38 -125.617 -3.9264)
(1137.04 -107.678 -1.41873)
(-917.578 -524.751 7.68694)
(-632.143 -401.501 6.47096)
(-505.684 -380.071 14.3123)
(-402.079 -387.293 -11.9083)
(-408.533 -752.527 -10.5828)
(-213.025 -1142.56 -3.42792)
(47.7845 -1186.46 -7.83246)
(302.092 -1037.24 -3.77913)
(379.558 -453.412 -8.31041)
(196.253 -76.6565 -3.8534)
(236.719 -82.9209 -0.648819)
(281.887 -93.077 -2.06808)
(330.323 -103.047 -2.46487)
(377.102 -110.361 -2.7752)
(423.199 -117.07 -2.93093)
(466.984 -122.061 -2.33924)
(512.279 -124.912 -2.24251)
(560.672 -126.205 -2.54647)
(612.423 -124.141 -2.66563)
(785.001 -111.299 -2.09849)
(-1052.69 -315.883 -5.00903)
(-966.939 -338.81 -4.5017)
(-931.926 -349.38 -1.87361)
(-754.065 -392.922 0.968421)
(187.383 -67.162 -3.14081)
(437.123 -85.5065 -1.45228)
(469.82 -90.5287 -2.41422)
(491.81 -91.1788 -2.13054)
(509.953 -89.9721 -2.34793)
(526.756 -87.8723 -1.87713)
(543.285 -85.1618 -1.35229)
(556.973 -82.135 -2.50754)
(572.899 -78.3814 -3.92196)
(591.794 -75.8601 -4.32998)
(614.217 -74.7163 -3.96026)
(694.99 -72.2232 -3.71945)
(-1167.76 -104.064 -7.63813)
(-1144.88 -104.632 -8.1922)
(-1136.2 -117.965 -8.93659)
(-1109.74 -207.865 -8.39661)
(587.989 -52.933 -3.22893)
(613.136 -29.2821 -2.78995)
(604.233 -28.2333 -3.0821)
(597.814 -27.2192 -2.961)
(592.217 -26.4198 -3.0027)
(589.76 -25.9357 -3.29204)
(590.709 -25.1822 -3.62894)
(593.957 -24.5465 -3.53216)
(599.795 -24.1133 -3.33797)
(607.611 -23.9319 -3.15988)
(615.398 -23.6381 -3.36093)
(639.162 -20.5896 -3.49025)
(-1148.92 99.5226 -9.57045)
(-1125.72 104.445 -8.38096)
(-1116.34 115.057 -10.4179)
(-1158.18 45.418 -12.7549)
(643.637 8.26621 -3.81045)
(618.343 30.1467 -2.76705)
(611.213 28.5339 -2.50916)
(604.936 27.033 -2.12988)
(599.941 26.0212 -2.50129)
(596.603 24.9864 -3.17855)
(594.97 23.8617 -3.30344)
(595.983 23.2826 -2.88353)
(597.648 23.4248 -2.66631)
(600.813 23.7846 -2.80905)
(605.576 24.4452 -3.33632)
(621.057 25.8176 -3.57042)
(-1025.46 323.974 -9.20578)
(-965.968 337.686 -6.16218)
(-920.62 353.528 -1.94983)
(-1007.71 292.043 -5.19399)
(553.695 68.321 -3.128)
(430.541 83.5711 -2.17314)
(454.518 85.1159 0.145755)
(468.537 84.9727 -1.37232)
(479.582 82.9723 -4.54043)
(490.253 81.1033 -4.61553)
(498.805 78.9067 -1.7287)
(505.361 76.3319 -0.139406)
(512.905 75.0477 -1.73382)
(521.853 73.1072 -4.81028)
(533.489 72.2668 -5.07498)
(557.604 71.6618 -3.65074)
(-803.98 463.394 -7.46688)
(-612.193 439.699 -8.29604)
(-437.044 385.15 -10.2487)
(-405.236 351.835 -13.1354)
(-61.805 192.737 -0.947408)
(-49.8105 542.3 -4.56648)
(8.64756 593.586 -4.06773)
(65.6973 504.33 -2.99426)
(38.5504 43.9768 -1.29676)
(95.669 47.6113 2.22458)
(163.128 66.1975 -3.65634)
(227.396 83.0899 -5.34291)
(279.758 94.3976 -2.01161)
(323.001 100.302 3.0444)
(357.647 103.902 3.28956)
(384.059 105.046 -1.27811)
(409.956 104.008 -6.27188)
(434.15 104.282 -5.34215)
(455.15 103.931 -0.752105)
(490.004 103.695 -0.244801)
(-574.836 493.324 -6.41615)
(-318.056 375.774 -2.50402)
(-154.782 251.656 -5.25221)
(-73.0518 187.91 -4.54313)
(-81.9836 407.918 -3.3369)
(-27.2993 572.272 -4.49566)
(29.8719 573.744 -4.25484)
(82.1178 401.145 -2.6002)
(46.564 100.707 1.60214)
(25.9835 26.8304 -1.75798)
(43.2305 29.5424 -2.45568)
(78.5494 44.7747 0.701498)
(126.201 63.8709 3.55521)
(173.673 80.2683 2.37137)
(220.374 92.8349 -2.90606)
(264.251 102.197 -6.8257)
(302.51 109.97 -5.05208)
(339.636 114.37 1.59732)
(368.623 117.748 2.71219)
(413.37 121.871 -0.467557)
(-405.831 475.439 -8.48564)
(-179.697 312.392 -5.94001)
(-89.9688 213.812 -0.210058)
(-81.3842 226.333 -2.5235)
(-85.6918 437.762 -3.77173)
(-25.8584 562.665 -4.4386)
(28.1064 566.555 -3.87216)
(82.3263 423.923 0.162645)
(66.538 167.135 -3.06807)
(29.1141 44.926 -2.61591)
(21.3639 21.887 0.712108)
(29.5712 22.9462 1.95165)
(47.1721 31.6295 0.377391)
(77.4866 46.5452 -2.77758)
(118.336 65.4638 -5.22169)
(161.433 82.9732 -3.86189)
(205.165 97.1244 1.98402)
(247.638 108.165 5.15448)
(280.799 117.395 0.749833)
(337.434 127.514 -2.89423)
(-291.872 441.976 -2.89914)
(-118.882 281.654 -4.36421)
(-76.6741 251.254 -6.93547)
(-89.2689 270.013 -4.94466)
(-86.1846 459.462 -2.76005)
(-24.8008 556.041 -4.31754)
(26.4531 560.454 -3.79595)
(81.601 437.494 -1.27618)
(82.5374 228.823 -5.66913)
(45.652 82.7154 0.291861)
(22.7344 30.475 1.9693)
(20.7007 21.0778 0.55363)
(25.9336 21.2553 -1.95829)
(37.7592 27.9244 -2.79089)
(60.7238 41.9957 -1.85688)
(93.2431 59.439 1.75201)
(130.554 76.9552 4.39233)
(168.076 92.3917 1.8834)
(203.27 104.216 -3.73143)
(265.49 122.056 -3.75837)
(-233.448 439.708 -1.16279)
(-105.71 307.038 -1.98011)
(-79.2469 302.634 -6.3677)
(-98.5955 316.719 -4.54096)
(-85.021 477.435 -2.99805)
(-24.2147 549.723 -4.53246)
(25.3607 556.679 -3.60165)
(79.3738 448.58 -4.71838)
(93.0768 277.736 -3.05563)
(64.8835 131.228 3.57153)
(32.6796 50.1294 0.893489)
(21.2279 26.8006 -1.77307)
(24.9795 25.4478 -2.49019)
(28.9798 25.3726 -1.00959)
(38.7028 31.0213 1.08383)
(55.6298 41.8762 1.94089)
(79.1849 55.9582 0.898806)
(110.655 71.8198 -3.21246)
(142.732 87.2368 -4.37823)
(203.044 110.944 -2.14939)
(-202.628 465.445 -6.17954)
(-98.7457 345.001 -2.61973)
(-91.5064 365.031 -7.03791)
(-106.151 361.115 -4.13251)
(-82.711 493.165 -2.43538)
(-23.7899 549.463 -4.93964)
(24.238 553.884 -3.94177)
(77.3474 459.69 -5.07314)
(97.6255 317.093 2.43192)
(81.0558 178.101 2.9726)
(48.3834 81.8251 -2.30316)
(28.9885 39.802 -2.7146)
(25.7988 30.2173 -0.936985)
(27.6949 28.121 1.04499)
(31.1779 27.9866 1.37663)
(37.3589 31.0472 0.232402)
(51.376 40.3936 -1.90726)
(74.501 54.9391 -3.52652)
(99.4889 70.7929 -1.96618)
(153.004 96.7819 0.318178)
(-180.392 500.448 -5.1213)
(-99.5507 403.901 -1.32206)
(-103.754 436.795 -0.648134)
(-112.37 404.398 -4.18006)
(-79.8141 508.411 -2.24817)
(-23.1349 551.231 -5.23726)
(23.1873 555.112 -4.26491)
(75.2556 468.955 -2.28098)
(100.204 348.481 2.92697)
(92.9195 223.196 -2.32873)
(67.3534 123.762 -5.17218)
(44.0189 64.6121 -1.88842)
(32.8069 41.3483 1.21161)
(28.6006 32.6684 1.65131)
(29.617 30.1517 0.418226)
(32.8237 30.129 -1.44484)
(40.8232 35.2954 -2.2595)
(54.386 45.2171 -1.51897)
(72.5499 58.1394 0.898705)
(115.985 83.3027 1.80758)
(-177.973 559.457 -0.407611)
(-110.166 478.781 -2.09065)
(-114.185 512.378 1.10423)
(-116.764 445.036 -3.67709)
(-76.9756 522.142 -3.85217)
(-22.7095 555.669 -5.13822)
(22.7567 557.77 -4.15501)
(72.822 477.005 -0.581884)
(101.029 372.47 -1.64266)
(101.348 264.923 -7.00261)
(84.8491 167.153 -4.30486)
(61.8753 98.6715 1.85656)
(44.5297 60.0276 2.55287)
(33.1978 40.6127 0.819638)
(30.5919 34.2732 -1.21067)
(32.8457 33.1541 -1.95265)
(36.6477 34.5373 -1.10536)
(43.5866 38.6565 0.826874)
(55.5138 48.1144 1.96631)
(88.3698 70.8357 1.65785)
(-181.138 639.368 7.85549)
(-117.923 577.462 -0.456133)
(-120.613 600.166 -1.9027)
(-119.255 489.022 -3.85072)
(-73.4131 538.996 -5.35879)
(-22.418 562.63 -5.15349)
(22.8879 560.983 -4.13028)
(71.764 486.144 -1.95504)
(99.981 397.4 -6.72184)
(108.398 301.583 -5.77181)
(98.2215 210.034 1.30837)
(79.1664 136.771 4.61689)
(59.5457 85.3412 1.82431)
(43.4632 56.1858 -1.24415)
(37.2269 43.7004 -1.98509)
(35.3763 37.8549 -1.10955)
(37.0231 37.1874 0.915788)
(41.5926 39.0521 2.24957)
(47.7458 44.0788 1.91095)
(71.4079 61.8634 0.659426)
(-190.533 754.34 9.14828)
(-123.738 695.032 2.86309)
(-124.34 693.618 -4.8473)
(-119.711 535.65 -4.26567)
(-71.6404 559.272 -5.51311)
(-22.3369 571.561 -5.24488)
(23.2643 565.989 -4.04054)
(70.0939 496.885 -4.98631)
(100.29 420.878 -6.0003)
(112.275 336.413 0.377298)
(108.262 250.904 4.39412)
(94.527 174.259 2.29732)
(75.9421 117.782 -2.31456)
(58.9531 81.0096 -2.98015)
(48.8629 59.4369 -1.33397)
(42.1358 47.4088 0.909148)
(40.0749 43.1061 2.09402)
(43.1501 43.5948 2.03146)
(47.4392 46.4585 0.682589)
(62.737 57.8457 -0.301515)
(-206.232 873.182 8.92408)
(-116.994 829.45 5.19911)
(-119.476 809.599 -5.56538)
(-117.301 586.571 -4.41739)
(-70.8007 582.764 -5.22347)
(-22.0407 580.588 -5.42892)
(23.7491 572.399 -4.23643)
(69.102 510.281 -5.47906)
(100.18 441.667 -2.02709)
(115.264 363.799 1.39473)
(116.771 282.243 0.220902)
(105.698 208.104 -3.46521)
(90.7141 149.872 -3.85239)
(75.3712 107.632 -1.44463)
(62.9756 79.9262 1.38535)
(53.4506 61.9628 2.32415)
(47.1128 51.3038 1.9829)
(47.6095 48.9995 0.800882)
(49.9372 49.8955 -0.53679)
(60.6467 57.9637 -0.0917154)
(-235.609 1130.9 10.9464)
(-113.227 1091.84 8.92596)
(-102.119 1078.97 -3.44449)
(-104.977 752.106 -4.05629)
(-68.2462 663.66 -5.16346)
(-19.0507 607.163 -5.46783)
(24.9847 591.249 -4.55015)
(68.674 536.272 -4.33372)
(100.152 476.4 -1.35952)
(119.156 406.86 -1.33346)
(126.232 336.538 -3.26341)
(122.571 268.951 -3.81739)
(113.689 210.458 -1.96239)
(101.588 162.822 0.723498)
(89.3642 126.124 2.35743)
(77.7271 97.797 2.22259)
(67.6895 78.4625 0.844907)
(63.0316 68.0274 -0.32681)
(60.522 63.0409 -0.16568)
(65.8116 65.7079 0.925411)
(-984.881 -995.688 100.719)
(-644.496 -983.535 102.776)
(-608.908 -983.996 53.7054)
(-521.686 -906.583 7.143)
(-326.342 -1103.63 -7.08757)
(-104.614 -1231.03 -10.9211)
(105.722 -1208.93 -5.61848)
(337.556 -1079.51 -6.37456)
(482.005 -846.326 0.33266)
(509.675 -600.063 7.01624)
(487.528 -420.975 5.09298)
(451.932 -301.223 8.35231)
(444.726 -237.769 11.354)
(470.245 -205.608 7.36089)
(504.545 -181.997 8.75431)
(564.685 -178.948 14.6011)
(644.978 -180.876 25.2535)
(760.97 -189.986 27.3961)
(880.484 -204.948 31.3625)
(1144.81 -235.583 31.2042)
(-957.65 -652.252 106.137)
(-675.884 -680.939 97.1582)
(-512.433 -569.98 4.8646)
(-397.794 -646.89 -6.7076)
(-346.817 -1033.37 -9.11072)
(-106.132 -1211.69 -10.6698)
(112.609 -1187.73 -5.06863)
(351.439 -1020.21 -4.37017)
(458.16 -651.371 -0.620458)
(388.874 -336.069 7.69893)
(315.461 -183.675 5.68511)
(279.224 -117.966 5.85717)
(305.572 -105.356 8.68196)
(343.522 -98.488 8.43396)
(402.086 -98.4855 10.338)
(477.646 -107.873 11.3966)
(577.695 -113.533 15.9632)
(698.994 -117.542 20.2189)
(836.461 -110.228 27.158)
(1104.8 -108.987 34.0119)
(-961.935 -599.52 73.0564)
(-558.332 -509.246 13.6313)
(-474.417 -482.651 -3.83246)
(-380.291 -523.864 1.8288)
(-357.865 -1009.29 -4.05491)
(-120.406 -1206.35 -9.25358)
(121.164 -1184.6 -8.00446)
(366.046 -977.06 0.255898)
(402.589 -471.041 2.94476)
(261.483 -163.786 1.05068)
(209.293 -88.5815 8.8419)
(248.399 -79.691 2.78759)
(301.001 -80.4238 2.86828)
(366.706 -88.657 1.46029)
(440.358 -100.445 6.46215)
(513.742 -113.907 8.68775)
(599.756 -121.101 8.54764)
(692.95 -125.28 8.17451)
(812.03 -121.759 11.4624)
(1091.5 -104.182 20.2483)
(-897.405 -518.209 22.6378)
(-623.87 -393.569 7.17797)
(-493.852 -377.376 16.8951)
(-385.513 -398.601 -7.48083)
(-406.863 -823.428 -10.6637)
(-212.817 -1180.67 -5.30865)
(47.5925 -1222.16 -8.88952)
(302.503 -1065.66 -2.27984)
(382.46 -476.741 3.15809)
(192.29 -74.5902 1.06503)
(231.35 -79.417 2.72164)
(274.762 -89.8671 0.774952)
(320.18 -99.2071 1.53867)
(363.847 -105.945 2.12901)
(407.605 -112.334 2.44195)
(450.259 -117.403 3.12545)
(493.053 -120.251 3.95392)
(538.945 -121.981 4.45801)
(586.162 -120.401 5.79371)
(744.501 -109.443 11.1909)
(-1058.53 -316.591 -1.37396)
(-976.567 -341.468 -4.5263)
(-944.526 -352.592 -0.191592)
(-747.262 -392.242 3.46518)
(191.749 -67.2539 0.823606)
(432.867 -83.2855 1.7083)
(464.337 -88.2145 1.03698)
(484.486 -88.6833 1.44647)
(501.379 -87.457 1.27674)
(517.388 -85.5243 1.57878)
(532.796 -82.9436 2.57001)
(544.914 -79.869 2.16887)
(558.778 -76.3086 1.32934)
(575.773 -73.4092 1.26825)
(595.957 -72.1894 2.48129)
(669.084 -70.3725 4.89285)
(-1182.5 -104.094 -5.00613)
(-1164.62 -105.522 -7.06143)
(-1160.67 -117.693 -7.60907)
(-1144.97 -206.934 -5.36179)
(584.884 -51.4906 -0.303066)
(609.496 -28.491 0.739615)
(599.667 -27.3502 0.789515)
(592.074 -26.4184 0.796859)
(586.557 -25.5325 0.763794)
(582.296 -25.0485 0.680458)
(582.387 -24.384 0.683061)
(584.226 -23.6738 0.984507)
(588.567 -23.1973 1.65728)
(595.023 -22.9536 2.53021)
(601.629 -22.9147 2.72756)
(622.707 -20.2402 3.18683)
(-1162.67 99.4156 -6.09459)
(-1145.48 104.797 -6.40082)
(-1141.72 114.834 -8.08127)
(-1184.1 44.468 -9.111)
(639.819 8.14175 -0.438491)
(614.897 29.6208 1.10066)
(607.278 28.064 1.25748)
(599.506 26.6893 1.86155)
(593.097 25.5193 1.84746)
(588.927 24.3655 1.31282)
(587.643 23.2427 1.1274)
(586.437 22.8912 1.56683)
(586.682 22.9783 2.42668)
(588.257 23.3856 2.8901)
(592.009 23.6916 2.80161)
(606.138 24.7376 2.79835)
(-1038.17 323.34 -6.91795)
(-983.426 337.913 -5.00791)
(-942.071 353.073 -1.51379)
(-1033.49 289.551 -3.26997)
(550.229 66.6808 -0.224975)
(427.103 81.4358 0.382164)
(449.493 82.9136 3.24178)
(462.706 82.7631 2.65994)
(473.414 81.055 -0.315608)
(484.68 78.8878 -1.46045)
(492.957 77.3167 1.01573)
(496.778 74.4198 3.94479)
(501.57 72.5822 3.59527)
(509.046 70.85 1.12595)
(520.727 69.6434 0.116364)
(544.527 69.2818 1.72858)
(-812.039 462.529 -6.74593)
(-620.414 438.634 -7.5589)
(-443.325 382.793 -2.90515)
(-428.299 356.02 -1.10673)
(-72.6898 204.187 -0.286484)
(-49.7788 559.579 -4.74086)
(8.958 612.007 -4.20356)
(66.2052 517.593 -3.16123)
(39.3677 46.5457 -0.101059)
(93.5361 45.9301 3.44321)
(158.057 63.4399 -1.12371)
(221.995 79.3447 -3.78503)
(275.2 90.9632 -1.5007)
(316.865 97.0755 4.09124)
(349.197 100.086 6.47047)
(372.439 101.141 4.04265)
(397.331 100.133 -1.1439)
(423.639 99.9969 -1.9042)
(445.085 100.607 2.49337)
(476.237 100.046 4.82408)
(-574.297 488.357 -0.842546)
(-319.128 371.774 -1.1267)
(-154.028 247.989 -4.109)
(-71.2476 187.333 -1.04091)
(-81.6677 418.771 -2.40408)
(-26.9598 588.835 -3.86314)
(30.1622 590.572 -3.51301)
(82.2169 411.896 -2.76072)
(45.8786 101.763 2.31379)
(25.1479 26.2426 -0.691661)
(42.0133 28.5996 -2.41704)
(75.9917 43.0249 0.169748)
(121.888 61.0094 4.19922)
(166.64 76.3565 5.02103)
(209.193 87.7444 1.40475)
(252.661 96.5205 -3.33644)
(294.05 104.814 -3.39075)
(330.818 110.682 2.63451)
(357.93 113.127 6.79458)
(396.934 116.478 5.50265)
(-401.378 465.164 -1.7929)
(-175.055 301.059 -1.22398)
(-86.642 203.197 3.44405)
(-77.9432 224.556 -0.424431)
(-85.947 448.924 -3.31519)
(-25.7694 578.814 -4.14293)
(28.3811 583.257 -3.67295)
(82.3706 433.778 0.32039)
(65.2666 167.282 -1.34006)
(28.2637 44.3737 -2.5484)
(20.0945 20.7382 0.170617)
(27.8737 21.5929 2.19818)
(43.8559 29.309 1.81239)
(70.8072 42.4207 -0.491706)
(110.272 60.0593 -3.48101)
(155.036 78.3213 -3.41892)
(198.728 93.5911 1.81008)
(239.273 103.717 7.58361)
(267.725 111.228 5.72385)
(319.614 120.4 2.7068)
(-287.516 430.412 2.41433)
(-113.863 267.9 0.705413)
(-75.3474 240.026 -0.819592)
(-86.9408 267.494 -3.23101)
(-86.4577 469.127 -2.58698)
(-24.7537 570.681 -4.25984)
(27.0032 575.79 -3.33307)
(81.6749 447.06 -0.3995)
(80.9677 229.617 -4.67726)
(44.4461 81.4067 -0.354335)
(21.4286 28.9497 2.10296)
(18.4581 18.8073 1.42842)
(22.9585 18.8053 -0.735443)
(34.2644 25.1235 -1.96195)
(57.314 39.2714 -1.78859)
(89.1813 56.5834 1.57161)
(124.963 73.2381 5.70663)
(158.048 86.3308 5.6201)
(188.403 96.4445 0.674818)
(249.316 113.767 0.251004)
(-228.57 425.85 6.22519)
(-101.235 292.347 3.70378)
(-76.9265 290.159 1.26638)
(-96.3303 312.438 -1.80341)
(-85.1773 485.577 -2.64891)
(-23.9983 564.423 -4.38687)
(25.6837 569.857 -3.05005)
(79.8108 458.009 -3.66498)
(92.1639 280.622 -3.33421)
(63.0406 129.095 3.78155)
(30.4545 47.021 2.00276)
(18.7169 23.7041 -0.62826)
(22.1642 22.6043 -1.94782)
(26.5216 23.2412 -0.954499)
(36.0033 28.8388 1.2012)
(51.6717 38.8322 2.96599)
(72.209 50.9411 3.15907)
(98.9114 64.2344 0.360424)
(129.592 78.4959 -1.59769)
(189.427 102.721 0.855519)
(-197.995 449.932 2.98217)
(-96.0828 330.39 2.65826)
(-87.6157 352.935 -0.848027)
(-103.445 355.059 -0.38272)
(-82.9755 500.268 -2.34653)
(-23.6014 560.922 -4.54695)
(24.4737 566.345 -3.32352)
(77.6502 469.706 -4.99583)
(97.3127 319.463 2.23346)
(78.4489 174.484 4.97031)
(44.6857 75.9931 -0.224291)
(26.0298 36.2289 -1.939)
(23.6795 27.7141 -0.916474)
(25.0417 25.4019 1.24208)
(27.5545 24.7524 2.24395)
(32.2478 26.6581 1.79961)
(43.6015 34.022 0.258168)
(65.1928 47.3604 -1.29063)
(90.0009 63.3333 -0.268258)
(141.424 89.028 2.95163)
(-175.172 483.284 3.8396)
(-97.278 388.558 4.64517)
(-99.7355 425.297 3.6492)
(-109.561 396.899 0.243411)
(-80.0789 514.179 -1.40546)
(-23.0163 561.132 -4.28672)
(23.2979 565.813 -3.29495)
(76.0361 478.126 -2.42393)
(99.0988 349.161 4.87029)
(89.6222 216.667 1.37636)
(62.7918 117 -3.50951)
(41.339 61.2021 -1.85065)
(30.5 38.5094 1.25037)
(25.2754 28.7524 2.41069)
(25.6207 26.0718 1.8595)
(28.1266 25.7154 0.219643)
(35.5387 30.3654 -0.960616)
(48.8809 40.1536 -0.523243)
(66.0617 52.6016 2.04178)
(106.157 75.8586 4.24154)
(-172.272 541.419 7.85928)
(-106.995 461.621 5.80382)
(-111.163 498.193 6.42027)
(-114.139 437.027 0.91141)
(-77.0595 525.747 -2.13955)
(-22.3937 563.186 -3.86064)
(23.0167 566.271 -2.78458)
(73.0742 482.492 0.757867)
(99.845 370.667 2.33292)
(98.0932 259.029 -4.00207)
(81.4464 162.925 -3.83549)
(59.5017 95.2057 1.61154)
(41.3287 55.8658 3.46457)
(28.5273 34.9891 2.24156)
(26.0355 29.3501 0.427707)
(28.2748 28.6387 -0.832833)
(33.0268 31.0795 -0.494214)
(40.2419 35.6968 1.26948)
(51.2174 44.2116 3.02778)
(80.2589 63.9629 3.71339)
(-175.278 619.569 17.4607)
(-113.55 556.343 10.6317)
(-117.603 580.874 6.8268)
(-116.676 477.904 1.67424)
(-73.6021 539.712 -2.96579)
(-22.0134 567.537 -3.21865)
(22.9835 566.733 -2.05768)
(71.2122 488.428 0.565733)
(98.8102 394.942 -3.15121)
(105.803 299.445 -4.65153)
(96.3571 206.893 1.1166)
(76.0034 132.147 5.88895)
(54.3051 78.0723 3.98233)
(37.0601 48.0561 0.930619)
(32.0358 38.0591 -0.578695)
(31.6902 33.9881 -0.416867)
(33.7173 33.8068 1.19959)
(38.1527 35.7603 2.76487)
(43.5001 39.9592 2.80842)
(64.1688 55.2516 2.32288)
(-183.835 731.83 20.2712)
(-117.959 670.227 15.2114)
(-121.009 667.832 7.03843)
(-117.991 522.154 1.95155)
(-70.9589 557.018 -2.9562)
(-21.8066 573.957 -2.52366)
(23.1896 568.783 -1.36954)
(69.5546 497.206 -1.91281)
(98.7387 420.704 -4.11654)
(111.115 334.83 0.91582)
(105.4 246.26 6.61749)
(89.0304 165.391 5.80116)
(68.5927 106.261 1.15519)
(51.552 71.5284 -0.727333)
(43.4759 53.447 -0.146981)
(38.3896 43.2329 1.57372)
(36.5072 39.2962 2.81398)
(39.0785 39.5504 2.91498)
(42.6692 41.7614 1.77795)
(56.6107 52.0254 1.19031)
(-198.439 847.336 24.4515)
(-110.626 801.089 21.313)
(-117.223 777.311 9.93354)
(-116.185 568.047 3.38182)
(-69.8966 577.143 -1.4764)
(-21.8604 580.719 -2.33756)
(23.4402 573.082 -1.32737)
(68.241 509.986 -3.06998)
(99.3042 441.618 -0.31835)
(113.139 360.457 4.5749)
(112.531 273.688 4.62702)
(99.3147 195.688 0.614013)
(82.9442 137.754 -1.16289)
(68.2842 98.2073 0.356397)
(57.1119 72.8871 2.84389)
(48.3761 56.4223 3.83826)
(42.2984 46.3922 3.18999)
(42.4477 43.9713 2.04986)
(44.6016 44.6951 0.775613)
(54.4348 51.9349 1.43056)
(-228.153 1102.43 26.0478)
(-106.581 1060.34 27.5593)
(-100.638 1040.66 17.596)
(-105.663 718.656 8.6825)
(-67.9678 648.319 1.16955)
(-19.2474 603.004 -1.64137)
(24.4089 588.803 -1.22939)
(67.8752 534.647 -1.5671)
(98.8 472.979 1.73365)
(116.327 399.033 3.0626)
(121.592 325.142 1.21876)
(116.457 256.95 -0.409182)
(107.002 199.11 0.86344)
(94.4568 151.867 3.47509)
(81.7761 115.825 5.17587)
(70.0452 88.5649 4.74052)
(60.1871 70.2332 2.91912)
(56.1938 61.0343 1.49235)
(54.0925 56.5147 1.53171)
(58.7592 58.6961 2.72004)
(-1035.71 -1038.92 84.7341)
(-664.225 -1007.13 109.737)
(-616.884 -991.356 56.4834)
(-513.738 -906.984 14.3475)
(-329.123 -1122.16 -2.53672)
(-102.266 -1258.23 -2.98352)
(110.294 -1232.56 -4.45982)
(341.856 -1100.86 -4.11568)
(485.977 -860.943 0.665994)
(509.929 -605.88 8.91021)
(485.572 -423.396 5.48459)
(449.464 -302.77 7.42585)
(440.495 -238.154 11.9226)
(466.009 -206.133 8.36951)
(497.774 -180.826 9.41218)
(555.525 -176.503 15.0651)
(635.889 -178.832 25.692)
(753.705 -187.687 27.3912)
(878.822 -202.167 31.975)
(1148.94 -234.385 31.1926)
(-978.348 -672.813 108.859)
(-696.962 -689.001 93.9829)
(-510.74 -572.793 5.11882)
(-395.54 -658.559 5.64866)
(-348.031 -1053.83 -2.75529)
(-105.365 -1235.17 -3.12108)
(114.594 -1208.44 -4.52634)
(354.479 -1036.52 -1.08355)
(460.838 -658.183 0.645186)
(386.462 -334.92 6.43045)
(309.264 -180.327 6.49884)
(273.849 -115.547 5.73414)
(300.848 -103.294 9.4547)
(340.818 -98.2194 8.224)
(399.082 -96.85 9.94328)
(473.134 -105.467 11.6079)
(571.811 -112.265 17.2956)
(694.352 -115.598 20.3292)
(836.411 -108.088 26.8693)
(1118.25 -106.825 33.6567)
(-968.168 -593.028 63.5828)
(-557.719 -492.419 3.58579)
(-473.201 -476.024 -6.40192)
(-384.44 -532.735 20.2721)
(-359.692 -1035.41 1.70192)
(-119.09 -1227.54 -6.49947)
(121.368 -1204.87 -7.43847)
(368.209 -989.515 1.44019)
(401.428 -470.157 6.40958)
(260.206 -162.529 -1.90323)
(201.547 -83.4333 8.88143)
(241.999 -80.0786 5.11098)
(297.192 -81.5518 6.44336)
(366.447 -87.3775 3.62697)
(444.991 -96.7114 7.00476)
(517.461 -110.276 8.24763)
(598.673 -119.91 8.49414)
(689.527 -124.525 8.18179)
(805.008 -122.55 10.9567)
(1091.53 -107.946 19.0193)
(-869.799 -499.898 15.7163)
(-618.017 -381.874 -1.0333)
(-493.505 -373.857 9.0001)
(-380.521 -397.037 -8.74339)
(-406.711 -853.908 1.72754)
(-208.937 -1204.68 -6.74754)
(48.7033 -1245.53 -8.56499)
(304.161 -1087.39 -2.46939)
(374.598 -469.785 2.58853)
(190.741 -74.5258 2.50797)
(231.205 -74.4536 3.56697)
(274.624 -86.1173 2.11308)
(320.142 -97.1119 3.58957)
(362.67 -104.272 4.38331)
(405.517 -110.189 4.61378)
(449.056 -115.448 4.30381)
(493.094 -119.054 4.38501)
(539.333 -121.29 4.37377)
(584.757 -120.461 5.20078)
(732.465 -112.791 10.296)
(-1065.55 -318.322 -1.83667)
(-986.609 -340.192 -4.85807)
(-960.911 -351.968 -2.36128)
(-745.813 -387.294 2.38575)
(180.132 -65.3699 0.69079)
(435.04 -81.732 2.68762)
(469.23 -87.5737 2.34339)
(489.456 -88.1279 2.50607)
(503.634 -86.2715 2.15006)
(518.103 -84.0623 2.29225)
(534.73 -81.9184 3.37488)
(549.107 -79.3107 3.21647)
(563.271 -76.2329 1.93788)
(579.627 -73.1172 1.26718)
(599.303 -71.512 1.90647)
(668.38 -71.0372 4.02071)
(-1198.47 -102.854 -2.25143)
(-1175.14 -104.238 -2.90188)
(-1168.29 -117.024 -5.41004)
(-1168.03 -205.46 -4.13076)
(582.053 -50.5326 2.34166)
(617.521 -28.1874 2.22372)
(607.409 -27.1522 1.9041)
(599.293 -26.2057 1.99247)
(594.389 -25.1774 2.24966)
(590.703 -24.5843 2.13268)
(591.067 -24.1169 1.82938)
(593.292 -23.4859 1.6877)
(597.744 -23.0948 1.75626)
(604.936 -22.7381 2.41393)
(612.579 -22.9557 2.55903)
(633.915 -20.8886 2.89428)
(-1180.94 98.7124 0.0851223)
(-1160.79 104.924 1.26031)
(-1155.95 115.023 -2.27765)
(-1201.07 46.8277 -2.79274)
(639.619 8.27138 2.70115)
(623.388 29.3899 3.06462)
(615.738 27.7447 2.6708)
(607.756 26.4489 3.10746)
(601.377 25.2803 3.47168)
(597.554 24.3066 3.16841)
(596.919 23.1958 2.41145)
(597.33 22.5582 2.16708)
(598.019 22.6326 2.39039)
(599.983 23.057 2.78175)
(604.048 23.3634 2.79525)
(618.578 24.2896 2.70301)
(-1053.93 322.677 -1.11161)
(-997.13 336.601 1.78842)
(-953.541 350.91 3.05356)
(-1046.18 291.915 -0.603102)
(547.979 65.8752 2.94688)
(433.075 80.7732 1.00745)
(453.814 82.1522 4.02216)
(467.951 81.6908 4.99496)
(479.285 80.6111 2.7429)
(491.331 78.4202 0.025695)
(500.434 76.7722 0.951493)
(505.018 74.1996 4.00454)
(510.614 71.949 4.89111)
(519.358 70.8556 2.99314)
(531.199 69.5619 0.616478)
(555.706 69.0277 1.46419)
(-824.075 461.141 -3.62294)
(-635.486 439.089 -3.24928)
(-462.269 385.688 2.26354)
(-455.581 359.054 -3.38466)
(-62.8821 175.619 -1.10846)
(-48.7765 567.56 -3.16226)
(9.02324 622.312 -2.21778)
(65.3537 528.866 -1.87609)
(41.7164 39.3271 0.53288)
(94.4007 43.6707 3.41195)
(158.772 61.6922 1.72427)
(222.42 77.1522 -2.07038)
(276.549 88.4551 -1.91244)
(317.172 94.6893 2.87961)
(349.719 97.564 7.33027)
(375.128 99.3488 6.90803)
(400.867 100 2.03264)
(428.152 99.0777 -1.53573)
(450.151 99.9386 0.97245)
(482.912 99.6835 3.86579)
(-578.948 483.892 2.8593)
(-323.125 368.475 0.639699)
(-159.236 247.285 -4.20387)
(-72.7519 179.226 -0.315359)
(-78.9912 419.274 -0.993328)
(-26.5884 600.192 -2.88299)
(29.8317 603.046 -2.01791)
(80.3175 416.817 -2.58193)
(43.4584 95.4961 2.77442)
(24.2244 24.4813 0.677231)
(41.0407 27.1379 -2.22867)
(73.6265 40.3684 -1.02384)
(117.742 57.2719 3.45653)
(163.318 72.5599 6.54365)
(205.593 84.7469 5.06879)
(249.181 94.1671 -0.191653)
(293.193 101.942 -3.32346)
(329.379 108.239 0.0874791)
(357.457 111.267 5.75531)
(399.492 115.188 6.00905)
(-402.16 457.755 0.268668)
(-172.22 290.454 1.33803)
(-81.9618 190.371 4.67272)
(-72.9122 217.635 1.84021)
(-84.598 453.275 -1.87554)
(-25.4899 590.557 -2.62947)
(28.167 596.319 -2.23272)
(81.5231 439.003 0.616097)
(62.8702 161.866 0.733679)
(27.2311 42.0514 -2.49241)
(18.9766 19.2144 -0.866763)
(25.9488 19.7418 1.77703)
(42.0817 27.5851 2.84747)
(68.0625 40.4487 1.77495)
(105.576 56.7172 -1.5769)
(150.815 74.218 -3.447)
(193.887 89.6888 -0.466328)
(233.583 99.9045 6.58424)
(264.94 107.894 7.44108)
(318.404 118.524 4.27439)
(-287.307 421.645 0.896952)
(-111.123 256.32 1.81913)
(-76.9633 227.67 1.29433)
(-83.2171 259.647 -1.33661)
(-85.381 474.501 -1.32803)
(-24.5113 582.827 -2.36132)
(26.8754 589.445 -1.58839)
(80.9607 454.329 1.50855)
(78.6458 225.875 -3.81386)
(41.5552 76.7571 -1.77734)
(19.806 26.6423 1.64138)
(17.1346 17.2844 1.99125)
(21.2526 17.2435 0.474207)
(31.9557 23.013 -1.17564)
(54.0914 36.2022 -1.80569)
(84.1515 52.3769 0.319667)
(118.429 68.4194 5.16765)
(153.287 81.9239 7.40402)
(183.07 92.8938 3.3343)
(245.039 110.27 0.602575)
(-227.456 414.66 5.36092)
(-98.8433 281.407 5.08094)
(-79.3873 279.983 4.29195)
(-94.2029 304.498 -0.401517)
(-83.7497 489.268 -1.28917)
(-23.5606 577.803 -2.39437)
(25.6355 583.591 -1.2338)
(79.8899 466.816 -1.02281)
(89.8528 279.702 -4.41653)
(59.2471 122.787 2.52001)
(28.826 44.3587 2.77251)
(17.3498 21.5244 0.488984)
(19.9505 20.0285 -1.3705)
(23.3911 20.179 -1.17649)
(31.3893 24.5963 0.491657)
(46.5361 34.2149 3.00729)
(67.342 46.7892 4.30238)
(93.3712 60.2014 2.72125)
(123.035 73.4623 -1.04249)
(183.28 97.8666 0.187947)
(-197.657 439.256 3.37619)
(-95.3537 320.506 2.21784)
(-87.157 346.608 0.102889)
(-101.675 346.947 0.961538)
(-81.5763 503.364 -1.05169)
(-23.1181 574.121 -2.83454)
(24.7372 580.012 -1.57939)
(77.7705 479.632 -3.97649)
(95.6934 319.755 0.183191)
(75.1464 170.123 5.57503)
(43.0556 72.7013 1.51463)
(24.0573 33.4831 -1.31225)
(20.5907 24.0916 -1.1825)
(21.6129 21.7608 0.546461)
(24.2608 21.5526 2.30484)
(29.1839 23.8952 2.60344)
(39.6334 30.6424 1.56475)
(60.1577 42.8761 -0.501246)
(84.4161 57.9816 -0.59552)
(134.427 83.4223 2.53462)
(-173.556 470.235 4.84981)
(-96.3531 378.458 3.65527)
(-97.1172 424.251 1.55744)
(-107.734 388.898 1.49632)
(-79.3457 519.027 -0.382818)
(-22.8007 574.305 -3.28628)
(23.6632 580.876 -2.33188)
(76.1935 489.078 -3.04856)
(97.9324 351.476 4.67716)
(87.589 213.682 3.74186)
(60.1788 112.403 -2.36092)
(38.5143 57.6162 -2.13472)
(25.9524 33.1882 0.467551)
(21.7939 24.7179 2.3772)
(23.3465 23.4942 2.56754)
(25.8737 23.4005 1.37235)
(32.6175 27.2107 -0.375025)
(45.5373 36.2063 -0.549502)
(61.2024 47.6857 1.62102)
(100.151 70.5367 4.56451)
(-169.196 526.521 8.59768)
(-106.202 451.413 5.41753)
(-109.55 496.892 3.57055)
(-112.784 431.174 1.39164)
(-76.8548 532.724 -0.952355)
(-22.2134 576.448 -3.26766)
(22.9144 582.173 -2.4764)
(73.7057 494.259 0.0368481)
(99.548 376.617 3.97064)
(97.0878 257.909 -2.16242)
(78.2831 159.362 -4.67126)
(55.8549 90.0834 -0.0367913)
(36.3691 49.8491 3.23217)
(25.3016 30.8649 2.8445)
(23.9013 26.6704 1.45735)
(25.6695 25.8968 -0.306245)
(30.5215 28.3343 -0.558772)
(37.1946 32.5459 0.941769)
(47.537 40.5406 3.21587)
(75.6287 59.3736 4.16917)
(-173.584 605.418 18.0625)
(-114.691 547.275 11.0362)
(-118.804 575.961 5.13149)
(-116.325 474.224 1.57418)
(-73.9872 546.66 -2.34981)
(-21.8438 580.8 -3.08702)
(22.886 583.423 -2.1435)
(71.574 501.069 0.860307)
(100.109 402.357 -1.20309)
(104.575 301.261 -5.65656)
(93.8555 203.548 -1.65807)
(72.1935 126.31 5.04105)
(50.0668 72.6965 4.76611)
(33.4143 43.0839 1.93212)
(28.8985 34.6354 -0.177105)
(28.8416 31.2861 -0.485661)
(30.7978 30.8163 0.807321)
(35.0708 32.6185 2.69346)