/*--------------------------------*- C++ -*----------------------------------*\
  =========                 |
  \\      /  F ield         | OpenFOAM: The Open Source CFD Toolbox
   \\    /   O peration     | Website:  https://openfoam.org
    \\  /    A nd           | Version:  9
     \\/     M anipulation  |
\*---------------------------------------------------------------------------*/
FoamFile
{
    format      ascii;
    class       volScalarField;
    location    "0.009";
    object      T;
}
// * * * * * * * * * * * * * * * * * * * * * * * * * * * * * * * * * * * * * //

dimensions      [0 0 0 1 0 0 0];

internalField   nonuniform List<scalar> 
9720
(
1037.92
1026.54
977.76
904.897
899.223
912.21
911.702
896.171
873.593
854.532
842.9
841.654
844.406
850.772
858.665
868.26
881.275
898.225
913.664
940.132
1025.96
949.338
857.813
850.207
891.81
909.731
909.533
889.422
850.912
814.628
804.107
806.633
812.655
822.473
834.65
846.97
861.526
878.774
894.948
925.672
980.281
857.286
842.791
836.821
890.164
909.812
909.38
887.096
835.097
797.962
799.41
809.871
821.86
830.269
837.148
841.678
847.425
855.866
866.917
904.332
905.822
848.756
835.828
818.68
862.541
908.378
914.598
900.264
827.366
775.036
770.967
771.022
772.557
775.357
778.411
781.693
785.485
791.335
798.222
834.068
896.396
888.014
886.52
862.519
759.178
764.211
765.952
766.27
767.013
768.545
770.575
772.787
775.478
779.413
783.584
799.541
908.412
905.941
906.568
904.885
783.664
786.894
785.006
783.204
781.844
780.697
780.699
781.046
782.02
783.685
785.336
789.636
907.565
905.51
906.19
911.557
792.163
787.629
785.92
784.263
782.87
781.802
781.236
780.827
780.906
781.296
781.934
784.33
891.665
885.037
883.007
896.376
777.618
756.508
757.3
757.828
758.726
760.003
761.386
762.625
763.9
765.59
767.528
771.905
869.117
846.72
831.503
821.598
736.018
778.694
787.151
771.457
746.787
730.753
728.555
729.055
730.629
733.363
736.184
739.079
742.596
746.962
751.012
758.23
851.052
810.632
792.48
765.826
759.318
782.694
782.977
749.978
721.625
736.451
726.33
721.56
720.346
719.84
720.583
723.064
726.553
731.819
736.306
744.915
839.473
799.928
794.581
763.899
760.561
780.543
781.121
752.177
721.177
723.706
720.165
711.606
710.016
711.343
713.523
715.488
717.983
721.028
723.901
732.509
838.076
802.231
805.724
765.395
761.503
778.629
779.424
753.393
722.863
717.711
708.834
699.818
703.513
710.295
713.082
713.386
712.745
713.109
714.936
724.039
840.726
808.266
816.753
768.377
762.791
777.059
778.055
754.809
726.287
715.657
705.847
703.232
705.617
711.984
714.064
712.907
711.73
713.293
714.327
720.639
846.843
818.246
824.309
771.336
764.506
776.213
777.144
756.58
730.452
715.121
707.672
708.504
711.657
713.954
713.055
711.791
712.993
716.095
715.737
719.79
854.495
830.524
831.413
774.307
766.562
776.415
776.719
758.34
734.15
716.191
710.67
711.625
714.757
714.233
710.807
711.096
714.278
717.197
716.966
720.568
863.842
842.413
836.825
777.856
768.975
777.118
776.834
759.967
737.613
719.773
713.095
712.374
714.02
714.024
712.468
712.487
713.535
715.352
717.39
722.693
876.594
856.161
842.987
782.175
772.099
778.49
777.189
761.588
741.57
724.782
715.892
711.916
712.748
715.338
716.782
715.606
713.808
715.127
717.884
725.251
893.567
872.618
851.02
788.665
776.593
780.513
777.963
763.671
746.367
731.08
719.006
712.562
713.785
717.874
721.863
720.773
717.795
718.231
720.584
727.592
909.344
888.539
861.198
795.921
781.163
782.446
778.97
765.974
750.694
735.929
721.817
714.316
714.887
717.998
721.909
724.353
723.425
723.922
725.357
729.501
936.242
920.375
897.845
831.278
797.893
787.538
782.124
770.92
758.282
744.719
730.667
722.732
721.319
722.369
724.804
728.349
731.237
733.877
734.194
735.977
1038.84
1025.97
971.157
900.328
899.167
912.704
912.273
896.612
873.538
853.681
841.994
840.632
843.231
849.64
857.678
867.261
880.068
896.932
912.465
939.67
1026.21
940.338
854.321
848.852
893.89
910.79
910.38
889.89
851.1
814.654
802.641
804.885
810.618
820.613
833.083
845.191
859.287
876.354
892.505
923.916
975.299
853.4
840.745
836.422
892.606
911.086
910.324
887.416
835.258
798.477
798.129
806.843
819.113
828.373
835.558
839.294
843.974
851.622
862.123
900.181
900.75
846.624
833.878
818.02
869.684
908.799
915.051
900.435
829.769
774.195
768.611
768.138
769.163
771.391
774.161
777.303
780.834
786.169
792.447
826.911
895.143
887.748
885.573
858.663
763.551
760.922
763.008
763.089
763.582
764.961
766.875
768.927
771.387
775.053
779.012
794.023
908.221
906.017
906.761
904.743
781.105
784.005
782.181
780.381
778.999
777.831
777.572
777.828
778.638
780.131
781.706
785.719
907.451
905.658
906.558
911.281
789.518
784.706
783.056
781.321
779.83
778.737
778.221
777.706
777.557
777.772
778.306
780.554
891.61
885.384
883.443
896.424
775.246
753.251
753.953
754.53
755.574
757.15
758.537
759.346
760.191
761.694
763.741
768.184
868.809
846.569
830.932
823.741
742.218
778.541
787.068
771.022
762.384
734.072
727.024
727.433
729.217
731.191
732.805
734.465
737.689
742.901
747.48
754.248
849.496
810.186
793.284
769.003
758.674
782.038
782.319
749.279
725.932
742.454
732.208
724.47
719.46
715.886
715.843
718.832
723.773
729.166
732.831
739.935
837.166
798.012
793.479
764.813
760.692
780.244
780.796
751.344
722.982
730.766
726.902
715.799
707.321
708.627
713.617
715.973
717.13
718.531
719.689
726.772
836.349
800.07
802.69
765.28
761.325
778.407
779.169
752.56
724.318
722.535
714.378
698.727
701.376
710.428
714.66
714.117
711.369
709.586
710.625
719.73
838.997
805.933
814.4
767.039
762.125
776.984
777.769
754.086
727.493
717.295
705.785
701.322
705.339
713.938
714.747
711.804
707.174
708.54
710.679
717.94
845.409
816.227
823.209
769.45
763.503
775.835
776.778
756.116
730.635
714.146
707.081
709.3
713.77
714.666
711.039
706.38
707.293
712.179
713.269
717.05
853.465
828.965
830.813
772.146
765.306
775.866
776.342
757.816
732.896
714.349
712.32
714.043
715.314
712.448
705.09
705.429
710.762
716.189
715.251
717.349
862.993
840.846
835.329
775.398
767.375
776.214
776.059
758.817
735.012
718.092
715.532
714.03
713.088
709.071
706.752
708.866
713.075
715.226
715.664
718.859
875.558
854.262
840.219
779.161
770.007
777.133
776.12
759.882
738.655
724.137
717.12
711.528
709.118
709.734
713.378
715.021
714.122
714.414
715.724
721.587
892.281
870.56
847.354
784.745
773.922
778.729
776.48
761.669
744.188
730.257
718.57
710.083
710.13
714.402
720.562
720.226
716.906
716.078
717.572
724.666
907.88
886.431
857.007
791.069
778.025
780.417
777.192
763.962
748.872
734.095
719.685
711.33
712.044
716.049
720.116
721.587
720.234
720.34
722.021
726.764
935.29
918.701
894.195
824.529
793.199
784.881
779.86
768.72
755.896
741.454
727.048
720.423
719.474
720.443
721.793
724.245
727.117
730.461
730.99
732.401
1045.42
1028.95
964.454
896.3
899.188
912.998
912.544
896.825
873.748
853.784
842.599
841.911
844.612
851.363
859.887
869.515
882.48
899.739
916.041
944.167
1030.31
929.205
852.34
849.876
894.756
910.991
910.427
889.573
851.236
815.954
803.907
806.309
812.339
822.734
835.715
847.744
861.653
878.886
895.684
928.518
968.962
849.717
839.253
838.087
892.615
910.843
910.307
886.766
835.528
802.156
800.297
807.24
820.237
831.778
840.397
843.347
846.15
852.037
861.378
899.967
894.156
844.619
832.939
816.712
871.542
909.367
915.405
900.613
829.481
774.835
770.469
767.656
768.314
770.011
772.51
775.519
778.828
783.528
789.035
820.766
893.615
887.575
885.1
856.782
754.488
757.551
761.711
761.533
761.375
762.032
763.827
766.159
768.721
772.214
776.049
789.977
907.653
905.606
906.356
904.843
778.439
782.123
780.25
778.415
777.089
775.908
775.733
776.002
776.813
778.374
780.139
784.157
907.551
905.822
906.259
911.245
786.962
782.823
781.045
779.21
777.741
776.764
776.333
776.01
776.011
776.243
776.846
779.145
891.805
885.622
883.502
896.605
772.29
751.177
751.398
751.968
753.149
755.132
756.695
757.429
758.218
759.833
762.062
766.658
868.677
846.625
830.81
824.868
752.553
776.971
785.43
769.844
777.346
734.641
726.752
727.052
728.675
729.568
730.211
731.335
734.426
740.32
745.366
752.316
848.238
810.767
796.829
772.989
756.541
780.926
781.261
748.315
731.274
747.248
738.483
729.821
720.949
715.136
714.766
717.419
722.958
727.802
730.867
737.354
835.472
797.846
794.69
766.977
760.439
779.03
779.546
749.434
724.815
737.76
735.129
724.833
711.427
711.057
715.209
718.604
718.527
718.333
718.636
724.649
835.863
800.153
801.298
764.692
760.312
777.208
777.875
750.525
725.533
728.598
723.943
707.437
706.69
714.367
719.372
718.389
713.813
711.306
712.202
720.545
838.803
806.608
814.181
765.626
760.178
775.876
776.511
752.158
727.875
719.72
710.797
706.354
710.356
717.949
718.798
716.337
710.844
711.389
713.382
720.145
845.947
817.286
825.867
767.526
760.777
774.695
775.535
754.518
729.666
714.926
710.662
713.494
717.629
717.984
714.768
710.641
710.985
716.551
717.921
721.129
854.953
830.671
835.284
770.03
762.424
774.509
775.273
756.362
730.874
714.926
715.118
718.885
718.67
715.355
708.784
709.591
716.277
723.443
721.677
722.588
864.862
842.884
838.919
773.154
764.647
774.777
775.187
757.318
732.423
718.186
719.164
718.468
716.602
712.055
710.372
715.076
722.642
723.148
722.839
724.931
877.725
856.521
841.856
776.662
767.245
775.562
775.279
758.372
735.915
724.351
719.401
714.409
712.331
712.617
717.779
723.798
722.702
721.816
722.817
728.223
894.759
873.305
847.422
781.53
770.81
777.131
775.645
760.272
742.056
729.745
719.824
712.669
713.047
718.306
726.538
726.675
723.736
723.089
724.429
732.055
910.95
889.884
856.2
787.063
774.721
778.975
776.344
762.658
747.364
733.257
720.453
713.813
715.132
720.171
725.611
727.669
726.532
726.834
728.889
734.059
939.356
923.475
894.202
817.807
788.619
783.352
778.938
767.525
754.798
740.36
727.084
722.319
722.568
724.125
726.624
730.319
734.187
738.17
738.408
739.495
1052.69
1031.49
956.664
893.273
899.447
913.38
912.764
896.736
873.036
852.359
840.971
841.863
844.911
852.218
861.819
871.969
885.43
902.993
920.026
949.291
1032.84
915.459
851.386
851.124
894.915
911.172
910.699
889.501
849.816
815.358
804.537
807.007
813.321
824.225
838.383
851.074
864.873
882.226
899.637
933.856
960.241
847.766
838.702
838.568
891.249
910.989
910.654
886.848
833.761
803.367
804.594
808.702
820.433
834.116
846.022
850.141
851.005
854.444
862.107
899.917
888.447
844.729
834.24
817.909
866.611
909.847
915.817
900.746
829.348
779.155
774.469
768.871
768.816
770.039
772.489
775.576
778.569
782.339
786.729
814.552
892.831
888.383
885.843
861.809
728.784
756.427
762.058
762.285
761.639
761.746
762.888
765.127
767.688
770.693
773.921
785.909
907.254
905.552
906.247
904.765
777.491
781.978
780.245
778.391
776.989
775.944
775.214
775.327
775.887
777.203
778.876
782.554
907.55
905.79
905.857
911.18
786.265
782.838
781.16
779.306
777.739
776.655
776.083
775.711
775.507
775.662
776.069
777.876
891.714
885.202
882.731
896.358
771.71
751.596
751.274
751.476
752.422
754.351
755.962
756.715
757.419
758.853
760.769
764.904
868.567
845.893
829.685
823.551
738.456
776.845
785.295
769.792
792.914
741.299
731.051
729.927
730.484
729.979
729.714
730.457
733.109
738.493
743.382
750.511
847.645
810.967
798.48
776.553
755.799
781.156
781.635
748.717
732.942
754.498
745.521
736.72
725.41
716.995
716.808
718.781
723.278
727.489
729.9
735.726
834.953
799.096
799.356
771.988
761.146
779.263
779.95
749.461
726.175
742.606
742.887
734.658
718.362
716.419
718.149
720.983
720.806
718.705
718.552
723.884
836.022
801.344
803.316
766.714
761.287
777.345
778.203
750.368
726.84
734.232
733.431
719.395
714.738
719.589
723.944
722.926
716.773
713.956
714.969
721.953
839.281
808.265
815.249
766.59
760.53
775.872
776.744
752.007
728.806
724.437
717.711
713.911
717.527
723.046
723.363
720.672
714.834
715.438
717.059
722.655
846.533
819.343
828.792
767.696
760.547
774.858
775.757
754.308
730.153
716.708
715.485
717.869
722.25
721.898
718.196
715.571
716.246
721.825
722.211
724.485
856.02
833.125
840.6
769.773
761.459
774.146
775.348
756.167
730.646
716.401
716.916
722.327
722.633
718.518
713.617
715.492
722.109
730.355
728.285
728.064
866.025
845.249
844.608
772.444
763.426
774.244
775.097
757.191
731.703
718.319
720.091
721.967
720.552
715.65
715.508
721.373
731.925
734.192
731.957
732.73
879.318
858.291
844.902
775.45
765.846
774.766
775.15
758.171
734.501
723.301
720.699
717.119
714.997
716.264
721.885
732.347
734.047
733.2
733.164
737.157
896.673
874.967
847.56
779.24
768.829
776.051
775.414
759.853
739.99
728.74
720.098
714.527
715.59
721.388
730.356
735.621
734.255
733.72
735.378
742.061
913.658
891.981
854.345
783.577
772.128
777.813
775.942
761.911
745.37
732.098
720.35
715.453
717.121
722.23
729.134
734.38
735.265
736.963
739.327
743.784
943.738
927.397
890.945
809.403
783.869
781.883
778.062
766.236
753.245
738.92
726.039
722.481
723.394
725.594
729.77
735.74
741.674
747.227
747.562
749.024
1057.6
1033.75
952.184
890.828
899.772
913.615
913.011
896.759
872.348
850.8
839.213
840.888
844.853
852.79
863.081
873.825
887.762
905.35
922.607
951.993
1035.74
909.681
850.264
851.283
895.796
911.702
911.037
889.626
848.473
813.869
803.388
806.104
813.699
824.761
839.288
852.883
867.379
885.062
902.906
937.532
956.288
846.711
837.675
839.03
892.138
911.605
911.179
887.091
832.132
802.744
805.889
808.798
819.021
833.53
847.906
854.078
853.914
856.018
862.807
900.473
885.9
844.414
833.2
817.057
868
910.236
916.325
901.396
826.476
781.096
776.407
769.861
768.667
769.84
772.314
775.801
778.889
782.288
786.101
811.316
892.291
887.904
884.667
860.072
742.104
755.562
762.174
762.856
762.003
761.87
762.719
764.94
767.702
770.726
773.809
784.644
906.923
905.266
906.183
904.687
777.892
782.366
780.514
778.531
776.989
776.016
775.268
775.338
775.858
777.153
778.893
782.472
907.335
905.6
906.031
910.936
786.813
783.444
781.637
779.681
778.038
776.888
776.235
775.714
775.729
775.962
776.371
777.984
891.358
884.77
882.32
896.2
772.66
751.94
751.456
751.53
752.397
754.215
755.825
756.729
757.543
758.858
760.49
764.35
868.044
844.866
828.621
823.855
738.502
777.306
786.126
770.487
796.062
746.843
735.203
732.339
731.367
730.216
730.094
730.742
732.921
737.42
742.29
749.893
846.888
810.557
799.442
779.142
755.159
781.463
782.188
749.301
735.447
760.02
748.703
739.999
731.22
720.934
719.067
720.128
723.049
727.315
730.073
735.781
834.701
799.843
801.826
774.544
761.417
779.545
780.445
749.946
728.024
745.044
747.326
741.259
728.404
720.434
720.512
722.025
722.423
721.389
720.617
724.39
836.121
802.345
805.51
768.419
761.838
777.513
778.662
750.604
728.496
736.728
739.838
732.681
721.645
722.06
725.638
725.757
722.481
719.069
718.916
722.947
839.823
809.77
816.352
766.905
760.902
775.918
777.233
751.919
729.11
728.623
725.921
720.078
720.112
724.509
727.773
726.987
722.529
720.827
720.694
724.517
846.976
820.923
829.99
767.884
760.544
774.976
776.19
753.862
730.193
719.404
718.273
720.059
723.4
726.052
726.4
725.75
724.139
725.431
725.646
727.805
856.388
834.73
842.515
769.793
761.203
774.161
775.559
755.709
731.072
717.677
718.407
722.983
726.695
726.116
724.164
724.746
726.769
733.338
733.876
733.555
866.178
846.844
848.026
772.334
763.055
774.155
775.157
757.237
732.193
718.756
719.86
723.426
725.809
725.046
724.395
726.259
733.398
743.064
742.324
740.141
879.41
859.299
847.262
775.126
765.448
774.502
775.239
758.539
734.469
722.04
720.954
720.925
721.134
722.632
725.751
733.067
741.557
745.148
743.347
743.975
896.835
875.491
848.352
778.432
768.183
775.542
775.569
759.98
738.833
727.376
721.037
717.637
718.946
723.374
731.661
743.137
746.112
745.131
744.317
746.586
914.349
892.261
853.456
782.086
771.109
777.16
776.002
761.529
743.868
731.37
721.166
717.462
718.953
723.807
732.43
742.645
745.277
745.318
745.338
748.473
945.567
928.209
887.464
804.27
781.414
780.991
777.716
765.387
752.227
738.447
725.439
722.034
723.522
726.957
733.272
741.349
746.76
750.056
751.487
755.342
1057.89
1033.89
951.392
889.785
899.788
913.843
913.126
896.839
872.37
850.794
839.135
840.979
845.053
852.858
863.167
874.228
888.471
906.188
923.377
952.342
1036.48
909.837
849.949
851.016
896.183
912.132
911.197
889.636
848.444
813.795
803.324
806.145
814.333
825.286
839.209
852.708
867.598
885.711
903.908
938.519
957.079
846.542
837.387
839.145
892.927
912.098
911.268
887.017
832.203
802.782
806.509
809.683
820.171
834.688
848.794
854.614
854.437
856.579
863.613
902.174
886.413
844.569
832.959
816.204
871.455
910.492
916.445
901.62
826.885
781.403
776.801
770.167
768.705
769.879
772.598
776.426
779.488
782.678
786.397
812.294
891.98
887.34
883.659
855.443
733.986
755.658
762.51
762.972
761.98
761.711
762.554
764.861
767.647
770.65
773.69
784.579
906.611
904.816
905.754
904.821
778.216
782.508
780.643
778.633
776.958
775.903
775.107
775.156
775.635
776.853
778.541
782.061
907.129
905.465
906.102
910.98
787.311
783.524
781.687
779.683
777.902
776.618
775.997
775.598
775.44
775.642
776.022
777.599
891.107
884.693
882.416
896.17
772.93
751.659
751.352
751.477
752.351
754.275
755.917
756.894
757.746
758.915
760.539
764.332
867.783
844.855
828.65
822.917
757.355
777.067
786.039
770.704
807.597
746.311
734.789
731.883
730.93
730.325
730.522
731.142
733.051
737.559
742.497
750.056
846.559
810.709
799.9
778.727
754.737
781.148
781.863
749.174
740.024
762.079
748.946
739.624
731.046
720.91
718.789
719.832
722.9
727.494
730.377
735.91
834.493
800.356
802.652
774.328
760.888
779.34
780.159
749.251
730.201
746.575
747.761
741.482
728.495
719.982
720.076
721.51
722.317
721.7
720.833
724.188
836.004
802.811
806.41
768.399
761.492
777.422
778.356
749.648
729.118
737.308
740.451
733.357
721.673
721.432
724.827
725.453
722.706
718.852
718.345
722.621
839.883
810.145
816.785
766.874
760.618
775.911
776.843
751.078
729.141
729.191
726.848
720.674
720.032
723.862
728.078
727.389
722.737
720.266
720.274
724.274
847.182
821.16
830.017
767.768
760.302
774.958
775.773
753.61
729.811
719.845
719.013
720.615
723.542
726.664
727.206
726.293
723.773
725.023
725.509
727.696
856.673
834.972
842.528
769.524
760.935
774.232
775.322
755.696
730.364
718.069
719.128
723.71
727.43
726.99
724.759
724.752
726.606
734.025
734.348
733.633
866.48
847.183
848.191
771.952
762.751
774.28
775.101
756.83
731.4
719.185
720.609
724.046
726.384
725.609
724.6
726.53
734.568
743.232
741.93
739.962
879.723
859.556
847.39
774.789
765.273
774.712
775.152
757.794
733.803
722.579
721.19
721.012
721.205
722.817
726.264
734.67
742.249
743.849
742.513
743.671
897.178
875.568
848.327
778.217
768.23
775.826
775.381
759.324
738.672
727.478
720.765
717.76
719.32
724.131
733.314
743.916
744.893
743.758
743.265
746.312
914.713
892.247
853.131
781.92
771.29
777.484
775.828
761.284
743.863
730.883
720.825
717.745
719.433
724.605
733.655
742.946
744.574
744.303
744.694
748.803
945.966
928.209
886.357
803.463
781.505
781.285
777.67
765.445
751.841
737.675
725.254
722.693
724.132
727.678
734.096
741.95
747.034
750.185
752.044
756.189
1053.34
1031.68
955.041
891.473
899.908
913.979
913.205
897.035
872.774
851.622
840.526
841.94
845.468
852.828
862.506
872.99
886.963
904.713
921.595
950.099
1034.43
915.577
850.574
850.987
896.32
912.388
911.176
889.69
848.829
813.932
803.799
806.897
814.464
825.423
839.095
851.838
866.32
884.376
902.32
936.195
961.746
846.894
837.671
839.85
893.383
912.339
911.091
886.911
832.416
802.204
804.567
809.217
821.88
836.451
848.512
852.341
852.943
856.37
864.536
903.846
888.537
843.784
832.481
816.874
871.252
910.685
916.579
901.777
826.704
780.269
775.475
769.244
769.049
770.406
773.384
776.881
779.825
783.445
787.801
816.856
891.654
886.861
883.885
855.779
735.052
755.754
762.251
762.383
761.604
761.699
762.943
765.408
768.11
771.138
774.383
786.618
906.465
904.756
905.707
904.768
777.947
781.93
780.083
778.168
776.701
775.718
775.011
775.104
775.652
776.992
778.752
782.586
906.895
905.294
906.061
910.883
786.954
782.831
781.053
779.19
777.633
776.578
776.014
775.579
775.438
775.641
776.096
777.967
890.901
884.514
882.189
895.924
772.247
750.804
750.696
751.078
752.329
754.429
756.222
757.089
757.766
759.066
760.823
764.88
867.513
844.664
828.67
822.366
734.183
776.635
785.53
770.253
798.502
739.606
730.298
729.161
729.942
730.119
730.085
730.75
733.16
738.273
743.314
750.693
847.004
810.491
799.085
777.515
754.826
781.011
781.695
748.933
738.628
757.111
746.179
736.989
726.491
717.535
717.054
718.711
723.001
727.517
730.081
735.812
834.647
799.764
800.619
773.099
761.048
779.156
779.963
749.34
728.597
745.263
744.674
736.327
720.38
716.915
718.072
720.883
721.083
719.257
718.927
723.844
835.89
801.953
805.03
767.396
761.325
777.231
778.142
750.052
728.292
736.15
735.641
722.302
715.611
719.331
723.987
723.492
718.094
714.363
715.093
721.628
839.615
808.797
816.634
766.932
760.504
775.738
776.6
751.428
729.189
725.643
719.47
715.142
718.009
723.239
724.219
722.294
715.963
715.855
717.081
722.546
847.352
820.29
829.756
768.01
760.421
774.632
775.485
753.562
729.691
717.389
716.688
719.002
723.096
723.219
720.505
717.371
717.244
721.875
722.649
724.904
857.017
834.521
841.601
770.111
761.261
773.979
775.031
755.42
729.975
717.098
718.098
723.705
724.202
720.866
715.53
716.901
722.652
731.749
729.905
728.814
866.851
846.774
846.799
772.82
763.29
774.13
774.865
756.539
731.004
719.016
721.056
723.268
722.306
717.636
717.108
722.571
733.741
736.053
733.338
733.597
880.11
859.448
846.828
775.816
765.843
774.743
774.949
757.587
733.828
723.649
721.183
718.063
716.398
717.693
723.526
734.859
736.456
734.386
733.836
737.987
897.63
875.845
848.782
779.574
768.917
776.123
775.228
759.272
739.368
728.368
720.054
715.336
716.642
722.89
733.394
737.925
735.984
734.119
735.183
742.694
914.849
892.818
854.737
783.75
772.215
777.918
775.762
761.302
744.626
731.463
720.193
716.26
718.306
724.205
731.845
736.607
736.381
736.617
739.05
745.221
945.059
928.485
889.89
807.992
783.54
781.92
777.876
765.715
752.526
738.128
725.861
723.441
724.686
727.538
731.971
737.49
742.669
747.82
748.907
751.082
1045.81
1028.35
962.119
895.758
900.45
914.226
913.364
897.393
873.585
852.958
841.942
842.238
844.985
851.671
860.178
869.945
883.387
900.95
917.12
944.593
1031.02
928.115
852.51
850.865
896.321
912.502
911.201
890.056
850.207
814.248
803.211
806.196
813.106
823.875
836.605
848.707
863.251
881.157
898.349
930.573
969.814
848.958
839.427
839.433
893.991
912.4
911.016
887.189
833.774
800.617
800.414
807.662
822.001
834.694
843.356
846.136
848.935
855.043
865.101
905.056
893.318
843.725
832.584
817.955
871.824
910.595
916.404
901.489
826.628
776.795
771.898
767.925
768.58
770.556
773.631
776.846
780.155
784.888
790.52
824.376
892.483
886.747
884.579
856.216
735.804
756.621
761.685
761.409
761.155
761.861
763.844
766.347
768.974
772.506
776.355
790.734
906.805
904.989
906.02
904.825
777.154
781.545
779.722
777.918
776.59
775.401
775.087
775.361
776.218
777.875
779.704
783.808
906.786
905.221
906.184
910.94
786.038
782.293
780.613
778.848
777.38
776.393
775.963
775.636
775.671
775.918
776.496
778.761
890.942
884.822
882.802
896.029
771.267
750.373
750.592
751.189
752.494
754.765
756.66
757.366
758.016
759.472
761.604
766.173
867.733
845.479
829.864
823.035
757.393
777.27
785.997
770.562
783.833
738.202
727.869
727.509
728.883
729.855
730.337
731.201
733.981
739.785
745.015
752.084
847.957
810.54
797.281
774.303
756.903
781.783
782.227
749.351
733.434
751.181
741.417
732.225
722.883
715.804
715.119
717.567
723.037
728.079
731.079
737.181
834.838
798.881
797.26
769.275
761.141
779.863
780.494
750.254
726.135
740.816
738.677
728.493
713.487
711.974
715.61
719.64
719.841
719.249
719.279
724.499
835.702
800.974
804.107
765.982
761.038
777.94
778.709
751.089
726.814
731.68
727.699
710.244
708.031
714.955
720.932
720.305
715.692
712.156
712.82
720.704
839.36
807.576
816.819
766.757
760.811
776.526
777.233
752.442
729.012
722.267
712.924
708.029
711.875
719.842
720.878
718.546
712.373
712.384
714.132
721.031
846.895
818.777
827.964
768.559
761.289
775.357
776.186
754.672
730.473
716.015
712.074
714.862
720.038
720.556
717.173
712.428
712.301
717.565
719.351
722.526
855.932
832.416
837.465
770.957
762.816
775.014
775.821
756.633
731.249
715.733
716.11
721.009
721.154
717.836
710.592
711.057
717.33
725.677
723.975
724.328
865.834
844.439
841.265
773.867
765.051
775.255
775.616
757.567
732.324
718.583
720.401
720.639
719.017
713.883
711.816
716.588
725.33
726
725.015
726.578
878.962
857.773
843.443
777.183
767.677
776.006
775.674
758.423
735.352
724.402
720.771
716.409
713.841
713.939
719.156
726.636
725.746
723.852
724.48
729.568
896.454
874.508
847.904
781.726
771.156
777.527
775.942
760.049
741.372
729.758
720.518
713.484
714.004
719.561
728.712
729.087
725.938
724.4
725.39
733.339
913.15
891.407
855.81
786.841
774.912
779.337
776.54
762.334
746.799
733.044
720.647
714.4
715.993
721.971
727.595
729.038
727.507
727.246
729.229
735.528
941.762
925.783
893.143
815.363
787.93
783.514
778.951
767.201
754.267
739.639
726.441
722.743
723.565
725.682
727.915
730.811
734.252
738.383
739.136
740.766
1038.84
1024.83
968.199
900.863
901.039
914.374
913.313
897.577
874.067
853.864
842.362
840.991
843.469
849.545
857.346
867.021
880.208
897.328
912.856
939.652
1026.18
938.418
855.349
851.414
896.049
912.574
911.308
890.652
851.625
814.823
803.033
805.56
811.459
821.173
832.977
844.996
859.492
877.07
893.568
924.782
975.824
852.223
841.21
838.907
894.284
912.463
911.18
888.055
836.001
798.986
798.587
807.809
820.752
830.281
837.074
840.746
845.676
853.78
865.045
904.366
899.729
844.75
832.511
819.029
872.902
910.444
916.313
901.488
830.749
774.47
768.359
767.621
768.885
771.701
774.987
778.313
781.978
787.555
794.249
831.402
894.056
886.886
885.089
856.935
761.538
759.48
762.16
762.174
762.735
764.376
766.617
768.879
771.498
775.34
779.413
795.259
907.262
905.33
906.485
904.704
777.622
782.826
781.2
779.54
778.228
777.025
776.854
777.153
778.054
779.624
781.206
785.34
906.768
905.212
906.324
911.011
786.23
783.466
782.016
780.422
779.028
778.021
777.547
777.112
777.06
777.261
777.786
780.08
890.882
885.083
883.363
896.149
771.569
751.803
752.762
753.484
754.753
756.639
758.215
758.932
759.665
761.12
763.211
767.732
867.918
846.147
830.905
823.52
737.94
777.994
786.529
770.88
774.391
732.176
726.28
726.962
729.191
731.092
732.372
733.771
736.944
742.417
747.137
753.836
848.788
810.119
794.101
769.702
758.454
782.23
782.508
749.372
727.474
743.551
733.416
725.648
719.506
715.108
714.958
718.218
723.735
729.202
732.614
739.308
835.283
798.082
794.651
764.834
760.467
780.404
780.945
751.072
723.262
732.24
728.381
716.505
706.697
708.09
714.009
716.952
717.672
718.541
719.29
725.817
835.626
800.072
804.094
765.106
761.077
778.547
779.281
752.143
724.502
723.47
714.593
697.918
700.826
710.541
715.857
715.258
711.695
709.356
710.37
719.368
838.594
806.219
815.78
766.773
761.794
777.118
777.863
753.726
727.686
717.311
704.814
700.569
705.394
715.359
715.988
712.564
707.183
708.465
710.627
717.966
845.297
816.602
824.195
769.199
763.076
775.949
776.853
755.971
730.65
713.57
706.209
708.895
714.774
715.803
711.651
706.241
707.148
712.286
713.673
717.455
853.632
829.24
831.557
771.831
764.838
775.843
776.428
757.767
732.517
713.629
712.012
714.272
715.836
712.656
704.629
705.084
710.699
716.78
715.962
717.826
863.588
841.06
835.698
774.918
766.888
776.109
776.065
758.635
734.253
717.286
715.601
714.257
713.13
708.312
706.064
708.603
713.614
716.086
716.357
719.198
876.757
854.684
839.835
778.439
769.453
776.922
776.076
759.513
737.656
723.475
717.027
711.448
708.528
708.889
712.659
715.077
714.407
714.699
715.912
721.686
894.189
871.393
846.233
783.626
773.23
778.444
776.357
761.138
743.257
729.589
718.239
709.55
709.499
713.773
720.106
719.903
716.709
715.875
717.284
724.787
910.436
887.992
855.335
789.469
777.2
780.148
777.004
763.44
748.158
733.36
719.118
710.716
711.464
715.625
719.661
720.862
719.401
719.438
721.302
727.002
938.033
921.429
893.12
821.027
791.475
784.433
779.517
768.226
755.231
740.499
726.028
719.823
719.029
719.973
721.192
723.34
726.018
729.496
730.537
732.582
1037.72
1025.21
974.119
904.522
900.917
914.007
912.965
897.311
874.3
855.173
843.828
841.882
844.424
850.33
857.855
867.464
880.798
897.996
913.493
939.779
1025.95
947.132
858.27
852.163
894.541
911.505
910.45
890.082
851.588
814.895
804.318
807.093
813.04
822.251
833.601
845.793
860.728
878.466
894.947
925.752
981.672
855.714
842.563
838.717
892.953
911.299
910.215
887.531
836.187
797.703
798.788
809.916
822.358
830.623
836.985
841.507
847.744
856.866
868.758
907.387
905.596
846.489
833.288
818.408
872.298
910.13
916.049
901.321
830.431
772.599
768.447
768.706
771
774.782
778.373
781.789
785.792
792.043
799.627
838.694
895.283
886.496
885.025
857.993
761.975
762.716
763.978
764.068
764.934
766.923
769.388
771.83
774.722
778.888
783.274
800.591
907.401
905.125
906.284
904.769
780.581
785.401
783.358
781.427
779.971
778.817
778.847
779.302
780.436
782.233
783.897
788.504
906.823
905.002
906.081
911.178
789.023
786.081
784.207
782.416
780.94
779.888
779.207
778.945
779.103
779.584
780.282
782.892
890.912
884.669
882.797
896.549
774.531
755.037
755.537
755.978
756.913
758.263
759.61
760.784
762.056
763.848
765.911
770.472
868.261
845.855
830.288
822.963
745.154
777.914
786.426
770.46
754.579
728.566
726.388
727.048
728.847
731.552
734.231
737.11
740.789
745.368
749.484
756.759
850.247
809.945
791.885
765.398
758.487
781.908
782.239
749.243
720.641
735.026
725.046
720.029
718.305
717.588
718.407
721.23
725.061
730.396
734.829
743.369
837.622
799.413
794.513
763.649
759.928
779.853
780.473
751.369
720.498
723.058
718.856
709.053
707.341
709.161
712.122
714.258
716.588
719.407
722.129
730.642
837.078
801.78
805.992
765.176
761.014
777.994
778.856
752.624
722.473
716.469
706.16
697.622
701.769
709.122
711.714
711.816
710.989
711.463
713.337
722.442
839.828
807.885
817.11
768.004
762.384
776.587
777.571
754.186
726.115
714.641
703.846
701.454
704.248
711.215
712.515
711.006
710.083
711.748
712.936
719.244
846.2
817.746
824.303
770.911
764.117
775.796
776.722
756.105
730.146
714.175
706.388
707.5
711.12
712.912
711.315
710.084
711.489
714.624
714.491