/*--------------------------------*- C++ -*----------------------------------*\
  =========                 |
  \\      /  F ield         | OpenFOAM: The Open Source CFD Toolbox
   \\    /   O peration     | Website:  https://openfoam.org
    \\  /    A nd           | Version:  9
     \\/     M anipulation  |
\*---------------------------------------------------------------------------*/
FoamFile
{
    format      ascii;
    class       volVectorField;
    location    "0.009";
    object      U;
}
// * * * * * * * * * * * * * * * * * * * * * * * * * * * * * * * * * * * * * //

dimensions      [0 1 -1 0 0 0 0];

internalField   nonuniform List<vector> 
9720
(
(-435.392 -438.985 36.3207)
(-326.714 -499.247 32.6441)
(-463.18 -746.854 5.12353)
(-588.735 -1010.42 -9.70597)
(-340.288 -1139.44 -4.90476)
(-99.951 -1131.34 -10.0715)
(96.8927 -1119.01 -6.415)
(358.206 -1136.75 -6.91683)
(636.408 -1109.8 -1.78997)
(859.802 -1007.09 0.6939)
(1014.53 -870.248 -3.03157)
(1112.64 -737.047 8.12032)
(1184.43 -629.934 12.4544)
(1233.88 -536.816 0.327768)
(1266.58 -456.035 4.52148)
(1320.91 -419.076 17.5982)
(1356.7 -381.938 33.8065)
(1378.32 -346.977 30.0786)
(1370.77 -322.689 26.0274)
(1357.45 -282.391 22.0388)
(-489.243 -327.153 36.3765)
(-587.864 -586.372 13.0251)
(-874.968 -950.642 -9.42707)
(-714.832 -1122.51 -22.3621)
(-394.496 -1130 -5.45671)
(-102.877 -1138.73 -10.2773)
(105.863 -1125.92 -5.23475)
(400.632 -1150.76 -4.467)
(768.867 -1081.53 -4.467)
(1052.09 -901.872 10.8625)
(1241.15 -718.762 0.576615)
(1322.06 -557.937 2.45587)
(1426.97 -493.146 12.0111)
(1496.88 -429.508 13.417)
(1562.33 -384.332 19.1066)
(1632.63 -371.166 15.9068)
(1701.07 -337.52 17.3088)
(1712.21 -292.652 20.0467)
(1710.14 -230.399 21.1498)
(1629.15 -167.243 20.9995)
(-724.499 -447.822 19.6431)
(-950.41 -869.348 4.40944)
(-951.905 -946.374 -8.38497)
(-799.044 -1054.13 -37.0923)
(-418.822 -1116.75 -6.30121)
(-117.221 -1133.47 -8.30395)
(116.504 -1122.3 -7.63718)
(431.929 -1132.04 1.22192)
(854.575 -984.391 -10.9366)
(1130.6 -705.279 -5.61227)
(1361.41 -571.892 29.03)
(1549.35 -487.429 -19.4184)
(1705.61 -454.312 -23.7637)
(1823.67 -445.782 -22.734)
(1919.48 -442.495 7.51947)
(1995.81 -442.966 12.9422)
(2067.03 -415.684 0.515965)
(2074.52 -372.893 -9.6346)
(2087.2 -308.68 -9.6484)
(1992.8 -188.718 -2.48649)
(-1003.12 -573.672 8.40356)
(-1119.23 -710.872 11.4571)
(-1052.81 -791.286 29.7975)
(-1013.86 -976.579 -30.0275)
(-607.05 -1118.2 -15.7253)
(-209.006 -1121.01 -3.36324)
(44.469 -1104.14 -7.28901)
(321.275 -1103.1 -4.01911)
(857.018 -1023.77 -18.7644)
(1758.73 -686.961 -34.5324)
(1984.58 -695.185 -5.43951)
(2101.1 -693.769 -15.4149)
(2167.31 -676.113 -16.1725)
(2196.93 -642.946 -16.1678)
(2227.81 -616.283 -15.4291)
(2245.99 -587.062 -11.2507)
(2265.31 -552.363 -9.91644)
(2261.13 -508.971 -10.2696)
(2271.19 -460.378 -9.88557)
(2226.67 -315.701 -5.95241)
(-1138.58 -341.656 -5.41771)
(-1132.81 -396.931 -5.27393)
(-1119.49 -419.698 -2.2507)
(-1119.81 -583.502 1.43814)
(1991.16 -713.673 -33.3747)
(2337.49 -457.242 -7.766)
(2358.91 -454.534 -12.1215)
(2376.41 -440.572 -10.2947)
(2393.07 -422.215 -11.0182)
(2400.13 -400.385 -8.55303)
(2409.39 -377.681 -5.99722)
(2411.85 -355.667 -10.8584)
(2419.16 -330.978 -16.5611)
(2414.67 -309.529 -17.6674)
(2410.91 -293.275 -15.5447)
(2375.29 -246.84 -12.7121)
(-1137.07 -101.33 -7.43739)
(-1145.2 -104.662 -8.1945)
(-1139.56 -118.313 -8.96299)
(-1123.14 -210.375 -8.49802)
(2333.33 -210.056 -12.8135)
(2364.61 -112.929 -10.7597)
(2368.04 -110.649 -12.079)
(2368.98 -107.863 -11.7337)
(2368.25 -105.652 -12.0077)
(2366.35 -104.064 -13.209)
(2364.95 -100.819 -14.5287)
(2362.61 -97.6399 -14.0501)
(2359.55 -94.8601 -13.1313)
(2354.55 -92.7385 -12.2449)
(2349.85 -90.2603 -12.8334)
(2343.18 -75.4819 -12.7953)
(-1122.93 97.2717 -9.35399)
(-1129.91 104.834 -8.41219)
(-1124.34 115.881 -10.4925)
(-1108.36 43.4645 -12.2063)
(2339.36 30.0444 -13.8494)
(2366.63 115.383 -10.5905)
(2370.3 110.655 -9.73059)
(2372.43 106.018 -8.35293)
(2374.61 102.994 -9.90028)
(2376.51 99.5309 -12.6615)
(2378.35 95.3852 -13.2052)
(2381.13 93.0211 -11.5206)
(2382.81 93.394 -10.6305)
(2383.05 94.339 -11.1418)
(2384.14 96.2404 -13.135)
(2382.45 99.0395 -13.6966)
(-1142.32 360.894 -10.2549)
(-1156.97 404.457 -7.38064)
(-1136.81 436.546 -2.40771)
(-1108.05 321.123 -5.71118)
(2351.94 290.209 -13.2869)
(2375.24 461.051 -11.989)
(2395.44 448.584 0.768168)
(2400.83 435.408 -7.03188)
(2403.78 415.878 -22.7577)
(2408.46 398.436 -22.6747)
(2408.03 380.93 -8.34545)
(2405.33 363.311 -0.66352)
(2407.75 352.299 -8.1391)
(2403.83 336.757 -22.1578)
(2403.9 325.634 -22.8678)
(2400.17 308.464 -15.7144)
(-1112.76 641.368 -10.3347)
(-1080.69 776.192 -14.6448)
(-979.781 863.442 -22.9758)
(-1016.98 882.965 -32.9646)
(-665.96 2076.77 -10.2085)
(-209.081 2276.31 -19.1679)
(33.2573 2282.85 -15.6439)
(299.252 2297.23 -13.6389)
(1574.74 1796.4 -52.971)
(2168.59 1079.24 50.4261)
(2260.46 917.297 -50.6658)
(2315.17 845.955 -54.3973)
(2343.74 790.838 -16.8528)
(2369.69 735.867 22.3352)
(2396.32 696.17 22.0408)
(2403.76 657.468 -7.99951)
(2415.57 612.843 -36.9556)
(2415.69 580.243 -29.7247)
(2418.98 552.362 -3.99721)
(2418.38 511.777 -1.2082)
(-1005.99 863.336 -11.2285)
(-897.552 1060.43 -7.06632)
(-702.901 1142.83 -23.8516)
(-685.991 1764.57 -42.6621)
(-460.013 2288.84 -18.7235)
(-110.474 2315.85 -18.1929)
(120.619 2316.7 -17.1805)
(475.731 2323.94 -15.0636)
(993.612 2148.96 34.1875)
(1579.35 1630.83 -106.855)
(1913.61 1307.7 -108.701)
(2098.56 1196.22 18.7416)
(2175.36 1100.96 61.2819)
(2224.48 1028.11 30.3736)
(2289.5 964.476 -30.1915)
(2321.21 897.712 -59.9577)
(2346.56 853.036 -39.1889)
(2370.52 798.256 11.1486)
(2386.45 762.297 17.5586)
(2395.02 706.106 -2.70898)
(-868.232 1017.15 -18.1541)
(-714.897 1242.8 -23.6314)
(-578.334 1374.42 -1.35029)
(-710.095 1974.81 -22.018)
(-452.811 2313.22 -19.9305)
(-106.594 2319.44 -18.297)
(115.22 2322.54 -15.8736)
(455.012 2342.99 0.898926)
(891.918 2240.39 -41.1263)
(1244.5 1920.39 -111.819)
(1594 1633.02 53.1315)
(1845.54 1432.07 121.802)
(1978.95 1326.91 15.8322)
(2055.21 1234.54 -73.6711)
(2134.22 1180.66 -94.1748)
(2181.53 1121.26 -52.1878)
(2238.66 1059.77 21.6486)
(2292.79 1001.47 47.7236)
(2323.32 971.326 6.2041)
(2353.67 889.437 -20.1879)
(-736.076 1114.62 -7.31137)
(-561.464 1330.21 -20.6115)
(-470.255 1540.98 -42.5364)
(-684.549 2070.57 -37.9176)
(-437.207 2330.81 -14.0015)
(-103.597 2322.68 -18.0351)
(109.746 2325.15 -15.7482)
(437.858 2347.52 -6.84779)
(825.625 2288.92 -56.7086)
(1161.77 2104.97 7.42736)
(1394.25 1868.97 120.773)
(1652.23 1682.34 44.1883)
(1863.62 1527.44 -140.726)
(1898.76 1404.21 -140.343)
(1969.75 1362.25 -60.2333)
(2047.13 1304.97 38.4649)
(2132.12 1256.78 71.7326)
(2191.65 1204.76 24.5588)
(2229.27 1142.94 -40.9226)
(2276.29 1046.5 -32.224)
(-629.752 1186.16 -3.13675)
(-490.723 1425.32 -9.19196)
(-441.902 1687.57 -35.5079)
(-662.069 2126.77 -30.4926)
(-418.074 2347.69 -14.7423)
(-102.315 2322.77 -19.1512)
(106.11 2329.18 -15.0695)
(415.705 2349.35 -24.7116)
(772.618 2305.45 -25.3643)
(1070.42 2164.95 58.9217)
(1315.68 2018.21 35.9718)
(1516.31 1914.37 -126.65)
(1727.28 1759.66 -172.192)
(1788.07 1565.5 -62.2925)
(1873.43 1501.6 52.4632)
(1944.63 1463.85 67.8467)
(2027.83 1433.02 23.0174)
(2086.54 1354.25 -60.5749)
(2122.01 1296.96 -65.0916)
(2194.81 1199.25 -23.234)
(-536.611 1232.62 -16.365)
(-426.817 1491.22 -11.3235)
(-452.932 1806.81 -34.8357)
(-635.266 2161.11 -24.7313)
(-394.967 2354.99 -11.6296)
(-100.516 2321.57 -20.8708)
(102.04 2331.81 -16.5945)
(395.938 2353.14 -25.9692)
(714.863 2321.91 17.8077)
(1003.78 2205.57 36.8122)
(1229.7 2079.64 -58.5364)
(1423.2 1954.09 -133.274)
(1566.54 1834.84 -56.8951)
(1637.72 1662.91 61.7947)
(1735.58 1557.93 76.6327)
(1815.9 1509.1 11.2963)
(1902.75 1496.01 -70.6367)
(1946.49 1435.39 -92.1376)
(1991.43 1417.04 -39.3563)
(2101.72 1329.43 4.3706)
(-456.4 1266.15 -12.9571)
(-383.998 1557.97 -5.09959)
(-452.159 1903.54 -2.82456)
(-609.649 2194.01 -22.6784)
(-371.186 2364.43 -10.4554)
(-97.3477 2319.49 -22.0375)
(97.5439 2335.24 -17.9416)
(377.506 2352.43 -11.4421)
(672.86 2340.02 19.6544)
(940.625 2259.42 -23.5737)
(1165.77 2142.09 -89.5211)
(1373.29 2015.76 -58.9145)
(1526.03 1923.35 56.3589)
(1564.56 1787.09 90.3329)
(1635.8 1665.33 23.0994)
(1720.88 1579.6 -75.7503)
(1790.75 1548.27 -99.115)
(1820.83 1513.86 -50.8546)
(1890.56 1515.04 23.4191)
(2005.11 1440.1 31.2486)
(-420.174 1320.81 -0.962324)
(-374.542 1627.75 -7.10775)
(-439.628 1972.73 4.25145)
(-578.654 2205.49 -18.2228)
(-348.886 2366.57 -17.4597)
(-94.6531 2316.02 -21.416)
(95.4211 2338.78 -17.4223)
(359.13 2352.4 -2.86962)
(635.093 2341.44 -10.3261)
(871.038 2276.89 -60.1841)
(1100.47 2167.93 -55.8328)
(1298.01 2069.92 38.9466)
(1473.72 1986.63 84.4879)
(1533.4 1875.89 37.8588)
(1576.24 1765.92 -62.3796)
(1647.31 1662.78 -97.9312)
(1706.88 1608.59 -51.4825)
(1784.11 1582.31 33.846)
(1844.51 1598.65 65.3327)
(1918.23 1537.62 35.9867)
(-384.941 1358.74 16.6939)
(-346.284 1695.72 -1.33944)
(-409.431 2037.32 -6.45888)
(-541.741 2221.49 -17.4928)
(-323.268 2373.42 -23.597)
(-92.1233 2312.04 -21.1774)
(95.4725 2340.04 -17.2287)
(348.088 2358.02 -9.48285)
(591.938 2352.81 -39.7967)
(824.516 2293.96 -43.9026)
(1033.9 2210.86 13.7722)
(1236.31 2135.9 72.1001)
(1431.48 2051.6 43.8563)
(1499.08 1937.89 -42.9117)
(1551.66 1821.48 -82.7406)
(1611.83 1724.76 -50.554)
(1680.06 1687.51 41.5572)
(1786.69 1677.56 96.6349)
(1821.17 1681.3 72.8896)
(1864.47 1615.26 17.2177)
(-348.608 1380.17 16.7381)
(-304 1707.56 7.03405)
(-366.489 2044.41 -14.2872)
(-495.286 2216.17 -17.6485)
(-303.217 2367.11 -23.3342)
(-90.1276 2306.2 -21.1627)
(96.1867 2340.09 -16.7057)
(332.452 2356.7 -23.6498)
(560.642 2352.8 -33.543)
(771.773 2312.48 2.59352)
(972.693 2254.27 39.4793)
(1180.69 2176.59 28.6948)
(1349.45 2092.91 -41.1284)
(1433.46 1969.76 -72.463)
(1514.94 1842.77 -41.3584)
(1588.07 1786.81 34.2652)
(1664.12 1789.98 86.9542)
(1759.97 1778.11 82.8575)
(1784.21 1747.33 25.6725)
(1816.38 1674.77 -8.72955)
(-324.025 1371.91 14.0212)
(-240.697 1706.47 10.6964)
(-303.755 2058.31 -14.1493)
(-445.565 2228.07 -16.7793)
(-287.069 2362.88 -21.1792)
(-87.3753 2301.61 -21.5217)
(97.1122 2340.59 -17.3231)
(319.441 2358.9 -25.3283)
(535.349 2360.22 -10.8325)
(737.62 2328.1 8.92545)
(941.392 2275.4 1.78087)
(1116.82 2198.87 -36.6141)
(1281.42 2117.08 -54.4187)
(1404.28 2005.35 -26.9156)
(1498.39 1901.7 32.9618)
(1579.49 1831.03 68.6796)
(1660.32 1808.02 69.8803)
(1730.25 1780.77 29.1061)
(1754.27 1752.81 -18.8572)
(1802.12 1722.39 -2.72533)
(-282.554 1356.23 13.1275)
(-168.086 1620.84 13.2506)
(-186.058 1965.86 -6.27575)
(-304.906 2184.49 -11.7815)
(-239.252 2326.61 -18.1017)
(-71.9819 2294.12 -20.6598)
(98.8407 2339.01 -18.0006)
(301.425 2353.81 -19.0216)
(496.645 2362.42 -6.74175)
(684.719 2337.98 -7.6626)
(863.761 2302.81 -22.3304)
(1021.44 2241.3 -31.8121)
(1176.83 2178.5 -20.3132)
(1306.79 2094.48 9.30678)
(1416.19 1998.73 37.3592)
(1511.81 1902.17 43.2299)
(1591.66 1844.98 19.8673)
(1659.63 1791.17 -8.60495)
(1708.21 1779.3 -4.67625)
(1766.81 1764.03 24.844)
(-435.133 -439.908 44.499)
(-329.283 -502.503 52.5098)
(-483.616 -781.524 42.6546)
(-599.21 -1041.3 8.20448)
(-342.813 -1159.34 -7.44529)
(-97.9108 -1152.15 -10.2213)
(99.4568 -1137.29 -5.28554)
(361.729 -1156.82 -6.83104)
(642.001 -1127.26 0.443083)
(867.585 -1021.45 11.9433)
(1020.31 -881.031 10.6588)
(1119.91 -746.447 20.6975)
(1193.86 -638.286 30.4796)
(1240.85 -542.545 19.4234)
(1271.12 -458.512 22.055)
(1325.33 -419.996 34.2692)
(1362.41 -382.071 53.3438)
(1384.6 -345.684 49.848)
(1376.73 -320.459 49.0386)
(1360.93 -280.057 37.0951)
(-488.165 -332.488 54.1035)
(-634.498 -639.245 91.2091)
(-885.882 -985.368 8.40981)
(-707.7 -1150.86 -11.9332)
(-385.881 -1149.77 -10.1369)
(-101.929 -1163.71 -10.2472)
(108.76 -1147.13 -4.89538)
(404.28 -1173.6 -5.02725)
(774.296 -1100.82 -1.04858)
(1062.04 -917.824 21.0262)
(1256.59 -731.641 22.6457)
(1338.34 -565.418 28.0738)
(1446.24 -498.64 41.0907)
(1515.35 -434.451 37.204)
(1577.21 -386.315 40.5513)
(1647.6 -372.099 39.3117)
(1718.74 -337.781 47.4934)
(1731.02 -291.087 50.071)
(1728.34 -227.759 56.1152)
(1643.34 -162.113 50.591)
(-750.653 -467.84 57.01)
(-976.513 -890.663 23.841)
(-956.066 -972.659 -7.72333)
(-795.084 -1095.26 3.82352)
(-406.853 -1147.45 -4.60999)
(-115.976 -1161.96 -8.9131)
(117.568 -1149.44 -7.76691)
(434.884 -1160.8 0.304022)
(864.037 -1010.95 6.32005)
(1141.99 -715.309 4.58871)
(1389.81 -588.225 58.7146)
(1589.46 -509.928 17.8373)
(1742.22 -465.5 16.6018)
(1854.51 -448.356 7.38499)
(1945.35 -443.732 28.5475)
(2021.51 -448.209 34.1852)
(2097.01 -423.423 29.8863)
(2107.49 -381.016 24.8613)
(2120.15 -317.905 29.9274)
(2022.39 -193.035 37.5172)
(-1027.24 -593.181 25.9129)
(-1137.62 -717.667 13.0889)
(-1064.15 -813.165 36.4052)
(-1001.34 -1035.34 -19.4309)
(-566.995 -1147.51 -14.8607)
(-208.682 -1157.73 -5.20551)
(44.2595 -1136.57 -8.26696)
(321.903 -1134 -2.42604)
(851.059 -1060.85 7.02746)
(1802.28 -699.113 9.98228)
(2027.4 -695.958 23.8506)
(2145.19 -701.632 6.05039)
(2209.84 -684.713 10.6197)
(2235.34 -650.885 13.0798)
(2263.21 -623.732 13.5589)
(2281.57 -594.91 15.8374)
(2299.97 -560.94 18.4441)
(2296.02 -519.663 18.992)
(2304.34 -473.326 22.7764)
(2259.18 -332.103 33.9586)
(-1156.55 -345.906 -1.50118)
(-1149.42 -401.907 -5.32745)
(-1147.88 -428.505 -0.232842)
(-1152.81 -605.119 5.34579)
(2031.04 -712.365 8.72378)
(2385.25 -458.933 9.41334)
(2403.39 -456.595 5.36737)
(2418.17 -442.636 7.2196)
(2432.76 -424.354 6.1949)
(2439.01 -403.169 7.44249)
(2447 -380.939 11.8034)
(2448.76 -358.919 9.74654)
(2454.52 -335.198 5.83936)
(2450.88 -312.479 5.39852)
(2446.58 -296.359 10.1864)
(2410.96 -253.579 17.6308)
(-1153.96 -101.582 -4.88532)
(-1166.09 -105.655 -7.07038)
(-1164.73 -118.105 -7.63566)
(-1161.97 -210.005 -5.44137)
(2386.18 -210.069 -1.23644)
(2413.13 -112.802 2.92829)
(2412.23 -110.019 3.17591)
(2410.38 -107.552 3.24407)
(2407.88 -104.813 3.13545)
(2404.26 -103.424 2.80957)
(2401.9 -100.565 2.8171)
(2398.88 -97.2065 4.04246)
(2395.07 -94.3973 6.74402)
(2389.44 -92.1749 10.1606)
(2382.79 -90.7553 10.8027)
(2375.21 -77.2028 12.1556)
(-1140.36 97.5085 -5.97768)
(-1150.18 105.227 -6.42709)
(-1149.2 115.586 -8.13419)
(-1137.76 42.7277 -8.75443)
(2391.88 30.4368 -1.63924)
(2416.24 116.395 4.32504)
(2415.75 111.639 5.00224)
(2415.02 107.514 7.49898)
(2415.54 103.934 7.52424)
(2416.2 99.9648 5.38611)
(2417.27 95.6087 4.63755)
(2418.27 94.3959 6.46109)
(2418.98 94.7427 10.0055)
(2418.84 96.1583 11.8837)
(2418.65 96.792 11.446)
(2416.37 98.6163 11.1556)
(-1160.48 361.436 -7.73303)
(-1177.14 404.476 -5.99438)
(-1162.19 435.57 -1.8675)
(-1138.14 318.871 -3.60108)
(2400.96 290.965 -0.981691)
(2425.16 462.406 2.16999)
(2440.47 450.17 17.6009)
(2446.39 437.581 14.0635)
(2447.61 419.064 -1.63173)
(2448.14 398.466 -7.37677)
(2446.49 383.714 5.04097)
(2444.14 366.145 19.4083)
(2446.41 354.021 17.536)
(2442.15 339.903 5.40172)
(2440.13 326.349 0.545282)
(2434.9 309.8 7.72952)
(-1129.83 643.539 -9.38594)
(-1099.42 777.296 -13.395)
(-1005.03 867.806 -6.58609)
(-1047.86 871.025 -2.70768)
(-762.354 2141.47 -3.00457)
(-209.333 2353.18 -19.9366)
(34.5006 2357.07 -16.1895)
(303.389 2371.9 -14.4865)
(1580.12 1868.23 -4.05627)
(2220.38 1090.3 81.7355)
(2307.46 926.155 -16.405)
(2354.88 841.672 -40.1508)
(2378.25 786.094 -12.9689)
(2404.04 736.508 31.04)
(2434.98 697.911 45.1192)
(2443.35 663.525 26.5213)
(2450.99 617.685 -7.05634)
(2447.75 577.774 -11.0023)
(2452.72 554.412 13.7401)
(2452.95 515.308 24.8474)
(-1022.42 869.425 -1.49999)
(-915.956 1067.06 -3.23384)
(-713.029 1148 -19.0215)
(-686.9 1806.08 -10.0354)
(-460.436 2361 -13.554)
(-109.479 2391.16 -15.6876)
(122.22 2393.05 -14.235)
(479.22 2400.83 -16.0915)
(1007.89 2235.59 50.8306)
(1641.64 1713.1 -45.1512)
(1949.63 1327.17 -112.163)
(2121.96 1201.41 4.73998)
(2220.41 1111.4 76.4965)
(2272.91 1041.48 68.4851)
(2330.34 977.443 15.6485)
(2356.44 900.195 -31.1172)
(2376.81 847.212 -27.4075)
(2399.33 802.745 19.1073)
(2425.52 766.607 46.0436)
(2431.73 713.581 33.7108)
(-883.141 1023.49 -3.94487)
(-730.717 1256.69 -5.10915)
(-595.902 1397.54 23.6873)
(-701.507 2021.05 -3.81998)
(-455.446 2378.92 -17.5677)
(-106.314 2387.94 -17.0919)
(116.35 2391.11 -15.0576)
(457.706 2410.36 1.7803)
(901.96 2311.77 -18.5191)
(1259.95 1978.11 -113.604)
(1602.14 1653.46 13.6033)
(1883.44 1459.04 148.532)
(2035.93 1360.62 84.1369)
(2100.98 1258.7 -14.5898)
(2171.71 1182.82 -68.5559)
(2212.97 1117.95 -48.8013)
(2267.01 1067.65 20.6487)
(2331.84 1010.78 73.9061)
(2361.48 981.088 50.4873)
(2385.13 898.491 20.1995)
(-749.442 1121.91 6.2932)
(-571.473 1344.58 3.54044)
(-496.668 1582.18 -5.40251)
(-691.507 2127.58 -25.6987)
(-440.724 2391.41 -13.1873)
(-103.433 2384.59 -17.7998)
(112.002 2388.22 -13.8246)
(441.011 2413.94 -2.15713)
(828.018 2348.19 -47.8321)
(1167.94 2139.19 -9.31114)
(1411.3 1906.64 138.502)
(1683.9 1715.75 130.312)
(1899.09 1555.55 -60.8348)
(1930.01 1415.13 -110.511)
(1993.67 1366.06 -62.2161)
(2072.18 1314.75 36.5173)
(2167.27 1270.18 98.9715)
(2227.43 1216.69 79.2063)
(2255.79 1154.75 8.07974)
(2303.5 1051.12 2.31909)
(-642.562 1197.16 17.5004)
(-499.824 1443.4 18.2866)
(-458.277 1728.57 7.54426)
(-673.482 2184.37 -12.6083)
(-421.771 2404.42 -13.1165)
(-101.224 2380.73 -18.5037)
(107.575 2386.83 -12.775)
(420.449 2412.83 -19.3074)
(774.651 2358.67 -28.0245)
(1081.95 2215.63 64.902)
(1337.23 2064.64 87.9388)
(1532.75 1941.16 -51.449)
(1739.54 1774.09 -152.873)
(1809.48 1585.67 -65.1223)
(1902.91 1524.23 63.4876)
(1979.76 1487.82 113.639)
(2059.53 1452.93 90.1024)
(2111.67 1371.35 7.69473)
(2147.25 1300.63 -26.4726)
(2221.3 1204.55 10.0321)
(-545.956 1240.65 8.22309)
(-439.941 1512.78 12.1716)
(-457.155 1841.52 -4.42477)
(-644.652 2212.67 -2.38505)
(-399.621 2409.36 -11.3012)
(-99.9649 2375.81 -19.2588)
(103.164 2387.3 -14.0096)
(398.495 2410.5 -25.6382)
(722.851 2373.01 16.5904)
(1017.13 2262.28 64.4429)
(1248.84 2123.79 -6.2683)
(1421.68 1978.73 -105.903)
(1581.91 1851.45 -61.2253)
(1665.8 1689.76 82.6241)
(1776.17 1595.55 144.646)
(1853.33 1532.08 103.426)
(1931.09 1506.82 11.4342)
(1977.55 1436.62 -39.1499)
(2017.61 1419.78 -6.01372)
(2127.26 1339.13 44.3975)
(-460.148 1269.5 10.086)
(-394.384 1575.29 18.8324)
(-453.082 1932.06 16.5777)
(-618.661 2241.17 1.37447)
(-376.336 2416.42 -6.60506)
(-97.2812 2371.69 -18.1183)
(98.359 2388.74 -13.9106)
(382.768 2406.9 -12.2022)
(680.139 2396.38 33.426)
(956.799 2313.11 14.6939)
(1171.1 2182.11 -65.454)
(1374.8 2035.39 -61.5466)
(1541.12 1945.82 63.1794)
(1598.47 1818.36 152.457)
(1669.08 1698.46 121.139)
(1741.49 1592.2 13.5995)
(1812.73 1548.85 -48.9984)
(1843.5 1514.36 -19.7336)
(1910.42 1521.17 59.0456)
(2029.68 1450.38 81.0961)
(-420.909 1322.84 19.2024)
(-381.142 1644.41 20.6747)
(-446.956 2003.1 25.8141)
(-588.609 2253.72 4.70008)
(-354.301 2417.26 -9.83715)
(-94.1174 2366.99 -16.2257)
(97.1132 2389.24 -11.7489)
(364.207 2404.77 3.77726)
(646.517 2400.15 15.1061)
(881.507 2327.74 -35.9642)
(1103.35 2207.14 -51.9593)
(1309.27 2094.9 35.4602)
(1491.49 2016.1 125.031)
(1551.35 1902.75 121.899)
(1587.61 1789.73 26.081)
(1650.28 1671.52 -48.6089)
(1715.9 1614.73 -25.6768)
(1789.9 1587.74 56.4649)
(1860.1 1605.66 109.962)
(1938.5 1544.9 89.6897)
(-385.397 1362.29 38.3922)
(-349.909 1714.39 32.7621)
(-419.815 2073.58 24.37)
(-553.76 2268.18 7.94614)
(-330.259 2421.73 -13.3077)
(-91.6016 2361.62 -13.3934)
(96.8509 2388.17 -8.67091)
(351.289 2409.41 2.79076)
(601.977 2406.09 -19.198)
(826.708 2339.75 -36.3454)
(1047.11 2248.3 12.1341)
(1248.53 2170.82 96.7397)
(1447.02 2080.32 106.114)
(1513.75 1962.89 38.0118)
(1554.19 1846.4 -28.0749)
(1618.51 1735.87 -21.2906)
(1688.23 1692.71 60.0635)
(1793.75 1681.27 129.99)
(1831.61 1682.51 118.251)
(1877.81 1616.86 67.9759)
(-348.091 1385.72 38.3834)
(-304.022 1727.41 39.2051)
(-377.601 2083.94 21.9631)
(-511.326 2262.8 8.45723)
(-307.842 2416.52 -12.8249)
(-89.4747 2355 -10.3548)
(97.2982 2386.48 -5.74628)
(336.711 2406.95 -9.25983)
(563.583 2401.3 -23.4965)
(781.946 2356.29 6.44488)
(984.761 2300.84 61.828)
(1192.09 2214.53 77.6757)
(1368.01 2119.26 23.0389)
(1440.05 1998.06 -20.3172)
(1520.21 1868.87 -5.13945)
(1596.36 1797.75 65.4401)
(1670.92 1798.57 128.794)
(1762.5 1783.78 131.47)
(1788.34 1750.29 74.5167)
(1824.58 1676.8 38.3643)
(-322.784 1378.29 39.7732)
(-238.37 1726.13 45.9238)
(-316.301 2097.4 26.8035)
(-464.658 2271.79 13.5249)
(-292.058 2411.55 -6.16905)
(-88.3752 2347.68 -9.45009)
(97.5687 2385.43 -5.52513)
(321.986 2406.3 -14.4853)
(541.242 2406.97 -1.73512)
(746.526 2378.42 30.1867)
(954.913 2322.46 39.264)
(1133.16 2232.75 7.00574)
(1291.7 2145.26 -18.1099)
(1412.68 2031.73 7.3732)
(1509.84 1926.88 75.1823)
(1590.02 1854.48 126.156)
(1663.55 1824.55 125.459)
(1729.59 1791.67 83.5244)
(1756.26 1759.94 30.541)
(1808.5 1725.44 47.5276)
(-281.615 1360.76 32.1516)
(-164.594 1637.5 42.5602)
(-193.515 2001.06 33.8349)
(-327.356 2226.47 26.8993)
(-248.967 2374.8 4.28408)
(-74.6454 2338.57 -6.36557)
(98.7692 2382.55 -4.97465)
(304.61 2399.39 -7.03283)
(503.004 2408 8.82626)
(695.13 2384.49 18.3011)
(876.258 2343.15 8.78306)
(1030.83 2274.44 -3.62194)
(1186.52 2207.87 9.57444)
(1319.6 2121.66 48.5486)
(1430.57 2026.21 90.5454)
(1523.91 1926.82 103.135)
(1597.65 1864.32 77.4872)
(1662.23 1805.42 44.1444)
(1711.01 1787.63 48.4498)
(1771.24 1769.33 81.9928)
(-445.421 -446.801 36.441)
(-345.093 -523.248 57.0129)
(-520.86 -837.043 47.6913)
(-610.85 -1078.43 17.0596)
(-346.377 -1180.99 -2.66971)
(-95.6801 -1177.2 -2.79137)
(103.91 -1161.22 -4.20167)
(367.276 -1182.72 -4.42172)
(649.211 -1150.12 0.889693)
(876.278 -1041.16 15.3116)
(1032.37 -900.177 11.6607)
(1131.09 -761.93 18.6874)
(1209.7 -654.024 32.7422)
(1259.35 -557.058 22.618)
(1285.54 -466.996 24.3077)
(1336.85 -424.746 36.2534)
(1377.42 -387.374 55.6522)
(1404.65 -349.784 51.0478)
(1401 -322.291 50.9741)
(1382.18 -281.965 37.5245)
(-504.751 -347.119 56.1628)
(-730.66 -722.314 98.5269)
(-906.276 -1016.38 9.08303)
(-701.16 -1167.4 10.0132)
(-385.892 -1168.47 -3.05503)
(-101.467 -1189.48 -3.00563)
(111.007 -1170.61 -4.38466)
(410.126 -1199.23 -1.25365)
(786.086 -1122.71 1.10054)
(1074.14 -930.888 17.873)
(1279.34 -745.963 26.8839)
(1363.23 -575.198 28.5448)
(1476.77 -507.036 46.4102)
(1555.96 -448.407 37.5456)
(1612.52 -391.329 40.1765)
(1679.18 -374.309 41.1972)
(1757.02 -344.961 53.1446)
(1779.57 -296.268 52.1022)
(1781.79 -230.259 57.2393)
(1696.53 -162.067 51.0617)
(-809.939 -496.109 53.1914)
(-1020.36 -900.896 6.56032)
(-975.572 -981.393 -13.1985)
(-797.863 -1105.63 42.0725)
(-410.078 -1180.45 1.94032)
(-115.195 -1187.39 -6.2869)
(118.101 -1172.43 -7.23822)
(441.152 -1185.54 1.7255)
(881.617 -1032.56 14.0767)
(1158.53 -723.633 -8.47382)
(1408.02 -582.871 62.0463)
(1637.81 -541.959 34.5903)
(1806.26 -495.651 39.1611)
(1916.76 -457.043 18.9715)
(2000.91 -434.865 31.4971)
(2072.56 -441.681 33.0337)
(2154.88 -431.606 30.574)
(2179.46 -393.598 25.8611)
(2197.56 -334.544 29.9102)
(2104.82 -208.155 36.6753)
(-1063.35 -611.138 19.2136)
(-1159.67 -716.561 -1.93891)
(-1085.09 -822.017 19.789)
(-1018.46 -1062.67 -23.4017)
(-560.547 -1176.89 2.38098)
(-205.05 -1182.27 -6.62202)
(45.3831 -1160.62 -7.98111)
(324.952 -1161.72 -2.63819)
(864.429 -1084.08 5.97334)
(1858.01 -725.956 24.4302)
(2086.72 -671.976 32.1934)
(2211.12 -693.37 17.0134)
(2287.31 -693.833 25.6463)
(2310.51 -664.301 27.9253)
(2330.5 -633.256 26.5154)
(2350.4 -604.263 22.5265)
(2372.97 -572.934 21.1024)
(2373.81 -533.846 19.2507)
(2383.77 -491.059 21.201)
(2343.14 -360.817 32.9366)
(-1179.51 -352.365 -2.0331)
(-1167.81 -402.672 -5.75031)
(-1177.44 -431.279 -2.89336)
(-1175.26 -610.301 3.75948)
(2075.88 -753.337 7.9608)
(2451.11 -460.496 15.1426)
(2470.89 -461.148 12.3399)
(2488.45 -448.053 12.7412)
(2505.35 -429.162 10.6956)
(2514.18 -407.926 11.1235)
(2522.54 -386.443 15.9207)
(2525.2 -364.729 14.7917)
(2530.15 -342.429 8.70471)
(2528.92 -319.012 5.52875)
(2526.53 -301.479 8.03727)
(2494.51 -265.123 15.006)
(-1176.29 -100.951 -2.20976)
(-1186.34 -105.231 -2.92953)
(-1182.19 -118.416 -5.4744)
(-1189.53 -209.243 -4.20682)
(2422.96 -210.356 9.74782)
(2479.14 -113.163 8.92748)
(2483.4 -111.012 7.78492)
(2483.6 -108.602 8.25721)
(2482.28 -105.145 9.39496)
(2479.8 -103.206 8.9531)
(2477.79 -101.1 7.66888)
(2475.39 -97.9904 7.0416)
(2471.51 -95.4906 7.26166)
(2466.58 -92.7131 9.84261)
(2459.43 -92.164 10.2742)
(2451.63 -80.7853 11.1934)
(-1162.25 97.1501 0.0837752)
(-1171.26 105.871 1.27168)
(-1170.98 116.518 -2.30725)
(-1160.84 45.2592 -2.6992)
(2434.48 31.482 10.281)
(2483.34 117.078 12.2083)
(2487.42 112.081 10.7893)
(2489.3 108.332 12.7278)
(2491.34 104.729 14.3822)
(2492.66 101.393 13.2168)
(2494.3 96.9265 10.0765)
(2496.18 94.2683 9.056)
(2496.98 94.5008 9.98089)
(2497.54 95.9787 11.5795)
(2497.44 96.5958 11.557)
(2495.33 97.9834 10.9038)
(-1183.32 362.292 -1.24808)
(-1197.87 404.363 2.14845)
(-1181.33 434.737 3.78301)
(-1158.63 323.29 -0.667923)
(2445.88 294.031 13.1533)
(2494.07 465.172 5.80189)
(2507.93 454.001 22.2278)
(2520.89 440.075 26.9082)
(2526.98 425.014 14.4617)
(2525.83 403.143 0.132093)
(2522.77 387.021 4.79664)
(2522.23 370.577 20)
(2527.69 356.168 24.2124)
(2526.97 344.752 14.5633)
(2522.35 330.309 2.9273)
(2515.11 312.417 6.62689)
(-1152.68 645.023 -5.06761)
(-1124.74 777.14 -5.75088)
(-1038.44 866.411 5.08481)
(-1082.15 852.87 -8.03968)
(-740.022 2066.75 -13.0447)
(-207.26 2411.66 -13.437)
(35.0949 2420.42 -8.62582)
(301.069 2436.36 -8.64269)
(1825.07 1720.54 23.3132)
(2300.67 1064.31 83.1538)
(2387.6 927.721 25.9293)
(2431.08 843.285 -22.6296)
(2448.55 783.175 -16.9326)
(2469.26 737.179 22.4184)
(2505.88 699.087 52.5244)
(2524.98 668.715 46.4979)
(2533.05 631.892 12.8441)
(2522.46 583.716 -9.04773)
(2525.35 560.657 5.45546)
(2531 522.454 20.2611)
(-1044.42 872.941 5.15818)
(-933.557 1064.58 1.84819)
(-735.383 1142.01 -19.4143)
(-739.335 1821.37 -3.20481)
(-457.698 2429.39 -5.75562)
(-108.866 2457.48 -11.8044)
(121.734 2460.84 -8.23444)
(475.903 2469.76 -15.2987)
(1038.66 2282.37 66.3091)
(1749.41 1767.96 48.9074)
(2050.62 1355.96 -111.357)
(2174.02 1191.98 -30.2316)
(2282.04 1110.02 66.9933)
(2355.53 1046.53 94.379)
(2413.11 994.698 59.4938)
(2440.03 922.105 -1.87671)
(2449.34 851.621 -27.7642)
(2459.77 808.319 0.653285)
(2498 777.564 40.2196)
(2513.89 724.842 37.8132)
(-907.434 1032.88 0.606221)
(-752.133 1268.49 5.84354)
(-600.433 1394.61 34.2312)
(-690.096 2059.87 17.4171)
(-457.069 2448.97 -10.1332)
(-106.221 2460.95 -10.9574)
(116.43 2464.92 -9.2291)
(460.964 2482.3 3.48366)
(922.937 2376.2 10.7704)
(1323.29 2043.49 -121.118)
(1641.68 1662.26 -74.9846)
(1915.94 1457.64 131.208)
(2113.16 1385.21 142.988)
(2192.73 1303.11 57.1827)
(2255.23 1211.55 -33.6846)
(2287.35 1125.63 -52.279)
(2324.8 1075.41 -5.5915)
(2394.35 1024.08 67.4922)
(2443.4 995.051 68.6253)
(2464.7 917.474 33.0872)
(-769.875 1129.85 2.4035)
(-588.563 1357.6 9.63504)
(-548.131 1621.46 9.21818)
(-700.835 2186.68 -11.2566)
(-443.616 2465.38 -6.90007)
(-103.49 2460.78 -9.96983)
(112.429 2465.86 -6.64478)
(444.523 2494.54 8.28284)
(841.897 2417.97 -40.8271)
(1173.21 2167.04 -50.1787)
(1424.04 1915.57 118.015)
(1720.62 1735.66 199.958)
(1962.01 1591.89 43.7781)
(2002.49 1442.1 -73.6708)
(2053.36 1374.27 -68.5458)
(2119.31 1319.08 8.05062)
(2220.13 1282.63 96.8757)
(2305.45 1232.14 111.357)
(2330.95 1182.78 42.4541)
(2375.07 1068.81 5.84053)
(-664.006 1210.5 15.65)
(-514.742 1465.47 26.4598)
(-507.934 1791.38 27.4606)
(-699.963 2262.54 -2.98342)
(-424.873 2482.12 -6.54011)
(-100.279 2459.25 -10.1909)
(108.355 2466.7 -5.21497)
(427.862 2500.1 -5.47783)
(780.407 2429.32 -38.3594)
(1092.54 2264.24 46.47)
(1366.81 2103.3 131.461)
(1577.54 1957.12 44.4613)
(1767.98 1774.9 -121.451)
(1844.88 1591.54 -92.7913)
(1940.41 1520.49 30.393)
(2036.03 1496.96 131.574)
(2125.31 1476.66 135.783)
(2185.46 1409.08 63.6939)
(2212.03 1320.77 -18.7427)
(2284.09 1219.64 2.34225)
(-566.149 1258.16 9.67044)
(-460.891 1549.16 10.7199)
(-478.965 1904.76 0.565422)
(-671.095 2289.97 6.3465)
(-403.711 2491.09 -5.20468)
(-98.9223 2456.66 -12.129)
(105.302 2469.01 -6.72318)
(404.867 2496.93 -20.7013)
(731.319 2443.67 1.4)
(1032.85 2338.26 76.626)
(1297.03 2190.09 45.6276)
(1443.91 2009.64 -78.761)
(1589.22 1859.43 -91.267)
(1698.21 1709.84 42.9377)
(1838.87 1633.61 174.698)
(1928.18 1578.75 172.009)
(2006.13 1551.03 79.2031)
(2052.41 1462.81 -17.1011)
(2081.72 1429.84 -14.6857)
(2186.09 1356.64 41.2187)
(-473.172 1282.02 13.2222)
(-410.196 1611.18 15.5613)
(-455.452 1989.62 7.30394)
(-640.291 2311.32 8.89303)
(-382.101 2499.45 -1.84352)
(-97.4069 2453.49 -14.0393)
(100.688 2471.64 -9.92223)
(388.159 2491.55 -15.5306)
(690.159 2476.96 32.9614)
(982.828 2397.71 41.9871)
(1204.9 2250.54 -47.2703)
(1379.17 2063.19 -76.4427)
(1529.53 1955.97 27.5555)
(1635.34 1854.75 178.378)
(1748.31 1759.38 192.271)
(1823.15 1648.88 96.7008)
(1883.75 1571.49 -21.6588)
(1913.48 1521.39 -23.0901)
(1963.03 1529.49 51.9934)
(2090.56 1472.38 95.2796)
(-427.865 1331.48 21.742)
(-394.967 1678.82 20.148)
(-454.058 2059.5 14.7991)
(-608.939 2327.97 7.51369)
(-360.937 2501.86 -4.47259)
(-94.4416 2450.8 -13.8927)
(97.2942 2471.89 -10.5147)
(371.392 2490.49 0.185672)
(659.717 2495.89 26.3139)
(911.216 2420.6 -20.2954)
(1117.14 2274.17 -66.6612)
(1316.21 2122.8 -0.866983)
(1496.46 2051.11 132.992)
(1600.39 1952.28 179.922)
(1660.77 1853.18 101.263)
(1698.62 1713.66 -20.265)
(1753.42 1627.76 -32.1007)
(1814.06 1587.34 45.9322)
(1894.42 1615.6 128.157)
(1994.04 1565.46 109.925)
(-394.124 1374.61 41.0112)
(-368.199 1756.95 35.4304)
(-441.145 2138.66 19.0543)
(-576.029 2348.32 7.79519)
(-339.116 2505.58 -10.7702)
(-92.0194 2446.69 -13.0045)
(96.9382 2471.21 -9.07921)
(356.766 2497.61 4.28827)
(622.785 2503.08 -7.48445)
(840.473 2421.26 -45.4622)
(1062.45 2304.17 -18.7694)
(1265.84 2214.72 88.39)
(1471.16 2136.11 140.047)
(1571.59 2026.39 90.8743)
(1595.17 1911.84 -9.776)
(1635.11 1773.69 -27.5335)
(1697.89 1698.91 44.5079)
(1800.03 1674.16 138.243)
(1855.43 1685.48 140.582)
(1926.91 1629.32 79.6808)
(-357.248 1405.62 40.6076)
(-319.17 1781.54 39.5763)
(-402.632 2163.8 19.9024)
(-536.447 2348.18 7.37608)