/*--------------------------------*- C++ -*----------------------------------*\
  =========                 |
  \\      /  F ield         | OpenFOAM: The Open Source CFD Toolbox
   \\    /   O peration     | Website:  https://openfoam.org
    \\  /    A nd           | Version:  9
     \\/     M anipulation  |
\*---------------------------------------------------------------------------*/
FoamFile
{
    format      ascii;
    class       volScalarField;
    location    "0.0035";
    object      alpha.C4;
}
// * * * * * * * * * * * * * * * * * * * * * * * * * * * * * * * * * * * * * //

dimensions      [0 0 0 0 0 0 0];

internalField   nonuniform List<scalar> 
9720
(
0.997983
0.998941
0.999151
0.99936
0.999493
0.999563
0.999612
0.999648
0.999662
0.999643
0.999589
0.999501
0.999374
0.9992
0.998971
0.998675
0.998291
0.997747
0.997151
0.995266
0.998915
0.999569
0.999685
0.999774
0.999812
0.999828
0.999845
0.99986
0.999871
0.999867
0.999854
0.999822
0.999765
0.99968
0.999565
0.999418
0.999227
0.99895
0.998639
0.997538
0.999127
0.99968
0.999766
0.999823
0.999844
0.999853
0.999868
0.99988
0.99989
0.999887
0.999876
0.999854
0.999816
0.99976
0.999684
0.999584
0.999454
0.999267
0.999057
0.998257
0.999354
0.999773
0.999821
0.999721
0.999739
0.999746
0.999773
0.999793
0.999823
0.999895
0.999885
0.999864
0.99983
0.999778
0.999705
0.999607
0.99948
0.999298
0.999098
0.998352
0.999501
0.999817
0.999846
0.999734
0.999804
0.99981
0.999786
0.99976
0.999727
0.999683
0.999615
0.999518
0.999387
0.999195
0.998982
0.998188
0.999579
0.999838
0.999862
0.999759
0.99953
0.999364
0.999337
0.999306
0.999271
0.999232
0.999179
0.999096
0.998973
0.99878
0.99855
0.997667
0.999631
0.999858
0.999879
0.999792
0.998924
0.99829
0.998254
0.99821
0.998157
0.998103
0.998052
0.997985
0.997872
0.997671
0.99741
0.996396
0.999666
0.999873
0.999892
0.999815
0.997658
0.996163
0.99615
0.996112
0.996049
0.995969
0.99588
0.995777
0.995631
0.995394
0.995095
0.993962
0.999678
0.999885
0.999904
0.999847
0.999835
0.999605
0.999109
0.998032
0.994265
0.993002
0.992797
0.992703
0.992622
0.992515
0.992372
0.992202
0.991971
0.991627
0.991231
0.989923
0.999659
0.999881
0.999902
0.999912
0.999856
0.999543
0.998776
0.997188
0.993639
0.991193
0.989866
0.989088
0.988568
0.988134
0.987741
0.987386
0.986975
0.986423
0.985806
0.98412
0.999605
0.99987
0.999893
0.999903
0.999835
0.999512
0.998727
0.997159
0.993758
0.990306
0.98764
0.98564
0.984126
0.982996
0.982142
0.981426
0.980671
0.97976
0.978783
0.976452
0.999517
0.999839
0.999872
0.999884
0.999809
0.999471
0.998662
0.997085
0.993887
0.989964
0.986045
0.982525
0.979527
0.977236
0.975576
0.974228
0.97288
0.971404
0.969936
0.96673
0.999393
0.999785
0.999837
0.999851
0.999775
0.999421
0.99858
0.996975
0.99388
0.989782
0.985012
0.97999
0.975191
0.971144
0.967987
0.965484
0.963208
0.960957
0.958889
0.954689
0.999221
0.999702
0.999784
0.999802
0.999729
0.999364
0.998485
0.99683
0.993804
0.989573
0.984308
0.978227
0.971692
0.965332
0.95973
0.955139
0.951319
0.94796
0.945197
0.94005
0.998995
0.99959
0.999711
0.999732
0.999661
0.999296
0.998385
0.996654
0.99363
0.989286
0.983713
0.976973
0.96908
0.960386
0.951734
0.944058
0.937777
0.932691
0.928994
0.922774
0.998704
0.999447
0.999615
0.999638
0.999565
0.999208
0.998272
0.996448
0.993364
0.988912
0.983088
0.97586
0.967022
0.956502
0.94494
0.933667
0.923894
0.915896
0.910389
0.902313
0.998326
0.999261
0.999491
0.999517
0.999437
0.999083
0.99812
0.9962
0.992999
0.988397
0.982312
0.97462
0.96503
0.953189
0.939414
0.924856
0.911187
0.898908
0.889981
0.878589
0.997789
0.998992
0.999312
0.999345
0.999253
0.99889
0.997887
0.995872
0.992513
0.987699
0.981309
0.973147
0.962885
0.95003
0.934678
0.917457
0.899707
0.881826
0.867712
0.85089
0.997203
0.998691
0.999113
0.999156
0.999051
0.998663
0.997607
0.995513
0.992015
0.986965
0.980237
0.97162
0.960761
0.947149
0.930808
0.91186
0.890997
0.868249
0.849257
0.826142
0.995347
0.997622
0.99835
0.998449
0.998295
0.997803
0.996606
0.994325
0.990575
0.985114
0.977751
0.968254
0.956303
0.941543
0.923951
0.903158
0.879269
0.851481
0.82648
0.77997
0.998822
0.999432
0.999547
0.999673
0.999748
0.999785
0.999811
0.999829
0.999832
0.999821
0.999788
0.99973
0.999649
0.999533
0.999377
0.999174
0.998902
0.998501
0.998052
0.996571
0.999419
0.999821
0.999882
0.99993
0.999947
0.999953
0.999958
0.999963
0.999964
0.999961
0.999952
0.999934
0.999903
0.999855
0.999788
0.999702
0.999584
0.9994
0.999183
0.998347
0.999532
0.999879
0.999932
0.999969
0.999977
0.999978
0.99998
0.999983
0.999982
0.999976
0.999965
0.999949
0.999926
0.999894
0.999851
0.999794
0.999716
0.999594
0.999448
0.99883
0.999664
0.999928
0.999968
0.999996
0.999999
0.999999
0.999999
0.999999
0.999999
0.999986
0.999968
0.99995
0.999927
0.999897
0.999855
0.999797
0.999718
0.999594
0.99945
0.998858
0.999748
0.999948
0.999977
0.999999
0.999988
0.99984
0.999819
0.999797
0.999775
0.999747
0.999709
0.999656
0.999576
0.999447
0.999291
0.998654
0.999791
0.999955
0.99998
0.999999
0.999567
0.999129
0.99913
0.999127
0.999121
0.999117
0.999111
0.999087
0.999021
0.998886
0.998703
0.997963
0.999819
0.999961
0.999982
0.999999
0.998434
0.997518
0.997541
0.997551
0.997549
0.997549
0.997566
0.997575
0.997544
0.997433
0.997245
0.996408
0.999837
0.999967
0.999985
0.999999
0.996083
0.994496
0.994604
0.994677
0.994695
0.994689
0.994685
0.994681
0.994632
0.994497
0.994292
0.993395
0.999841
0.999969
0.999985
0.999999
0.999994
0.999745
0.999005
0.997386
0.991489
0.990136
0.990156
0.990221
0.990291
0.990283
0.990252
0.990202
0.990086
0.989855
0.989553
0.988512
0.99983
0.999966
0.999981
0.999989
0.999889
0.999365
0.998112
0.995706
0.990909
0.987861
0.98651
0.985803
0.985358
0.984997
0.984685
0.984443
0.984165
0.983752
0.98324
0.981809
0.999798
0.99996
0.999972
0.999976
0.999872
0.999358
0.998113
0.995839
0.991289
0.98707
0.984047
0.981928
0.980341
0.979161
0.978312
0.977685
0.977069
0.976315
0.975453
0.973332
0.999742
0.999943
0.999958
0.99996
0.999852
0.999346
0.998105
0.995842
0.991617
0.986845
0.982395
0.978673
0.975525
0.973054
0.971305
0.969993
0.968752
0.967395
0.965995
0.96292
0.999663
0.999914
0.999939
0.999941
0.999829
0.999329
0.998082
0.995816
0.991863
0.986871
0.981418
0.97607
0.971061
0.966834
0.963564
0.961036
0.958791
0.956554
0.954477
0.95034
0.999551
0.99987
0.99991
0.999914
0.999799
0.999309
0.998051
0.995762
0.991882
0.986815
0.980833
0.974329
0.967564
0.961114
0.95541
0.950697
0.946783
0.943317
0.940497
0.935371
0.999399
0.999807
0.999871
0.999876
0.999759
0.999282
0.998022
0.995688
0.991841
0.986673
0.9804
0.973238
0.965112
0.956325
0.94754
0.939734
0.933354
0.928168
0.924422
0.918147
0.999202
0.999725
0.999818
0.999823
0.999706
0.999235
0.99798
0.995596
0.991742
0.986491
0.980003
0.972363
0.963284
0.952608
0.940903
0.929657
0.920014
0.912078
0.906549
0.89821
0.998936
0.999613
0.999747
0.999752
0.999631
0.999154
0.9979
0.995455
0.991548
0.986206
0.9795
0.971397
0.961542
0.949493
0.935595
0.921269
0.908042
0.896206
0.8874
0.875503
0.998545
0.999439
0.999636
0.99964
0.999512
0.999013
0.997753
0.995242
0.991222
0.985735
0.978775
0.970197
0.959623
0.946538
0.931156
0.914358
0.897406
0.880408
0.866653
0.849236
0.998107
0.999233
0.999504
0.999511
0.999372
0.998836
0.997551
0.99499
0.990844
0.985149
0.977884
0.968845
0.957661
0.943873
0.927651
0.909254
0.88933
0.867682
0.849241
0.82568
0.99666
0.998436
0.99893
0.998968
0.998784
0.998143
0.99672
0.994038
0.989684
0.983578
0.975657
0.96571
0.953462
0.938623
0.921269
0.901036
0.878005
0.851328
0.827078
0.782805
0.999475
0.999801
0.999843
0.999891
0.999919
0.999932
0.999939
0.999944
0.999943
0.999935
0.999918
0.999885
0.999837
0.999765
0.999663
0.999519
0.999318
0.999012
0.99866
0.997442
0.9998
0.999979
0.999989
0.999995
0.999997
0.999998
0.999998
0.999998
0.999998
0.999998
0.999996
0.999992
0.999983
0.999965
0.999935
0.999889
0.999815
0.999689
0.999526
0.998844
0.99984
0.999989
0.999996
0.999999
0.999999
1
1
1
1
0.999999
0.999997
0.999995
0.99999
0.999982
0.999969
0.999945
0.999904
0.999826
0.999717
0.999191
0.999888
0.999995
0.999999
1
1
1
1
1
1
0.999992
0.999984
0.999976
0.999968
0.999958
0.999942
0.999917
0.999874
0.999793
0.999683
0.999163
0.999918
0.999997
0.999999
1
0.999984
0.9998
0.999772
0.99975
0.999734
0.999729
0.999721
0.999701
0.999658
0.999569
0.999446
0.99888
0.999932
0.999998
1
1
0.999457
0.99889
0.99886
0.998834
0.998811
0.998818
0.998839
0.998857
0.998843
0.998774
0.998647
0.998025
0.99994
0.999998
1
1
0.998163
0.996878
0.996851
0.996813
0.996773
0.996734
0.996748
0.996788
0.996804
0.996777
0.996682
0.996057
0.999944
0.999998
1
1
0.995499
0.993378
0.993419
0.993404
0.993354
0.993283
0.993219
0.993196
0.993157
0.993077
0.992959
0.992342
0.999944
0.999998
1
1
0.999986
0.999538
0.998371
0.995938
0.989099
0.988106
0.988163
0.988234
0.988255
0.988218
0.988135
0.988037
0.987899
0.987683
0.98743
0.986649
0.999937
0.999998
0.999999
0.999994
0.999832
0.999038
0.997197
0.993914
0.988396
0.985242
0.983807
0.983058
0.982644
0.982359
0.982064
0.981752
0.981411
0.98097
0.980472
0.979255
0.99992
0.999997
0.999998
0.999988
0.999814
0.999023
0.997191
0.994008
0.988606
0.984023
0.980812
0.978672
0.977203
0.976147
0.97531
0.974584
0.973874
0.973075
0.972226
0.970303
0.999889
0.999994
0.999996
0.999981
0.999797
0.999007
0.99718
0.994064
0.988873
0.983392
0.978757
0.975146
0.972188
0.969753
0.967911
0.966536
0.965279
0.963936
0.962575
0.959679
0.999841
0.999985
0.999992
0.999975
0.999783
0.998995
0.997167
0.994057
0.989047
0.983292
0.977566
0.972351
0.967514
0.963204
0.959837
0.957432
0.955354
0.953231
0.951188
0.947099
0.999771
0.999969
0.999986
0.999967
0.999777
0.999001
0.997153
0.994032
0.989157
0.983293
0.976909
0.970306
0.963546
0.957058
0.951545
0.947325
0.943792
0.940481
0.937563
0.932166
0.999671
0.999941
0.999975
0.999955
0.999769
0.999015
0.997165
0.994004
0.989217
0.983251
0.976467
0.968986
0.960753
0.952131
0.943977
0.937028
0.931116
0.925915
0.921811
0.914944
0.99953
0.999898
0.999954
0.999934
0.999752
0.999018
0.997191
0.99399
0.989207
0.98316
0.976095
0.96808
0.958929
0.948623
0.937835
0.927592
0.918385
0.910278
0.904301
0.895313
0.999334
0.999829
0.999919
0.999897
0.999714
0.998999
0.997193
0.993948
0.98914
0.983003
0.975684
0.967215
0.957348
0.945744
0.932763
0.919379
0.906647
0.894899
0.885944
0.873511
0.999037
0.99971
0.999849
0.999827
0.999637
0.998929
0.997157
0.993861
0.988967
0.982698
0.975122
0.966196
0.955635
0.942957
0.928307
0.912315
0.896121
0.87988
0.866516
0.848614
0.998695
0.999559
0.999752
0.99973
0.99953
0.998814
0.997062
0.993741
0.98873
0.982262
0.974403
0.965033
0.953847
0.940369
0.924677
0.907037
0.888143
0.867748
0.849983
0.825951
0.997506
0.998913
0.999266
0.999256
0.999016
0.998242
0.996463
0.993133
0.987965
0.981097
0.972595
0.962322
0.950016
0.935313
0.918269
0.898699
0.876723
0.851349
0.827825
0.786869
0.999623
0.999875
0.999901
0.99993
0.999948
0.999956
0.999959
0.999961
0.99996
0.999954
0.99994
0.999914
0.999874
0.999812
0.999721
0.999588
0.9994
0.999111
0.998776
0.997606
0.999877
0.999999
1
1
1
1
1
1
1
1
1
0.999998
0.999993
0.999982
0.99996
0.999921
0.999856
0.999738
0.999585
0.998924
0.9999
1
1
1
1
1
1
1
1
1
1
0.999999
0.999998
0.999995
0.999988
0.999971
0.999938
0.999867
0.999763
0.999247
0.999929
1
1
1
1
1
1
1
1
0.999988
0.999977
0.999967
0.999959
0.999953
0.999944
0.999926
0.999891
0.999818
0.999713
0.999198
0.999947
1
1
1
0.999984
0.999681
0.999656
0.999633
0.999612
0.999616
0.999623
0.999618
0.999589
0.999513
0.999397
0.998842
0.999956
1
1
1
0.999143
0.998368
0.998356
0.998341
0.998325
0.998338
0.998379
0.998437
0.998454
0.998429
0.998345
0.997792
0.999959
1
1
1
0.997261
0.995771
0.995763
0.995744
0.99572
0.995693
0.995713
0.995779
0.995866
0.995892
0.995865
0.995414
0.999961
1
1
1
0.993918
0.991821
0.991863
0.991851
0.991803
0.991727
0.99165
0.991633
0.991631
0.991613
0.99157
0.991183
0.99996
1
1
1
0.999986
0.999313
0.99762
0.994405
0.986862
0.986147
0.986264
0.986388
0.986398
0.986347
0.986246
0.986135
0.986007
0.985833
0.985636
0.98506
0.999954
1
1
0.999992
0.99976
0.998669
0.996309
0.992283
0.986099
0.983093
0.981806
0.981117
0.980702
0.98042
0.980141
0.979819
0.979464
0.979023
0.978529
0.977439
0.99994
1
1
0.999983
0.999735
0.998654
0.996313
0.992453
0.986356
0.981692
0.978643
0.976657
0.97531
0.974357
0.97359
0.972855
0.972087
0.97122
0.970323
0.968463
0.999914
0.999999
0.999999
0.999975
0.999712
0.998634
0.996308
0.992581
0.986729
0.980919
0.976385
0.973044
0.970415
0.968227
0.966457
0.965029
0.963692
0.962273
0.960869
0.958013
0.999874
0.999994
0.999998
0.999969
0.999693
0.998614
0.996298
0.992617
0.987003
0.980892
0.975092
0.970192
0.965863
0.961869
0.958519
0.956083
0.954025
0.951935
0.949901
0.945796
0.999813
0.999982
0.999996
0.999964
0.999696
0.998624
0.996286
0.992606
0.987174
0.980936
0.974466
0.968117
0.961801
0.955547
0.950122
0.946167
0.942939
0.93983
0.936925
0.931292
0.999723
0.999961
0.99999
0.999957
0.999701
0.998654
0.996304
0.992584
0.987299
0.980983
0.974118
0.966753
0.958737
0.950297
0.942543
0.936324
0.931038
0.926114
0.921868
0.914368
0.999592
0.999924
0.999975
0.999943
0.999696
0.998697
0.996361
0.992592
0.987302
0.980933
0.973782
0.965795
0.956754
0.946749
0.936721
0.92756
0.919186
0.911296
0.904882
0.894893
0.999407
0.999862
0.999946
0.999913
0.99967
0.998708
0.996431
0.992594
0.987268
0.98081
0.973376
0.964895
0.955153
0.944009
0.931993
0.91982
0.907906
0.896248
0.886789
0.873304
0.999126
0.999751
0.999882
0.999849
0.999604
0.998683
0.996448
0.992578
0.98716
0.980556
0.972818
0.963855
0.953473
0.941358
0.927656
0.912698
0.897137
0.881089
0.867509
0.848755
0.998799
0.999607
0.999789
0.999755
0.999501
0.998606
0.996421
0.99254
0.987006
0.980181
0.972117
0.962699
0.95172
0.938775
0.92381
0.906867
0.888516
0.868578
0.850799
0.826108
0.997655
0.998979
0.99931
0.999282
0.998993
0.998087
0.995986
0.992167
0.986498
0.979241
0.970495
0.960159
0.94801
0.933623
0.916891
0.89764
0.876119
0.851324
0.827885
0.78886
0.999636
0.999882
0.999905
0.999933
0.99995
0.999957
0.999961
0.999963
0.999962
0.999956
0.999942
0.999916
0.999877
0.999816
0.999725
0.999592
0.999403
0.999112
0.998774
0.997596
0.999881
1
1
1
1
1
1
1
1
1
1
0.999999
0.999994
0.999982
0.999961
0.999922
0.999856
0.999737
0.999581
0.99891
0.999904
1
1
1
1
1
1
1
1
1
1
0.999999
0.999998
0.999995
0.999988
0.999972
0.999938
0.999866
0.999761
0.999236
0.999933
1
1
1
1
1
1
1
1
0.999988
0.999975
0.999962
0.999952
0.999944
0.999936
0.999918
0.999883
0.999809
0.999702
0.999178
0.99995
1
1
1
0.99998
0.999645
0.999601
0.999563
0.99953
0.999525
0.999533
0.999534
0.999512
0.999442
0.999328
0.998773
0.999957
1
1
1
0.998912
0.997995
0.997987
0.997973
0.997963
0.997979
0.998032
0.998116
0.998165
0.998152
0.998088
0.997574
0.999961
1
1
1
0.996509
0.994768
0.994802
0.994826
0.994846
0.994874
0.99493
0.995041
0.995193
0.99529
0.995289
0.994939
0.999963
1
1
1
0.992518
0.990112
0.990238
0.990336
0.990379
0.990377
0.990386
0.990433
0.99052
0.990611
0.990636
0.990412
0.999962
1
1
1
0.999985
0.999186
0.997187
0.99363
0.98522
0.984435
0.984497
0.984614
0.984678
0.984661
0.984624
0.984585
0.984548
0.984494
0.984403
0.984032
0.999956
1
1
0.99999
0.99971
0.998402
0.995763
0.991595
0.984939
0.981683
0.980228
0.979444
0.978956
0.97864
0.978387
0.978128
0.977852
0.977518
0.977119
0.976214
0.999942
1
1
0.999978
0.999674
0.998384
0.995765
0.991752
0.985352
0.980461
0.977302
0.975199
0.97373
0.972715
0.971957
0.971263
0.970531
0.969707
0.968855
0.967131
0.999916
0.999999
0.999999
0.999968
0.999644
0.998363
0.995759
0.991875
0.985833
0.979911
0.975245
0.971792
0.969112
0.966922
0.965126
0.963644
0.962252
0.960808
0.959419
0.956679
0.999877
0.999994
0.999998
0.999961
0.999619
0.998345
0.995752
0.991888
0.98616
0.979942
0.974061
0.96915
0.964915
0.960968
0.957474
0.954839
0.952686
0.950604
0.948621
0.944622
0.999817
0.999983
0.999996
0.999956
0.99962
0.998356
0.995752
0.991874
0.986357
0.98004
0.973544
0.96727
0.961107
0.954831
0.949125
0.945
0.941856
0.938919
0.936102
0.93045
0.999727
0.999962
0.99999
0.999949
0.999626
0.998394
0.995775
0.991847
0.986452
0.980101
0.973269
0.966005
0.958057
0.949474
0.941516
0.935446
0.930577
0.925983
0.92172
0.913861
0.999597
0.999925
0.999975
0.999934
0.999626
0.998456
0.995847
0.991855
0.986442
0.980043
0.97296
0.965055
0.956
0.945891
0.935966
0.927322
0.919583
0.911999
0.9053
0.894548
0.999412
0.999863
0.999945
0.999904
0.999606
0.998485
0.995951
0.991874
0.986399
0.979911
0.972543
0.964115
0.954365
0.943295
0.931675
0.920197
0.908895
0.897321
0.887349
0.872954
0.999129
0.999751
0.99988
0.999838
0.999543
0.998469
0.995999
0.991883
0.986305
0.979659
0.971955
0.963016
0.952678
0.940804
0.927615
0.913262
0.898047
0.881829
0.867733
0.848263
0.998802
0.999605
0.999785
0.999742
0.999441
0.998402
0.995986
0.991873
0.986175
0.979284
0.971216
0.961806
0.950919
0.938266
0.923719
0.907075
0.888753
0.868556
0.850312
0.825291
0.997657
0.998971
0.999298
0.99926
0.998928
0.997903
0.995609
0.991578
0.985732
0.978361
0.969554
0.959211
0.947159
0.932968
0.916372
0.897061
0.87538
0.850418
0.826792
0.788617
0.999637
0.999882
0.999906
0.999934
0.99995
0.999958
0.999961
0.999963
0.999962
0.999956
0.999942
0.999917
0.999877
0.999816
0.999725
0.999592
0.999402
0.99911
0.99877
0.997585
0.999881
1
1
1
1
1
1
1
1
1
1
0.999999
0.999994
0.999982
0.999961
0.999922
0.999855
0.999734
0.999576
0.998898
0.999904
1
1
1
1
1
1
1
1
1
1
0.999999
0.999998
0.999995
0.999988
0.999972
0.999938
0.999864
0.999757
0.999223
0.999932
1
1
1
1
1
1
1
1
0.999988
0.999974
0.999961
0.99995
0.999942
0.999933
0.999915
0.999879
0.999803
0.999693
0.999159
0.99995
1
1
1
0.999982
0.999633
0.999586
0.999545
0.99951
0.999503
0.999511
0.999512
0.999492
0.999421
0.999305
0.998742
0.999957
1
1
1
0.998823
0.997893
0.997883
0.99787
0.997862
0.99788
0.997936
0.998029
0.998087
0.998077
0.998017
0.997506
0.999961
1
1
1
0.995979
0.994448
0.994492
0.994527
0.994562
0.994606
0.99468
0.994811
0.994985
0.995111
0.995117
0.994792
0.999963
1
1
1
0.991412
0.989434
0.989599
0.98973
0.989813
0.98986
0.989906
0.98999
0.990113
0.990252
0.990322
0.990134
0.999962
1
1
1
0.999965
0.998944
0.996705
0.993017
0.984461
0.983724
0.983755
0.983849
0.983923
0.983944
0.983934
0.98393
0.983931
0.983929
0.98389
0.983611
0.999956
1
1
0.999987
0.999653
0.998219
0.995437
0.991283
0.984654
0.981196
0.979546
0.978652
0.978114
0.977784
0.977541
0.977306
0.977063
0.976773
0.976423
0.975617
0.999942
1
0.999999
0.999974
0.999625
0.998218
0.995476
0.991449
0.985113
0.980126
0.976763
0.974461
0.972831
0.971719
0.970935
0.970253
0.969544
0.968749
0.967927
0.966283
0.999917
0.999999
0.999999
0.999963
0.9996
0.998213
0.995497
0.991581
0.985592
0.979659
0.974849
0.971154
0.9682
0.965813
0.963944
0.962455
0.961069
0.959625
0.958236
0.955551
0.999877
0.999994
0.999998
0.999955
0.999579
0.998216
0.995508
0.991602
0.985898
0.979682
0.973722
0.968578
0.964042
0.959849
0.956223
0.953531
0.951338
0.949219
0.947215
0.943255
0.999817
0.999983
0.999995
0.99995
0.999584
0.998236
0.995527
0.991593
0.986086
0.979773
0.973197
0.966723
0.960291
0.953759
0.947865
0.943612
0.940397
0.937432
0.934602
0.928958
0.999728
0.999962
0.999989
0.999944
0.999596
0.998288
0.99557
0.991576
0.986167
0.979791
0.97289
0.965463
0.957291
0.948466
0.940297
0.934096
0.929204
0.924621
0.920323
0.91237
0.999598
0.999925
0.999975
0.999929
0.999598
0.998365
0.995661
0.991593
0.986156
0.979724
0.972556
0.964509
0.955268
0.944938
0.934829
0.926124
0.918384
0.910785
0.904014
0.893098
0.999413
0.999863
0.999944
0.999898
0.99958
0.998404
0.995783
0.991628
0.986112
0.979577
0.972111
0.963552
0.953634
0.942363
0.930623
0.919112
0.907789
0.896163
0.886111
0.871557
0.999131
0.99975
0.999877
0.999831
0.999517
0.998391
0.995846
0.991651
0.98602
0.97931
0.971497
0.962428
0.951934
0.939888
0.926619
0.912213
0.896934
0.880646
0.866518
0.846936
0.998804
0.999603
0.99978
0.999732
0.999413
0.998327
0.995837
0.991647
0.985892
0.978928
0.970743
0.961203
0.950165
0.937358
0.922725
0.905993
0.887564
0.867301
0.84907
0.823996
0.997657
0.998964
0.999286
0.999242
0.998894
0.997831
0.995473
0.991369
0.985451
0.978
0.969074
0.958596
0.946396
0.932058
0.915331
0.895893
0.874108
0.849116
0.825559
0.78744
0.999624
0.999878
0.999902
0.999931
0.999948
0.999956
0.99996
0.999962
0.99996
0.999954
0.99994
0.999914
0.999874
0.999811
0.999719
0.999585
0.999394
0.9991
0.998759
0.997568
0.999875
0.999999
1
1
1
1
1
1
1
1
1
0.999998
0.999993
0.999981
0.999959
0.999919
0.999851
0.99973
0.99957
0.998887
0.999899
1
1
1
1
1
1
1
1
1
1
0.999999
0.999998
0.999995
0.999987
0.99997
0.999935
0.99986
0.999751
0.999213
0.999929
1
1
1
1
1
1
1
1
0.999989
0.999977
0.999966
0.999957
0.999949
0.999939
0.99992
0.999883
0.999806
0.999694
0.999156
0.999947
1
1
1
0.999982
0.999668
0.999629
0.999594
0.999563
0.999564
0.999572
0.999571
0.999545
0.999467
0.999345
0.998768
0.999956
1
1
1
0.99885
0.998112
0.998097
0.998079
0.998066
0.998084
0.998139
0.998224
0.998263
0.998245
0.998169
0.99762
0.999959
1
1
1
0.996158
0.994967
0.994978
0.99498
0.994986
0.995007
0.995064
0.995182
0.995333
0.995422
0.995413
0.995023
0.999961
1
1
1
0.99172
0.990167
0.99028
0.990367
0.990386
0.990384
0.990397
0.990455
0.990548
0.990647
0.990675
0.990435
0.99996
1
1
1
0.999984
0.999048
0.996805
0.993012
0.984523
0.984083
0.984158
0.984288
0.984357
0.984385
0.984366
0.984344
0.984318
0.984273
0.984196
0.983856
0.999954
1
1
0.999991
0.999724
0.998419
0.995703
0.991441
0.984746
0.981269
0.979593
0.978719
0.978232
0.977966
0.977744
0.977502
0.977242
0.976915
0.976539
0.975705
0.99994
1
1
0.99998
0.999687
0.998402
0.995735
0.991626
0.985184
0.98007
0.976585
0.974239
0.972624
0.971539
0.970762
0.970077
0.969378
0.968591
0.967775
0.966137
0.999914
0.999998
0.999999
0.99997
0.999656
0.998386
0.995754
0.991756
0.985641
0.979575
0.974639
0.970821
0.967731
0.965228
0.963337
0.961898
0.960583
0.959194
0.957822
0.955131
0.999874
0.999993
0.999998
0.999963
0.999633
0.998379
0.995764
0.991812
0.985949
0.979598
0.973516
0.968163
0.963325
0.958909
0.955309
0.952759
0.950651
0.948535
0.946488
0.942483
0.999812
0.999982
0.999995
0.999957
0.999637
0.998397
0.995781
0.991812
0.986136
0.979672
0.972944
0.966202
0.959421
0.952716
0.946953
0.942787
0.939444
0.936269
0.933315
0.927702
0.999722
0.99996
0.999989
0.999949
0.999648
0.998446
0.995826
0.991813
0.986274
0.979735
0.97261
0.964897
0.956473
0.947617
0.939514
0.933031
0.927577
0.922548
0.918169
0.910564
0.999591
0.999922
0.999973
0.999934
0.999646
0.998517
0.99592
0.991841
0.986294
0.979683
0.972273
0.963977
0.954589
0.944207
0.933829
0.924371
0.91579
0.907707
0.901066
0.890867
0.999405
0.999859
0.999942
0.999901
0.999622
0.998544
0.996037
0.99189
0.986272
0.979554
0.971851
0.963086
0.953037
0.941543
0.929157
0.916636
0.904439
0.892489
0.882765
0.86907
0.999121
0.999745
0.999874
0.999833
0.999553
0.998525
0.996089
0.991919
0.986195
0.979301
0.971277
0.962041
0.95138
0.938946
0.924845
0.909423
0.893446
0.87702
0.863232
0.844383
0.998792
0.999596
0.999776
0.999734
0.999444
0.998452
0.996073
0.991912
0.986074
0.978942
0.970575
0.960884
0.949638
0.936393
0.921004
0.903501
0.88461
0.864249
0.846375
0.821673
0.997642
0.998953
0.999279
0.999241
0.998915
0.997928
0.995664
0.9916
0.985625
0.978048
0.968981
0.958356
0.945931
0.931236
0.914081
0.89428
0.87224
0.847133
0.823731
0.784693
0.999479
0.999805
0.999846
0.999892
0.99992
0.999933
0.99994
0.999944
0.999943
0.999936
0.999918
0.999886
0.999837
0.999764
0.99966
0.999513
0.999307
0.998994
0.998632
0.997383
0.999799
0.99998
0.99999
0.999996
0.999997
0.999998
0.999998
0.999998
0.999998
0.999998
0.999997
0.999992
0.999983
0.999965
0.999934
0.999886
0.999809
0.999676
0.999505
0.998791
0.999839
0.999989
0.999996
0.999999
1
1
1
1
1
0.999999
0.999998
0.999995
0.99999
0.999982
0.999968
0.999943
0.9999
0.999816
0.9997
0.999143
0.999887
0.999995
0.999999
1
1
1
1
1
1
0.999993
0.999984
0.999975
0.999965
0.999954
0.999938
0.999912
0.999866
0.99978
0.999662
0.999111
0.999917
0.999997
0.999999
1
0.999987
0.99977
0.99974
0.999712
0.999691
0.999683
0.999675
0.999656
0.999613
0.999521
0.99939
0.998793
0.999931
0.999998
1
1
0.999122
0.998616
0.998595
0.998575
0.998557
0.998569
0.998604
0.998642
0.998641
0.998588
0.998467
0.997826
0.999939
0.999998
1
1
0.996945
0.996068
0.996061
0.996049
0.996032
0.996031
0.996065
0.996147
0.996224
0.996226
0.996169
0.995591
0.999944
0.999998
1
1
0.993013
0.991789
0.991882
0.99193
0.991916
0.991887
0.99187
0.991903
0.99193
0.991924
0.991879
0.991398
0.999943
0.999998
1
1
0.999981
0.999253
0.997362
0.993785
0.985732
0.985859
0.985918
0.986014
0.986056
0.986066
0.98604
0.986006
0.985939
0.985807
0.985638
0.985047
0.999936
0.999998
0.999999
0.999993
0.999791
0.998814
0.996622
0.992784
0.986341
0.982766
0.981156
0.980321
0.979842
0.979562
0.979303
0.979047
0.978773
0.978403
0.977969
0.976933
0.999918
0.999997
0.999998
0.999985
0.999771
0.998804
0.996622
0.992923
0.986709
0.981505
0.977969
0.975655
0.974051
0.972918
0.972068
0.971369
0.970702
0.969949
0.969132
0.967337
0.999887
0.999993
0.999996
0.999977
0.99975
0.998791
0.996618
0.993009
0.9871
0.981026
0.975969
0.972061
0.968881
0.966293
0.964383
0.962993
0.961744
0.960414
0.959047
0.956199
0.999839
0.999984
0.999992
0.999969
0.999733
0.998778
0.996608
0.993006
0.987354
0.981044
0.974846
0.96926
0.964148
0.959642
0.956166
0.953712
0.951614
0.949465
0.947365
0.943227
0.999768
0.999967
0.999985
0.99996
0.999727
0.998786
0.996599
0.992986
0.98752
0.981115
0.974252
0.96723
0.960153
0.953436
0.947811
0.943538
0.939938
0.936519
0.933467
0.927926
0.999666
0.999938
0.999972
0.999947
0.99972
0.99881
0.99662
0.992961
0.987606
0.981095
0.973848
0.965942
0.957362
0.9485
0.940232
0.933169
0.927055
0.921623
0.917314
0.910245
0.999524
0.999893
0.99995
0.999924
0.999704
0.99883
0.996669
0.992958
0.987597
0.981012
0.97349
0.965072
0.955581
0.945012
0.934014
0.923493
0.91398
0.905578
0.899338
0.890077
0.999324
0.999821
0.999911
0.999884
0.999665
0.998819
0.996699
0.992937
0.987533
0.980847
0.973073
0.96422
0.954027
0.942123
0.928777
0.914964
0.90185
0.889762
0.880491
0.867721
0.999022
0.999697
0.999836
0.999807
0.999582
0.998758
0.996684
0.992882
0.987374
0.980535
0.972495
0.96319
0.95231
0.939305
0.924174
0.907624
0.890949
0.874295
0.860579
0.842326
0.998673
0.999538
0.999731
0.999702
0.999465
0.998642
0.996609
0.992795
0.987166
0.98011
0.971768
0.962009
0.950497
0.936666
0.920447
0.90219
0.882733
0.861849
0.843766
0.81939
0.997469
0.998869
0.999219
0.999199
0.998919
0.998047
0.996033
0.992258
0.986492
0.979016
0.969995
0.959303
0.94664
0.931551
0.913998
0.893841
0.871321
0.845519
0.821742
0.780329
0.998835
0.999444
0.999557
0.99968
0.999754
0.999792
0.999818
0.999836
0.999837
0.999824
0.999792
0.999733
0.999651
0.999534
0.999377
0.99917
0.998893
0.998483
0.998024
0.996506
0.999423
0.999826
0.999886
0.999932
0.999949
0.999955
0.999961
0.999966
0.999966
0.999963
0.999954
0.999935
0.999904
0.999855
0.999787
0.999699
0.999577
0.999385
0.999159
0.998288
0.999532
0.999882
0.999934
0.99997
0.999978
0.999979
0.999982
0.999984
0.999984
0.999977
0.999966
0.99995
0.999927
0.999894
0.99985
0.99979
0.999709
0.99958
0.999425
0.998772
0.999659
0.999927
0.999968
1
1
1
1
1
1
0.999987
0.99997
0.999951
0.999927
0.999896
0.999852
0.999792
0.999709
0.999578
0.999424
0.998796
0.999741
0.999945
0.999975
1
0.999989
0.999858
0.999831
0.999803
0.999775
0.999743
0.999698
0.999636
0.99955
0.999412
0.999247
0.998572
0.999783
0.999952
0.999978
1
0.999447
0.999147
0.999128
0.999102
0.999073
0.999053
0.999035
0.999002
0.998932
0.998793
0.998602
0.997816
0.999812
0.999958
0.999981
1
0.997916
0.997392
0.997387
0.99737
0.997338
0.997304
0.997299
0.997296
0.997258
0.997145
0.996955
0.996092
0.999831
0.999964
0.999983
1
0.994769
0.994026
0.994171
0.994205
0.994187
0.994147
0.994106
0.994073
0.993995
0.993847
0.993642
0.992744
0.999836
0.999967
0.999984
1
0.999992
0.999494
0.998221
0.995629
0.988715
0.989014
0.989092
0.989209
0.989293
0.989275
0.989219
0.989141
0.989
0.988745
0.988428
0.987376
0.999825
0.999964
0.999979
0.999988
0.999869
0.999253
0.997774
0.994983
0.989653
0.986293
0.984892
0.984212
0.983786
0.983424
0.983101
0.982862
0.98259
0.982168
0.981626
0.980144
0.999793
0.999957
0.999969
0.999973
0.999845
0.999232
0.997753
0.995031
0.989923
0.985274
0.982018
0.97982
0.978209
0.977033
0.97621
0.975622
0.975041
0.974296
0.973397
0.971166
0.999737
0.99994
0.999955
0.999955
0.999818
0.999206
0.997718
0.995011
0.990179
0.984868
0.980065
0.976162
0.972943
0.970489
0.968806
0.967545
0.966336
0.964981
0.963523
0.960275
0.999657
0.99991
0.999934
0.999934
0.999791
0.999177
0.997671
0.994954
0.990382
0.984812
0.97889
0.973259
0.968128
0.963921
0.960724
0.958242
0.956014
0.953746
0.951577
0.947211
0.999544
0.999865
0.999904
0.999905
0.99976
0.999151
0.997622
0.994874
0.990379
0.984708
0.978198
0.971328
0.964382
0.957913
0.952236
0.947536
0.94361
0.940078
0.937145
0.931751
0.999392
0.999801
0.999863
0.999865
0.999718
0.999125
0.997588
0.994787
0.99033
0.984536
0.977716
0.970154
0.961778
0.952862
0.943988
0.93615
0.929767
0.924532
0.920697
0.914094
0.999192
0.999718
0.999809
0.99981
0.999664
0.999082
0.997551
0.994694
0.990226
0.984345
0.977311
0.969255
0.959859
0.948916
0.937002
0.925707
0.916056
0.908114
0.902509
0.893739
0.998923
0.999602
0.999734
0.999733
0.999585
0.999005
0.997481
0.994557
0.990031
0.984065
0.97682
0.968287
0.958055
0.945631
0.931462
0.917041
0.903811
0.892006
0.883088
0.870604
0.998526
0.999421
0.999615
0.999614
0.999459
0.998865
0.997344
0.994357
0.989715
0.983611
0.976119
0.967091
0.956087
0.942563
0.926894
0.909992
0.893037
0.876042
0.862086
0.843939
0.998082
0.999208
0.999473
0.999474
0.999308
0.998682
0.997148
0.994122
0.989355
0.983043
0.975242
0.96573
0.954086
0.93985
0.923352
0.904859
0.884883
0.863098
0.844374
0.820066
0.996613
0.998383
0.998866
0.998894
0.998684
0.997955
0.996314
0.993204
0.988254
0.981524
0.973036
0.96258
0.949862
0.934608
0.916971
0.89657
0.873366
0.846423
0.821814
0.776903
0.998006
0.998964
0.999173
0.999379
0.99951
0.99958
0.999629
0.999664
0.999672
0.999652
0.999598
0.999508
0.999381
0.999205
0.998973
0.998674
0.998285
0.997733
0.997128
0.99521
0.998924