/*--------------------------------*- C++ -*----------------------------------*\
  =========                 |
  \\      /  F ield         | OpenFOAM: The Open Source CFD Toolbox
   \\    /   O peration     | Website:  https://openfoam.org
    \\  /    A nd           | Version:  9
     \\/     M anipulation  |
\*---------------------------------------------------------------------------*/
FoamFile
{
    format      ascii;
    class       volScalarField;
    location    "0.0035";
    object      p;
}
// * * * * * * * * * * * * * * * * * * * * * * * * * * * * * * * * * * * * * //

dimensions      [1 -1 -2 0 0 0 0];

internalField   nonuniform List<scalar> 
9720
(
1.41135e+07
1.6247e+07
1.74457e+07
1.79e+07
1.79554e+07
1.74975e+07
1.63726e+07
1.428e+07
1.17132e+07
9.56496e+06
7.92437e+06
6.7785e+06
5.9473e+06
5.36065e+06
4.90417e+06
4.51066e+06
4.19997e+06
3.91292e+06
3.65717e+06
3.23101e+06
1.61978e+07
1.84505e+07
1.96851e+07
1.90095e+07
1.8759e+07
1.86109e+07
1.75042e+07
1.45268e+07
1.0288e+07
7.19567e+06
5.61425e+06
4.95012e+06
4.51216e+06
4.17505e+06
3.89595e+06
3.63198e+06
3.40239e+06
3.17918e+06
2.97559e+06
2.63269e+06
1.73419e+07
1.95883e+07
2.13021e+07
1.85986e+07
1.77325e+07
1.89173e+07
1.83573e+07
1.47209e+07
8.74496e+06
5.04038e+06
3.91818e+06
3.88842e+06
3.92998e+06
3.94598e+06
3.88862e+06
3.74733e+06
3.55953e+06
3.34714e+06
3.14356e+06
2.79446e+06
1.78187e+07
1.8958e+07
1.86491e+07
1.60369e+07
1.46846e+07
1.93971e+07
2.06396e+07
1.80912e+07
8.85369e+06
2.32249e+06
2.45599e+06
2.8015e+06
3.17593e+06
3.44881e+06
3.57026e+06
3.54937e+06
3.47689e+06
3.34905e+06
3.20066e+06
2.89699e+06
1.78656e+07
1.86116e+07
1.74989e+07
1.46246e+07
1.83512e+06
1.82361e+06
2.02746e+06
2.40457e+06
2.96273e+06
3.52719e+06
3.80078e+06
3.77616e+06
3.68381e+06
3.52294e+06
3.34345e+06
2.99762e+06
1.73831e+07
1.84014e+07
1.86175e+07
1.90085e+07
2.19071e+06
2.24877e+06
2.30248e+06
2.46012e+06
2.82278e+06
3.32018e+06
3.69998e+06
3.75214e+06
3.71007e+06
3.59251e+06
3.42254e+06
3.05956e+06
1.61901e+07
1.71839e+07
1.7911e+07
2.02315e+07
2.48841e+06
2.52587e+06
2.53078e+06
2.57822e+06
2.71659e+06
3.01643e+06
3.40833e+06
3.69868e+06
3.7397e+06
3.69346e+06
3.55888e+06
3.173e+06
1.40664e+07
1.41754e+07
1.42196e+07
1.73869e+07
2.72967e+06
2.2784e+06
2.359e+06
2.45016e+06
2.5693e+06
2.75596e+06
3.07174e+06
3.44116e+06
3.68194e+06
3.72032e+06
3.67995e+06
3.39273e+06
1.14939e+07
9.99607e+06
8.40577e+06
8.11649e+06
1.75081e+06
2.21442e+06
2.5144e+06
2.75124e+06
516492
791467
1.18385e+06
1.51993e+06
1.78145e+06
2.03923e+06
2.34451e+06
2.7104e+06
3.08279e+06
3.36497e+06
3.44856e+06
3.32209e+06
9.36509e+06
7.00522e+06
4.90265e+06
2.32578e+06
1.85907e+06
2.27602e+06
2.56545e+06
2.34327e+06
889315
481859
575134
816702
1.11152e+06
1.39333e+06
1.69411e+06
2.05227e+06
2.43774e+06
2.79626e+06
3.08532e+06
3.10502e+06
7.74488e+06
5.48283e+06
3.8521e+06
2.46006e+06
2.07194e+06
2.33127e+06
2.57094e+06
2.41157e+06
1.30916e+06
613888
480372
526459
694865
941211
1.21641e+06
1.5385e+06
1.8933e+06
2.24562e+06
2.58283e+06
2.79951e+06
6.62316e+06
4.83114e+06
3.80764e+06
2.78674e+06
2.44282e+06
2.49284e+06
2.6204e+06
2.50078e+06
1.63393e+06
893862
548776
530273
566052
688952
893907
1.15439e+06
1.45673e+06
1.77793e+06
2.0961e+06
2.43075e+06
5.81422e+06
4.40107e+06
3.8444e+06
3.129e+06
2.96644e+06
2.85098e+06
2.76144e+06
2.62327e+06
1.88283e+06
1.20232e+06
747272
584757
574962
604071
698142
867905
1.11308e+06
1.404e+06
1.69565e+06
2.0728e+06
5.24937e+06
4.07721e+06
3.86077e+06
3.38616e+06
3.48983e+06
3.31672e+06
3.05329e+06
2.81599e+06
2.135e+06
1.48924e+06
1.01305e+06
733707
622362
614461
630652
706668
885856
1.1352e+06
1.3767e+06
1.73873e+06
4.81101e+06
3.81182e+06
3.80812e+06
3.5105e+06
3.75263e+06
3.67014e+06
3.42176e+06
3.12952e+06
2.43648e+06
1.79802e+06
1.30539e+06
962218
744132
645030
640098
689709
791293
951916
1.13342e+06
1.47636e+06
4.43294e+06
3.56095e+06
3.67615e+06
3.49182e+06
3.72985e+06
3.73673e+06
3.69648e+06
3.47729e+06
2.7946e+06
2.15828e+06
1.63936e+06
1.24111e+06
938133
750146
702999
722434
782155
866219
1.01075e+06
1.27994e+06
4.13509e+06
3.3429e+06
3.49866e+06
3.4268e+06
3.64059e+06
3.69699e+06
3.73667e+06
3.70631e+06
3.16015e+06
2.5423e+06
1.9994e+06
1.55281e+06
1.19866e+06
955740
832423
792853
798774
860767
961638
1.08105e+06
3.85898e+06
3.12953e+06
3.29643e+06
3.30966e+06
3.48525e+06
3.58296e+06
3.68959e+06
3.73841e+06
3.43046e+06
2.90021e+06
2.35584e+06
1.87961e+06
1.4991e+06
1.22219e+06
1.01604e+06
894359
878447
903910
906740
955570
3.61102e+06
2.93317e+06
3.10136e+06
3.17018e+06
3.31282e+06
3.41872e+06
3.55681e+06
3.69341e+06
3.4972e+06
3.17468e+06
2.69758e+06
2.20766e+06
1.80234e+06
1.47807e+06
1.21551e+06
1.06539e+06
1.0012e+06
924786
882115
962665
3.19481e+06
2.59985e+06
2.76309e+06
2.87595e+06
2.97617e+06
3.06108e+06
3.17884e+06
3.39356e+06
3.35996e+06
3.17792e+06
2.89443e+06
2.53783e+06
2.18769e+06
1.85373e+06
1.5766e+06
1.36556e+06
1.15379e+06
994312
989736
1.38161e+06
1.30169e+07
1.50615e+07
1.61987e+07
1.64472e+07
1.63492e+07
1.59193e+07
1.48831e+07
1.29701e+07
1.05911e+07
8.60268e+06
7.09813e+06
6.05965e+06
5.30032e+06
4.77387e+06
4.36167e+06
4.00131e+06
3.72183e+06
3.46889e+06
3.24036e+06
2.85649e+06
1.50213e+07
1.71776e+07
1.83834e+07
1.73122e+07
1.69347e+07
1.6996e+07
1.60403e+07
1.32937e+07
9.36246e+06
6.50161e+06
5.00154e+06
4.41636e+06
4.0366e+06
3.7443e+06
3.49754e+06
3.25408e+06
3.04181e+06
2.84106e+06
2.65672e+06
2.3449e+06
1.61358e+07
1.83009e+07
1.96011e+07
1.65331e+07
1.59848e+07
1.74717e+07
1.70566e+07
1.36415e+07
8.06792e+06
4.59632e+06
3.48194e+06
3.44605e+06
3.49758e+06
3.54389e+06
3.51004e+06
3.3946e+06
3.228e+06
3.03756e+06
2.85197e+06
2.53118e+06
1.64589e+07
1.73864e+07
1.6588e+07
1.41722e+07
1.39389e+07
1.84006e+07
1.94918e+07
1.69241e+07
8.38126e+06
2.16251e+06
2.23155e+06
2.48471e+06
2.81589e+06
3.07174e+06
3.22106e+06
3.21027e+06
3.15645e+06
3.05246e+06
2.92223e+06
2.64299e+06
1.63674e+07
1.6899e+07
1.56772e+07
1.32301e+07
1.64427e+06
1.71297e+06
1.87334e+06
2.15894e+06
2.61169e+06
3.11569e+06
3.45335e+06
3.45608e+06
3.39454e+06
3.25892e+06
3.08913e+06
2.755e+06
1.58584e+07
1.68439e+07
1.7194e+07
1.80224e+07
2.03046e+06
2.1186e+06
2.15147e+06
2.25669e+06
2.51407e+06
2.94616e+06
3.33109e+06
3.44868e+06
3.42335e+06
3.32874e+06
3.16963e+06
2.81995e+06
1.47034e+07
1.57561e+07
1.67161e+07
1.91685e+07
2.35113e+06
2.37554e+06
2.34037e+06
2.35683e+06
2.43539e+06
2.65616e+06
3.00213e+06
3.30634e+06
3.41683e+06
3.39243e+06
3.28582e+06
2.93701e+06
1.27201e+07
1.29397e+07
1.32221e+07
1.64227e+07
2.55239e+06
2.11151e+06
2.15786e+06
2.20748e+06
2.288e+06
2.42513e+06
2.67233e+06
2.99981e+06
3.27231e+06
3.37432e+06
3.35201e+06
3.12469e+06
1.03173e+07
9.01162e+06
7.69858e+06
7.94813e+06
1.58571e+06
2.07275e+06
2.39894e+06
2.57542e+06
476999
708969
1.04634e+06
1.33715e+06
1.55785e+06
1.7617e+06
2.00518e+06
2.31788e+06
2.66075e+06
2.95984e+06
3.10426e+06
3.02143e+06
8.35223e+06
6.23125e+06
4.37522e+06
2.1055e+06
1.71215e+06
2.13915e+06
2.41833e+06
2.1417e+06
776290
404741
486630
691159
940145
1.16965e+06
1.41307e+06
1.72173e+06
2.0735e+06
2.41579e+06
2.72033e+06
2.79031e+06
6.8824e+06
4.78976e+06
3.29845e+06
2.16713e+06
1.86913e+06
2.16964e+06
2.38414e+06
2.19342e+06
1.13847e+06
513943
387152
421496
551612
755975
998061
1.28329e+06
1.60063e+06
1.92088e+06
2.23349e+06
2.47699e+06
5.88233e+06
4.25343e+06
3.31326e+06
2.40735e+06
2.15337e+06
2.27459e+06
2.4011e+06
2.25365e+06
1.43316e+06
757037
438737
423004
451696
561402
744013
966052
1.22533e+06
1.50533e+06
1.78557e+06
2.12299e+06
5.15444e+06
3.90121e+06
3.37676e+06
2.72481e+06
2.59849e+06
2.53822e+06
2.48285e+06
2.34643e+06
1.65437e+06
1.0301e+06
601437
467547
471455
507764
586402
722370
926081
1.17413e+06
1.43221e+06
1.80485e+06
4.65408e+06
3.63315e+06
3.44345e+06
2.98969e+06
3.09186e+06
2.95973e+06
2.70835e+06
2.49419e+06
1.86123e+06
1.27256e+06
832915
606886
530615
513512
517971
567515
709855
931317
1.16686e+06
1.52762e+06
4.26278e+06
3.40541e+06
3.42206e+06
3.16741e+06
3.42157e+06
3.32633e+06
3.04707e+06
2.7481e+06
2.108e+06
1.52795e+06
1.09663e+06
817391
638763
535049
518533
553378
643077
799803
982494
1.30836e+06
3.91987e+06
3.17807e+06
3.32204e+06
3.16353e+06
3.42101e+06
3.45142e+06
3.34277e+06
3.06976e+06
2.41891e+06
1.84354e+06
1.39847e+06
1.06402e+06
803167
615230
569263
588926
654539
753448
887851
1.13376e+06
3.65525e+06
2.97904e+06
3.16797e+06
3.1187e+06
3.357e+06
3.42553e+06
3.44524e+06
3.33255e+06
2.75765e+06
2.19552e+06
1.72663e+06
1.34212e+06
1.02869e+06
789489
684247
677362
694910
753981
844823
957708
3.41476e+06
2.78936e+06
2.98831e+06
3.02361e+06
3.22202e+06
3.33048e+06
3.41842e+06
3.41943e+06
3.05106e+06
2.53984e+06
2.05509e+06
1.63467e+06
1.2913e+06
1.03231e+06
870095
793694
776666
795342
798144
832328
3.19502e+06
2.61325e+06
2.81051e+06
2.89797e+06
3.05493e+06
3.17022e+06
3.308e+06
3.39165e+06
3.17543e+06
2.83725e+06
2.37621e+06
1.92833e+06
1.56299e+06
1.28281e+06
1.07421e+06
952187
890486
819418
774121
832355
2.82179e+06
2.31156e+06
2.49872e+06
2.62274e+06
2.7268e+06
2.8177e+06
2.95308e+06
3.14732e+06
3.07693e+06
2.87712e+06
2.59452e+06
2.25421e+06
1.9368e+06
1.6535e+06
1.41938e+06
1.22788e+06
1.03677e+06
876373
860881
1.14302e+06
1.26331e+07
1.46475e+07
1.57293e+07
1.58231e+07
1.5517e+07
1.51144e+07
1.41124e+07
1.22714e+07
9.99864e+06
8.11163e+06
6.69405e+06
5.72593e+06
5.02253e+06
4.53397e+06
4.15137e+06
3.81215e+06
3.54298e+06
3.29797e+06
3.07807e+06
2.70494e+06
1.46364e+07
1.6696e+07
1.77679e+07
1.64205e+07
1.58123e+07
1.60285e+07
1.51484e+07
1.25081e+07
8.79975e+06
6.11966e+06
4.69073e+06
4.17003e+06
3.8503e+06
3.59699e+06
3.37093e+06
3.14154e+06
2.93341e+06
2.73471e+06
2.55408e+06
2.24667e+06
1.57055e+07
1.77316e+07
1.84204e+07
1.50707e+07
1.47873e+07
1.64501e+07
1.61095e+07
1.27964e+07
7.55863e+06
4.36554e+06
3.28119e+06
3.26364e+06
3.30912e+06
3.37991e+06
3.36635e+06
3.28034e+06
3.1341e+06
2.95388e+06
2.77355e+06
2.45517e+06
1.58073e+07
1.63752e+07
1.4884e+07
1.23727e+07
1.30056e+07
1.73793e+07
1.84127e+07
1.58708e+07
7.69726e+06
2.07532e+06
2.14395e+06
2.38984e+06
2.72337e+06
2.97297e+06
3.1185e+06
3.1099e+06
3.05844e+06
2.9572e+06
2.82819e+06
2.54886e+06
1.55105e+07
1.57373e+07
1.44385e+07
1.21735e+07
1.44378e+06
1.61149e+06
1.76919e+06
2.02126e+06
2.41863e+06
2.89397e+06
3.30139e+06
3.36584e+06
3.32245e+06
3.20433e+06
3.03624e+06
2.69207e+06
1.50767e+07
1.59139e+07
1.623e+07
1.71986e+07
1.93973e+06
2.00583e+06
2.03113e+06
2.11935e+06
2.32329e+06
2.72682e+06
3.16318e+06
3.37889e+06
3.3631e+06
3.28093e+06
3.12691e+06
2.77061e+06
1.39784e+07
1.49691e+07
1.59236e+07
1.82179e+07
2.22775e+06
2.26165e+06
2.22267e+06
2.23346e+06
2.29312e+06
2.46664e+06
2.79888e+06
3.14113e+06
3.31093e+06
3.29891e+06
3.21669e+06
2.89303e+06
1.20694e+07
1.22611e+07
1.25752e+07
1.56511e+07
2.40286e+06
1.98137e+06
2.03706e+06
2.08475e+06
2.15817e+06
2.2684e+06
2.46333e+06
2.76701e+06
3.07516e+06
3.23428e+06
3.22394e+06
3.04121e+06
9.76157e+06
8.52464e+06
7.3026e+06
7.41867e+06
1.40623e+06
1.9116e+06
2.25093e+06
2.41512e+06
433897
664431
978135
1.2518e+06
1.45816e+06
1.62978e+06
1.83e+06
2.1023e+06
2.42342e+06
2.72835e+06
2.93409e+06
2.8913e+06
7.88198e+06
5.86398e+06
4.11892e+06
1.90313e+06
1.51908e+06
1.96923e+06
2.26367e+06
1.97048e+06
675511
352050
434407
629130
863577
1.0754e+06
1.27714e+06
1.53351e+06
1.84936e+06
2.1756e+06
2.49417e+06
2.6363e+06
6.48387e+06
4.44834e+06
3.01282e+06
1.95448e+06
1.66084e+06
1.99126e+06
2.21762e+06
2.02781e+06
1.00905e+06
449036
330296
361115
483231
675946
886706
1.12307e+06
1.40213e+06
1.70458e+06
2.01548e+06
2.30582e+06
5.54814e+06
3.98236e+06
3.05947e+06
2.17985e+06
1.91056e+06
2.0768e+06
2.22641e+06
2.07904e+06
1.29231e+06
667727
371177
363986
393510
494743
656235
842774
1.0663e+06
1.32639e+06
1.59886e+06
1.95458e+06
4.873e+06
3.70116e+06
3.15593e+06
2.5263e+06
2.30877e+06
2.28389e+06
2.28286e+06
2.15852e+06
1.50181e+06
916350
514736
404978
410056
443773
516197
633131
808390
1.03216e+06
1.27323e+06
1.64714e+06
4.40661e+06
3.47285e+06
3.2591e+06
2.82728e+06
2.79462e+06
2.68251e+06
2.45524e+06
2.27611e+06
1.67806e+06
1.13567e+06
725411
527012
460124
449810
457273
498107
612534
804953
1.02732e+06
1.38576e+06
4.04227e+06
3.26665e+06
3.26592e+06
3.03888e+06
3.22147e+06
3.09274e+06
2.77475e+06
2.47289e+06
1.88391e+06
1.34878e+06
951885
708172
552415
471278
449412
468627
538249
678945
854502
1.17623e+06
3.71894e+06
3.05463e+06
3.19781e+06
3.05187e+06
3.30331e+06
3.30847e+06
3.10029e+06
2.77224e+06
2.155e+06
1.61602e+06
1.20736e+06
916398
689172
530807
478208
491376
546569
643723
770957
1.01969e+06
3.46444e+06
2.86103e+06
3.06709e+06
3.01228e+06
3.26377e+06
3.30068e+06
3.27337e+06
3.07527e+06
2.47213e+06
1.93645e+06
1.5025e+06
1.15945e+06
883688
668555
565713
562657
586296
646639
739952
875454
3.23282e+06
2.67435e+06
2.89742e+06
2.92284e+06
3.1525e+06
3.23216e+06
3.26582e+06
3.22569e+06
2.77573e+06
2.26336e+06
1.81174e+06
1.42985e+06
1.12303e+06
880976
730986
675253
665852
691572
712945
737775
3.02306e+06
2.50234e+06
2.72397e+06
2.79889e+06
2.99038e+06
3.08923e+06
3.18848e+06
3.21669e+06
2.96864e+06
2.57843e+06
2.12384e+06
1.70803e+06
1.37462e+06
1.11645e+06
927165
824079
777193
729671
678918
714491
2.66347e+06
2.20721e+06
2.41555e+06
2.52495e+06
2.65577e+06
2.74701e+06
2.87746e+06
3.03276e+06
2.91702e+06
2.69586e+06
2.39459e+06
2.05534e+06
1.74865e+06
1.48224e+06
1.26474e+06
1.0954e+06
935597
773193
732494
890371
1.2235e+07
1.42218e+07
1.52583e+07
1.52195e+07
1.47994e+07
1.44384e+07
1.34683e+07
1.16539e+07
9.46001e+06
7.66101e+06
6.31233e+06
5.41559e+06
4.76511e+06
4.31535e+06
3.96239e+06
3.64612e+06
3.38811e+06
3.15028e+06
2.93885e+06
2.57925e+06
1.42119e+07
1.62256e+07
1.72031e+07
1.56708e+07
1.49729e+07
1.53269e+07
1.45102e+07
1.19034e+07
8.30827e+06
5.75986e+06
4.37069e+06
3.93272e+06
3.66938e+06
3.45692e+06
3.25054e+06
3.0347e+06
2.8332e+06
2.63752e+06
2.46134e+06
2.16141e+06
1.5237e+07
1.72017e+07
1.7508e+07
1.40322e+07
1.39903e+07
1.57997e+07
1.5505e+07
1.22182e+07
7.09104e+06
4.07034e+06
2.98431e+06
3.04457e+06
3.1458e+06
3.24895e+06
3.24302e+06
3.17063e+06
3.03808e+06
2.86548e+06
2.69026e+06
2.37729e+06
1.51562e+07
1.5558e+07
1.38156e+07
1.13842e+07
1.21037e+07
1.6632e+07
1.75538e+07
1.49869e+07
6.98125e+06
1.86566e+06
1.92879e+06
2.17765e+06
2.57535e+06
2.9139e+06
3.04831e+06
3.03397e+06
2.97126e+06
2.86071e+06
2.72972e+06
2.45506e+06
1.47066e+07
1.4799e+07
1.36754e+07
1.185e+07
1.36242e+06
1.46824e+06
1.61474e+06
1.84392e+06
2.20497e+06
2.66779e+06
3.11885e+06
3.27666e+06
3.24872e+06
3.14803e+06
2.98684e+06
2.64232e+06
1.43441e+07
1.51527e+07
1.55334e+07
1.6448e+07
1.84266e+06
1.8828e+06
1.90481e+06
1.9793e+06
2.13849e+06
2.4732e+06
2.94221e+06
3.25781e+06
3.26558e+06
3.20672e+06
3.0726e+06
2.72822e+06
1.334e+07
1.43292e+07
1.52926e+07
1.73612e+07
2.14762e+06
2.14276e+06
2.09612e+06
2.09915e+06
2.13717e+06
2.25743e+06
2.53269e+06
2.9041e+06
3.14233e+06
3.14931e+06
3.0956e+06
2.82049e+06
1.1534e+07
1.17556e+07
1.20766e+07
1.48218e+07
2.30458e+06
1.8213e+06
1.88179e+06
1.93177e+06
1.99928e+06
2.09227e+06
2.24202e+06
2.49545e+06
2.82359e+06
3.03869e+06
3.04893e+06
2.9146e+06
9.33369e+06
8.19004e+06
7.01921e+06
7.05939e+06
1.28652e+06
1.76568e+06
2.11726e+06
2.25163e+06
373268
571162
863335
1.12393e+06
1.32649e+06
1.48612e+06
1.65703e+06
1.88573e+06
2.17247e+06
2.47221e+06
2.72611e+06
2.72346e+06
7.53179e+06
5.6412e+06
3.97666e+06
1.81764e+06
1.41533e+06
1.84472e+06
2.10645e+06
1.80847e+06
614447
301926
373047
548176
765835
971099
1.15313e+06
1.36358e+06
1.63626e+06
1.94264e+06
2.25827e+06
2.45665e+06
6.18078e+06
4.24722e+06
2.86986e+06
1.85001e+06
1.55075e+06
1.8641e+06
2.05971e+06
1.86731e+06
918041
395466
280486
305651
415493
597635
788103
987055
1.23185e+06
1.51711e+06
1.81392e+06
2.12557e+06
5.28208e+06
3.78971e+06
2.90097e+06
2.04786e+06
1.76826e+06
1.9348e+06
2.06273e+06
1.91307e+06
1.17582e+06
597768
317277
306345
336863
431749
577142
741021
937631
1.17646e+06
1.43051e+06
1.78047e+06
4.63671e+06
3.52554e+06
2.97642e+06
2.38821e+06
2.10782e+06
2.09338e+06
2.10088e+06
1.97786e+06
1.36773e+06
826426
444630
345096
352394
384659
453914
553367
703040
905678
1.12672e+06
1.48136e+06
4.19215e+06
3.31797e+06
3.08327e+06
2.70005e+06
2.54857e+06
2.42323e+06
2.22335e+06
2.07207e+06
1.52245e+06
1.02618e+06
635045
454128
395473
392416
401503
436940
532667
695719
892535
1.23218e+06
3.8468e+06
3.12141e+06
3.09783e+06
2.87862e+06
2.9815e+06
2.85257e+06
2.49378e+06
2.22535e+06
1.69575e+06
1.20544e+06
830579
611471
478014
411872
387909
397944
450153
568933
732543
1.04086e+06
3.53926e+06
2.91903e+06
3.04146e+06
2.89179e+06
3.14542e+06
3.13999e+06
2.83856e+06
2.48139e+06
1.92565e+06
1.42309e+06
1.04202e+06
788426
591770
457152
402067
409355
451726
541035
662974
902330
3.29298e+06
2.7323e+06
2.92698e+06
2.85268e+06
3.12474e+06
3.15407e+06
3.06338e+06
2.80017e+06
2.21004e+06
1.70087e+06
1.30042e+06
1.00059e+06
755480
566109
464071
459754
483423
544952
631539
782256
3.0682e+06
2.55128e+06
2.77019e+06
2.76708e+06
3.03586e+06
3.10352e+06
3.07263e+06
2.99799e+06
2.50444e+06
2.00527e+06
1.59192e+06
1.25076e+06
969207
743321
598899
559255
556321
580601
616099
653339
2.86898e+06
2.38797e+06
2.60848e+06
2.65393e+06
2.88844e+06
2.98286e+06
3.0247e+06
3.00581e+06
2.73984e+06
2.31858e+06
1.89122e+06
1.50864e+06
1.19644e+06
951325
777754
695856
653899
626481
583196
593880
2.5264e+06
2.1062e+06
2.31511e+06
2.40119e+06
2.56671e+06
2.66379e+06
2.7664e+06
2.8723e+06
2.72673e+06
2.49571e+06
2.18783e+06
1.85004e+06
1.5509e+06
1.29958e+06
1.10252e+06
954265
821116
676505
603371
674962
1.20166e+07
1.39765e+07
1.49967e+07
1.48815e+07
1.44584e+07
1.4118e+07
1.31507e+07
1.13399e+07
9.15891e+06
7.40088e+06
6.07701e+06
5.2092e+06
4.59108e+06
4.16691e+06
3.83568e+06
3.53804e+06
3.29283e+06
3.06323e+06
2.86031e+06
2.51346e+06
1.39484e+07
1.59004e+07
1.68074e+07
1.52241e+07
1.45746e+07
1.49988e+07
1.42014e+07
1.15985e+07
8.01674e+06
5.53022e+06
4.15769e+06
3.74295e+06
3.51497e+06
3.3336e+06
3.14912e+06
2.95117e+06
2.76183e+06
2.57326e+06
2.40395e+06
2.1146e+06
1.49361e+07
1.67942e+07
1.68921e+07
1.33481e+07
1.37092e+07
1.55243e+07
1.52302e+07
1.19418e+07
6.81658e+06
3.86651e+06
2.78933e+06
2.854e+06
2.98008e+06
3.10869e+06
3.1303e+06
3.0776e+06
2.96591e+06
2.80459e+06
2.63695e+06
2.33431e+06
1.47706e+07
1.5061e+07
1.31697e+07
1.07011e+07
1.1768e+07
1.62482e+07
1.7107e+07
1.45741e+07
6.74491e+06
1.73831e+06
1.779e+06
2.00412e+06
2.41108e+06
2.82042e+06
2.98117e+06
2.96933e+06
2.90584e+06
2.79256e+06
2.66522e+06
2.40377e+06
1.42543e+07
1.42359e+07
1.31287e+07
1.13215e+07
1.24015e+06
1.35502e+06
1.48442e+06
1.6985e+06
2.03574e+06
2.49374e+06
2.9547e+06
3.18371e+06
3.17356e+06
3.09787e+06
2.95232e+06
2.6201e+06
1.39397e+07
1.4694e+07
1.50812e+07
1.58486e+07
1.67747e+06
1.78488e+06
1.81134e+06
1.8837e+06
2.02536e+06
2.31339e+06
2.7707e+06
3.14048e+06
3.19412e+06
3.1485e+06
3.03145e+06
2.7067e+06
1.29777e+07
1.39441e+07
1.49266e+07
1.67909e+07
1.98814e+06
2.0317e+06
2.00037e+06
2.001e+06
2.0291e+06
2.12479e+06
2.35847e+06
2.72428e+06
3.00666e+06
3.04244e+06
3.00361e+06
2.76925e+06
1.12255e+07
1.1441e+07
1.17774e+07
1.43517e+07
2.13441e+06
1.69896e+06
1.76915e+06
1.81558e+06
1.87381e+06
1.95738e+06
2.09163e+06
2.32074e+06
2.64996e+06
2.89751e+06
2.93889e+06
2.8333e+06
9.09262e+06
7.97003e+06
6.80721e+06
6.69842e+06
1.21855e+06
1.66807e+06
1.97214e+06
2.08291e+06
341206
515535
786858
1.03505e+06
1.23168e+06
1.38482e+06
1.54507e+06
1.75504e+06
2.02545e+06
2.32203e+06
2.60303e+06
2.63655e+06
7.35369e+06
5.51785e+06
3.8888e+06
1.75473e+06
1.35352e+06
1.7682e+06
2.00589e+06
1.70307e+06
578578
271682
335576
496563
700625
899261
1.07402e+06
1.2635e+06
1.51371e+06
1.81215e+06
2.13151e+06
2.36858e+06
6.03641e+06
4.15746e+06
2.81138e+06
1.79836e+06
1.48662e+06
1.79438e+06
1.97618e+06
1.76728e+06
863619
362344
249216
271456
372637
544892
728413
910500
1.13488e+06
1.41236e+06
1.70976e+06
2.04397e+06
5.15666e+06
3.70773e+06
2.84393e+06
2.01169e+06
1.69993e+06
1.8666e+06
1.97994e+06
1.81419e+06
1.10429e+06
549101
282735
270693
299877
392577
530356
681418
864698
1.09607e+06
1.3475e+06
1.70478e+06
4.52866e+06
3.45373e+06
2.91442e+06
2.37375e+06
2.02747e+06
2.01114e+06
2.01409e+06
1.87621e+06
1.28448e+06
761077
399711
307144
316426
348541
414655
510968
649585
840599
1.05596e+06
1.40806e+06
4.09579e+06
3.25677e+06
3.01481e+06
2.71195e+06
2.452e+06
2.3055e+06
2.11801e+06
1.96321e+06
1.43091e+06
955041
579801
410889
355038
355346
370975
407657
492935
642209
827640
1.1586e+06
3.75779e+06
3.0631e+06
3.02844e+06
2.84921e+06
2.87758e+06
2.74087e+06
2.35805e+06
2.10188e+06
1.59354e+06
1.12663e+06
764613
555275
429653
377315
354822
360331
404777
512887
669188
971472
3.45685e+06
2.86285e+06
2.97568e+06
2.8412e+06
3.07476e+06
3.06758e+06
2.70627e+06
2.3354e+06
1.80628e+06
1.32226e+06
954321
713603
532337
416236
360927
365358
401608
484515
603184
838883
3.21377e+06
2.67666e+06
2.86559e+06
2.79037e+06
3.06231e+06
3.10119e+06
2.9573e+06
2.65392e+06
2.07367e+06
1.57573e+06
1.18863e+06
906162
678728
507359
409543
404612
425997
486550
569468
725221
2.98983e+06
2.49499e+06
2.71099e+06
2.69408e+06
2.98675e+06
3.05573e+06
2.97877e+06
2.87477e+06
2.3612e+06
1.8686e+06
1.46778e+06
1.14435e+06
878735
667613
528504
493613
492107
516206
553677
606198
2.79436e+06
2.33409e+06
2.5534e+06
2.58241e+06
2.84798e+06
2.94303e+06
2.93881e+06
2.89848e+06
2.61823e+06
2.17906e+06
1.76204e+06
1.3962e+06
1.09755e+06
861781
696254
622156
581973
558934
528014
525103
2.45995e+06
2.05857e+06
2.2676e+06
2.34116e+06
2.53425e+06
2.6335e+06
2.70773e+06
2.78755e+06
2.62815e+06
2.3901e+06
2.07983e+06
1.74484e+06
1.44738e+06
1.19857e+06
1.01063e+06
871611
747979
619208
530789
570078
1.20166e+07
1.39803e+07
1.50013e+07
1.48696e+07
1.44382e+07
1.40958e+07
1.3134e+07
1.13298e+07
9.15212e+06
7.39e+06
6.06478e+06
5.19484e+06
4.5774e+06
4.15491e+06
3.82581e+06
3.5301e+06
3.28717e+06
3.05964e+06
2.85807e+06
2.51239e+06
1.39424e+07
1.58991e+07
1.68171e+07
1.51834e+07
1.455e+07
1.49882e+07
1.41885e+07
1.15863e+07
8.01957e+06
5.53163e+06
4.15381e+06
3.7288e+06
3.49693e+06
3.31738e+06
3.13618e+06
2.94124e+06
2.75471e+06
2.56869e+06
2.40099e+06
2.11306e+06
1.49278e+07
1.67781e+07
1.68715e+07
1.32332e+07
1.37636e+07
1.55417e+07
1.52205e+07
1.19209e+07
6.83177e+06
3.89162e+06
2.80093e+06
2.85421e+06
2.96116e+06
3.08444e+06
3.11348e+06
3.0647e+06
2.95758e+06
2.80005e+06
2.63478e+06
2.33406e+06
1.47787e+07
1.50855e+07
1.31921e+07
1.05178e+07
1.1934e+07
1.61877e+07
1.69784e+07
1.44483e+07
6.65592e+06
1.7607e+06
1.80006e+06
2.0172e+06
2.4093e+06
2.80534e+06
2.96492e+06
2.95477e+06
2.89516e+06
2.78691e+06
2.66379e+06
2.40554e+06
1.42621e+07
1.42361e+07
1.30641e+07
1.09077e+07
1.18473e+06
1.36313e+06
1.49219e+06
1.70478e+06
2.03645e+06
2.48291e+06
2.93526e+06
3.17027e+06
3.16353e+06
3.09283e+06
2.95038e+06
2.61987e+06
1.39473e+07
1.46864e+07
1.50492e+07
1.57277e+07
1.64925e+06
1.79676e+06
1.8188e+06
1.88735e+06
2.02542e+06
2.30769e+06
2.75924e+06
3.12967e+06
3.19281e+06
3.14927e+06
3.03378e+06
2.71022e+06
1.29753e+07
1.39256e+07
1.48987e+07
1.664e+07
1.96193e+06
2.04291e+06
2.00618e+06
2.00597e+06
2.03247e+06
2.12558e+06
2.35572e+06
2.71735e+06
3.00173e+06
3.0418e+06
3.00468e+06
2.77356e+06
1.12196e+07
1.14218e+07
1.17468e+07
1.4198e+07
2.07518e+06
1.71412e+06
1.78065e+06
1.82497e+06
1.88044e+06
1.96168e+06
2.0942e+06
2.32128e+06
2.64828e+06
2.89691e+06
2.94155e+06
2.83707e+06
9.09112e+06
7.96654e+06
6.80474e+06
6.69388e+06
1.19166e+06
1.6453e+06
1.93414e+06
2.03562e+06
330460
533341
805944
1.04893e+06
1.24001e+06
1.39058e+06
1.54953e+06
1.75853e+06
2.0277e+06
2.32456e+06
2.60656e+06
2.64155e+06
7.35572e+06
5.51825e+06
3.8912e+06
1.74271e+06
1.35151e+06
1.76869e+06
2.00572e+06
1.68794e+06
559780
268858
338291
503933
708353
904872
1.0776e+06
1.26633e+06
1.51613e+06
1.81374e+06
2.13383e+06
2.37351e+06
6.0457e+06
4.16515e+06
2.82227e+06
1.80055e+06
1.48557e+06
1.791e+06
1.97282e+06
1.7579e+06
842326
353506
249848
274032
376338
547909
729788
911233
1.13536e+06
1.41225e+06
1.71022e+06
2.04749e+06
5.17334e+06
3.73092e+06
2.86879e+06
2.03701e+06
1.70424e+06
1.86081e+06
1.9747e+06
1.80589e+06
1.08599e+06
536549
280690
272677
302250
394941
532322
682159
863977
1.09498e+06
1.34701e+06
1.70656e+06
4.54897e+06
3.48356e+06
2.95328e+06
2.4183e+06
2.044e+06
2.00578e+06
2.00643e+06
1.86684e+06
1.26982e+06
748664
394441
306841
316900
350108
416977
511344
647949
838888
1.05438e+06
1.40756e+06
4.11768e+06
3.28739e+06
3.05526e+06
2.76239e+06
2.48043e+06
2.30678e+06
2.11042e+06
1.95191e+06
1.41656e+06
942485
572613
407169
354581
356268
371993
406399
489806
639151
824442
1.15651e+06
3.77915e+06
3.09131e+06
3.06176e+06
2.88958e+06
2.91062e+06
2.75715e+06
2.35536e+06
2.08983e+06
1.57721e+06
1.11248e+06
756944
552013
428437
376603
354049
359036
402864
510574
666984
969907
3.47622e+06
2.88729e+06
3.00493e+06
2.87649e+06
3.10382e+06
3.0933e+06
2.71455e+06
2.32468e+06
1.78911e+06
1.30651e+06
946110
710849
530800
415365
360238
364420
400511
483715
602403
837646
3.22975e+06
2.69649e+06
2.88902e+06
2.81762e+06
3.08904e+06
3.12478e+06
2.97117e+06
2.64769e+06
2.05861e+06
1.56164e+06
1.18096e+06
902707
676803
505419
408158
403701
425083
486401
569768
724453
3.00214e+06
2.51013e+06
2.72877e+06
2.71353e+06
3.00926e+06
3.07745e+06
2.9927e+06
2.87273e+06
2.34999e+06
1.85843e+06
1.46186e+06
1.14081e+06
876412
663858
525847
492921
492208
517113
554098
605441
2.80342e+06
2.34537e+06
2.56655e+06
2.59603e+06
2.86621e+06
2.96099e+06
2.95167e+06
2.90008e+06
2.61188e+06
2.17158e+06
1.75739e+06
1.39362e+06
1.09588e+06
858582
693827
621974
582934
560125
528002
524458
2.4651e+06
2.06525e+06
2.27515e+06
2.34789e+06
2.54568e+06
2.64412e+06
2.71656e+06
2.78917e+06
2.62503e+06
2.38505e+06
2.07603e+06
1.74307e+06
1.447e+06
1.19842e+06
1.01107e+06
872648
750213
621198
530807
569647
1.22365e+07
1.42323e+07
1.52769e+07
1.5204e+07
1.47847e+07
1.43964e+07
1.34182e+07
1.16066e+07
9.40568e+06
7.61513e+06
6.27457e+06
5.38264e+06
4.73784e+06
4.29245e+06
3.94564e+06
3.63484e+06
3.38201e+06
3.1484e+06
2.93949e+06
2.58117e+06
1.41907e+07
1.62023e+07
1.72027e+07
1.55945e+07
1.49654e+07
1.53122e+07
1.44722e+07
1.18484e+07
8.23383e+06
5.70303e+06
4.33143e+06
3.89242e+06
3.63027e+06
3.42249e+06
3.22302e+06
3.01475e+06
2.82019e+06
2.63044e+06
2.45809e+06
2.16093e+06
1.51924e+07
1.71212e+07
1.74235e+07
1.38107e+07
1.41505e+07
1.5849e+07
1.54879e+07
1.21548e+07
6.99763e+06
4.01383e+06
2.95593e+06
3.01191e+06
3.09784e+06
3.20151e+06
3.20841e+06
3.14592e+06
3.02331e+06
2.85812e+06
2.68786e+06
2.37885e+06
1.51448e+07
1.55487e+07
1.37465e+07
1.08231e+07
1.22126e+07
1.64742e+07
1.72572e+07
1.46994e+07
6.7514e+06
1.84524e+06
1.91042e+06
2.158e+06
2.54738e+06
2.88694e+06
3.02297e+06
3.00919e+06
2.95131e+06
2.84962e+06
2.72717e+06
2.46044e+06
1.46837e+07
1.47308e+07
1.3467e+07
1.10776e+07
1.23712e+06
1.45828e+06
1.60408e+06
1.83428e+06
2.19177e+06
2.64737e+06
3.0871e+06
3.25372e+06
3.23046e+06
3.13755e+06
2.98315e+06
2.64408e+06
1.4331e+07
1.50953e+07
1.54247e+07
1.60461e+07
1.72754e+06
1.91108e+06
1.9321e+06
2.00315e+06
2.15503e+06
2.47441e+06
2.93094e+06
3.2477e+06
3.26198e+06
3.20561e+06
3.07486e+06
2.73437e+06
1.33177e+07
1.42729e+07
1.5229e+07
1.69691e+07
2.05694e+06
2.15806e+06
2.11145e+06
2.11371e+06
2.14969e+06
2.26597e+06
2.53387e+06
2.89884e+06
3.14057e+06
3.15078e+06
3.09966e+06
2.8287e+06
1.15137e+07
1.16982e+07
1.19934e+07
1.44547e+07
2.17521e+06
1.83047e+06
1.88861e+06
1.93641e+06
2.00383e+06
2.09829e+06
2.24922e+06
2.50431e+06
2.83634e+06
3.04944e+06
3.0589e+06
2.92422e+06
9.32302e+06
8.15107e+06
6.95036e+06
6.73247e+06
1.21042e+06
1.67309e+06
2.00452e+06
2.12304e+06
350270
593447
885650
1.14192e+06
1.34128e+06
1.50162e+06
1.67501e+06
1.90438e+06
2.19182e+06
2.49218e+06
2.74441e+06
2.74035e+06
7.54005e+06
5.64354e+06
3.9756e+06
1.82204e+06
1.41187e+06
1.85339e+06
2.12133e+06
1.80377e+06
592947
298112
378643
562722
784289
988439
1.16921e+06
1.38105e+06
1.65477e+06
1.96092e+06
2.27692e+06
2.47547e+06
6.20676e+06
4.28233e+06
2.90882e+06
1.87742e+06
1.55717e+06
1.87828e+06
2.07457e+06
1.86644e+06
891122
382380
280229
309426
424552
608826
799596
1.00009e+06
1.24636e+06
1.53187e+06
1.82861e+06
2.14181e+06
5.32078e+06
3.84456e+06
2.96152e+06
2.11519e+06
1.78777e+06
1.95415e+06
2.0774e+06
1.91694e+06
1.15359e+06
575446
312107
309165
342804
443034
590128
752538
948124
1.187e+06
1.44041e+06
1.79173e+06
4.68173e+06
3.58252e+06
3.04631e+06
2.49302e+06
2.14769e+06
2.11469e+06
2.11523e+06
1.98537e+06
1.35414e+06
804647
434148
345459
356868
392329
462981
560889
709460
911824
1.13208e+06
1.488e+06
4.23938e+06
3.37302e+06
3.14915e+06
2.81344e+06
2.60489e+06
2.44936e+06
2.23706e+06
2.07961e+06
1.51373e+06
1.01104e+06
625659
452019
396784
396443
404803
438096
533401
696020
892584
1.23458e+06
3.8929e+06
3.17112e+06
3.15161e+06
2.95388e+06
3.04724e+06
2.90282e+06
2.51181e+06
2.2321e+06
1.68712e+06
1.19318e+06
823511
608446
475289
410016
385694
395978
448346
566872
731193
1.04223e+06
3.58125e+06
2.96138e+06
3.08766e+06
2.94439e+06
3.19545e+06
3.19456e+06
2.87274e+06
2.48976e+06
1.91583e+06
1.40893e+06
1.03314e+06
782595
585486
450833
399384
407100
449599
539443
660586
901978
3.3277e+06
2.76595e+06
2.96277e+06
2.89055e+06
3.16817e+06
3.19609e+06
3.09435e+06
2.8166e+06
2.20179e+06
1.68667e+06
1.2889e+06
991074
746780
559038
460707
457020
481411
543777
630078
781675
3.0951e+06
2.57663e+06
2.79643e+06
2.78939e+06
3.06977e+06
3.13755e+06
3.0962e+06
3.0107e+06
2.49865e+06
1.99473e+06
1.58103e+06
1.24071e+06
960673
735843
594290
557775
555556
580776
615722
652395
2.88892e+06
2.40644e+06
2.62703e+06
2.66686e+06
2.91287e+06
3.00656e+06
3.04212e+06
3.01493e+06
2.73754e+06
2.31143e+06
1.88428e+06
1.50278e+06
1.19025e+06
943947
773874
695913
654598
627128
582725
592637
2.5375e+06
2.11607e+06
2.32419e+06
2.40449e+06
2.57905e+06
2.67336e+06
2.77281e+06
2.87793e+06
2.72449e+06
2.49001e+06
2.18277e+06
1.84698e+06
1.54793e+06
1.29575e+06
1.10035e+06
954322
822328
677924
602627
673656
1.26498e+07
1.46855e+07
1.57715e+07
1.58264e+07
1.55027e+07
1.50548e+07
1.40307e+07
1.21812e+07
9.90512e+06
8.04888e+06
6.65854e+06
5.70894e+06
5.01462e+06
4.52948e+06
4.15029e+06
3.81459e+06