/*--------------------------------*- C++ -*----------------------------------*\
  =========                 |
  \\      /  F ield         | OpenFOAM: The Open Source CFD Toolbox
   \\    /   O peration     | Website:  https://openfoam.org
    \\  /    A nd           | Version:  9
     \\/     M anipulation  |
\*---------------------------------------------------------------------------*/
FoamFile
{
    format      ascii;
    class       surfaceScalarField;
    location    "0.0035";
    object      phi;
}
// * * * * * * * * * * * * * * * * * * * * * * * * * * * * * * * * * * * * * //

dimensions      [0 3 -1 0 0 0 0];

internalField   nonuniform List<scalar> 
28500
(
-219.537
-220.664
-45.1536
-180.401
-233.216
-40.7757
-149.295
-242.595
-37.2845
-113.087
-261.384
-44.5449
-64.1948
-294.086
-46.5238
-0.877446
-308.691
-45.5833
71.5167
-314.687
-47.8382
156.536
-318.145
-47.1877
239.627
-305.07
-46.5136
304.675
-257.928
-46.0876
353.519
-204.283
-47.4786
392.302
-165.745
-44.4972
424.729
-142.511
-48.3282
453.738
-126.801
-46.8871
482.306
-117.751
-48.4707
510.2
-113.772
-52.8354
537.716
-108.48
-53.7809
566.401
-105.052
-53.1982
596.315
-102.192
-55.0465
-99.7679
-57.0772
-231.325
-182.229
-40.679
-190.671
-193.739
-32.9798
-168.286
-202.664
-30.4177
-136.239
-236.17
-40.2061
-81.4056
-280.212
-44.9298
-9.09139
-297.95
-43.7276
74.2938
-300.511
-45.5285
179.654
-305.592
-44.3597
290.885
-277.34
-42.8199
363.69
-206.745
-41.2542
405.395
-142.747
-44.1814
431.71
-96.2232
-39.7997
454.668
-65.6812
-44.6714
477.334
-48.3885
-44.6775
500.285
-41.9002
-46.8306
524.345
-40.8604
-52.2615
549.338
-40.061
-55.5587
575.837
-39.6763
-55.7029
603.675
-39.4235
-58.326
-39.7168
-61.3682
-241.084
-150.344
-36.1825
-200.095
-169.857
-29.0795
-192.781
-193.47
-29.1843
-168.505
-55.3787
-35.884
-59.508
-56.2404
-60.9078
-97.3042
-69.0519
-44.2562
-69.0015
-70.4978
-69.957
-15.2356
-70.4527
-42.9625
-71.913
-71.3018
-72.6574
76.6716
-70.3312
-42.3887
-69.6988
-71.1185
-70.7576
202.016
-71.1412
-40.5307
-71.3304
-71.8648
-72.1577
337.223
-63.2912
-39.9718
-52.1986
-64.1461
-52.8638
406.883
-137.313
-36.2651
434.034
-84.3451
-40.9509
448.166
-45.4873
-37.8078
463.112
-17.079
-37.8461
481.663
-4.7146
-33.2754
503.612
4.19128
-33.5811
527.636
7.60382
-37.2404
553.173
9.29546
-41.2501
580.026
10.2613
-43.5879
608.184
10.5569
-48.9031
9.83483
-54.0532
-261.121
-112.749
-41.464
-236.308
-136.273
-35.6314
-55.3123
-169.794
-31.1804
-60.275
-56.0266
-60.4666
-56.6758
-56.8214
-9.19767
-38.6304
-12.7923
51.4158
-16.4098
-16.4259
-16.4116
-16.4068
26.7573
-13.373
-11.7373
-17.1647
-16.7224
-16.8216
-17.1063
2.83382
7.94457
-11.7521
-17.2517
-16.9942
-17.0376
-17.1742
-20.4267
33.9301
-11.6454
-17.3837
-17.0073
-17.064
-17.2955
-60.6502
82.0193
-56.4708
-11.4308
457.635
-59.0671
-36.4812
-105.22
-110.387
-105.195
-110.77
460.041
-32.1204
-42.5853
457.606
-10.7034
-44.1232
466.072
15.2363
-48.3413
482.644
34.8661
-45.0532
503.871
44.4068
-42.6144
526.92
50.1379
-43.6432
551.939
51.7254
-44.8592
579.322
52.3797
-43.8874
608.127
52.0187
-46.8063
51.5263
-52.6518
-293.158
-63.3813
-43.7413
-278.648
-81.0641
-41.5229
-69.3435
-98.3104
-40.3487
-68.6259
-69.7697
-69.2005
-38.8398
-10.512
53.2082
-16.5752
-17.2399
-17.3494
-16.5568
2.52881
27.5003
-0.849311
-3.4848
504.141
6.28306
-47.4722
-119.544
-129.798
-120.226
-131.733
497.692
10.9853
-50.7558
484.009
19.6123
-51.0275
471.315
33.9349
-50.9007
475.291
51.8303
-44.2501
489.984
66.2232
-44.0428
509.644
76.6707
-46.508
533.272
81.6123
-47.9529
560.331
85.0505
-47.7738
589.31
85.6896
-53.5507
86.2717
-60.8215
-307.655
0.150223
-44.7792
-297.494
-7.76531
-42.7996
-71.0305
-13.8695
-41.8251
-71.9671
-71.9523
-72.6983
27.0616
-13.3087
-11.1941
-17.3271
-16.9427
-17.0133
-17.2696
-0.33517
33.4978
1.17909
-3.01457
562.991
63.1828
-51.6698
-137.069
-141.322
-139.91
-144.46
560.454
61.6095
-52.3612
550.453
65.2433
-52.2496
528.101
69.9156
-52.377
512.165
81.8053
-47.7316
515.272
98.9798
-46.9781
527.059
110.855
-49.2678
544.722
116.787
-50.623
567.622
121.529
-51.4019
594.103
122.22
-57.877
121.95
-65.2347
-314.105
73.191
-47.8104
-300.57
76.9486
-46.0003
-70.4525
80.546
-43.2124
-69.8483
-71.2386
-70.85
2.44401
8.5518
-11.8207
-17.2749
-17.0132
-17.0554
-17.1907
-3.61405
35.9082
4.40097
-3.03326
602.195
126.951
-52.1904
-146.437
-150.776
-149.832
-153.931
600.664
126.104
-53.0848
595.702
125.16
-53.2233
583.978
127.091
-54.211
565.59
129.744
-51.0748
555.109
136.884
-48.2811
557.625
145.398
-50.1306
566.74
149.628
-50.9433
581.963
152.687
-51.3878
602.83
153.837
-56.5872
154.366
-64.0959
-316.955
158.128
-48.7842
-304.416
182.069
-46.9667
-70.9535
205.253
-44.1525
-70.9398
-71.7048
-71.7388
-21.6325
35.632
-12.0747
-17.3015
-16.9968
-17.0649
-17.1902
-6.62662
38.2757
7.58056
-3.26838
644.851
213.118
-49.2063
-156.47
-158.768
-159.617
-161.769
650.604
205.893
-51.1548
652.369
195.93
-52.7866
650.858
190.645
-52.231
642.578
190.517
-50.9731
627.446
189.56
-47.9981
617.297
190.348
-46.2708
616.566
190.321
-50.307
620.826
188.954
-51.7058
630.397
188.968
-54.4789
187.625
-59.6991
-302.34
240.403
-49.484
-274.119
292.028
-48.0259
-62.3557
338.517
-48.1972
-50.6137
-63.5238
-52.6276
-61.2593
-55.6216
83.3994
-12.8649
5.62431
-0.543777
29.339
-5.49664
-0.344974
1.17711
33.4312
-3.13875
-3.56275
4.35417
35.7234
-3.12681
-6.59581
7.55343
38.0141
-3.08923
-12.7855
-15.2044
137.84
145.014
-13.916
-19.506
-11.6961
-18.461
-20.3932
-17.07
-21.3072
624.469
424.149
-46.3582
-148.732
-136.707
-150.664
-137.952
643.579
365.8
-53.2462
656.752
336.772
-50.0101
666.979
314.249
-50.3314
670.677
293.42
-51.0664
666.393
277.729
-49.1833
656.304
271.071
-47.024
652.866
260.534
-46.4021
655.317
250.929
-47.9278
661.243
242.573
-51.9999
234.706
-56.7112
-254.582
304.545
-49.7076
-203.476
363.157
-47.5921
-134.293
406.048
-45.7424
-59.785
454.073
-46.3128
-105.025
-110.366
-104.869
-110.109
4.36603
498.938
-52.6516
-119.26
-129.297
-119.167
-130.119
61.4418
555.545
-53.3632
-136.271
-140.369
-136.942
-141.256
125.757
594.614
-52.1009
-145.293
-149.637
-146.787
-151.279
218.64
638.13
-46.6336
-155.76
-158.906
-157.993
-161.723
405.619
627.227
-43.765
-151.331
-142.497
-154.444
-143.995
532.717
545.363
-54.7682
593.2
470.722
-38.4072
626.282
428.125
-37.4498
649.977
405.622
-45.52
668.438
383.742
-54.4724
676.98
361.639
-56.6041
676.77
345.369
-49.2826
676.447
329.735
-43.3025
679.191
316.839
-42.2022
686.071
302.097
-45.9872
288.372
-52.9837
-200.953
352.757
-51.1496
-139.83
403.879
-49.6944
-83.0168
432.213
-48.2962
-32.7709
456.235
-49.9832
9.71847
492.238
-53.4096
60.3918
553.056
-53.3166
124.941
593.221
-52.2602
206.87
643.14
-48.6984
353.964
643.661
-46.6142
453.04
597.629
-41.5079
534.066
545.242
-37.9068
583.664
490.314
-38.8328
615.382
460.698
-49.1249
641.766
444.981
-54.3424
664.418
431.099
-52.137
676.336
415.457
-44.2066
683.955
396.272
-37.5676
690.036
381.94
-35.9378
698.025
365.294
-39.909
344.921
-49.8784
-163.383
391.318
-48.1788
-94.1853
430.107
-44.7961
-44.8193
446.469
-43.8097
-11.1665
455.547
-48.5494
18.7206
479.244
-51.6629
64.1252
543.463
-52.4247
123.69
588.715
-51.7116
194.37
644.779
-50.0409
331.279
654.666
-42.9121
420.009
629.565
-32.3988
479.84
590.52
-41.3709
533.845
544.194
-39.0407
573.831
500.345
-40.7061
606.754
485.121
-34.9688
636.286
481.942
-30.4554
657.806
476.249
-33.6099
673.842
457.038
-33.8688
685.758
442.024
-34.9461
697.192
424.717
-40.6356
400.853
-50.4965
-140.803
423.734
-51.9867
-64.1626
453.239
-49.3648
-17.4207
461.701
-42.4931
14.5021
464.789
-50.3854
33.1797
468.753
-50.5657
68.7828
522.905
-52.0602
125.29
578.041
-52.079
188.563
643.494
-49.1234
308.527
663.265
-43.0862
401.885
651.191
-37.5215
458.323
620.806
-44.8391
493.993
581.184
-41.5836
537.316
544.417
-34.3044
577.26
521.407
-19.8437
610.23
515.086
-24.8298
639.734
514.41
-36.4944
658.62
501.784
-37.618
673.415
491.988
-41.6451
687.371
476.388
-43.6542
452.069
-48.6792
-125.58
452.787
-50.2439
-47.4947
476.046
-48.9067
-4.74205
480.472
-37.2757
33.5538
481.437
-46.6549
50.3833
473.718
-44.6466
80.4069
509.684
-47.4258
127.787
561.73
-48.8554
187.677
635.758
-47.4568
288.094
665.958
-44.1965
379.546
667.476
-46.2439
445.169
644.765
-47.3142
486.22
611.745
-31.8289
519.835
581.799
-18.8541
553.539
557.43
-11.8321
589.674
544.3
-30.8644
616.968
540.963
-47.5559
631.66
535.161
-45.3821
647.534
530.521
-48.97
667.61
517.185
-41.268
497.569
-40.6645
-116.852
481.453
-51.4495
-41.3406
499.203
-50.5138
4.22307
502.605
-37.208
43.4573
502.822
-44.7582
64.2146
488.914
-45.4459
96.554
513.51
-46.6391
134.712
553.539
-46.6398
186.252
622.337
-44.1842
273.461
661.446
-43.1812
357.051
673.944
-48.3344
428.731
664.162
-43.3062
483.241
638.959
-23.2577
517.123
613.77
-19.4544
542.277
594.3
-28.348
576.84
580.818
-52.5974
599.303
568.804
-60.8343
620.302
557.819
-52.6252
641.471
552.858
-43.8224
665.427
551.202
-24.6621
542.754
-27.004
-113.065
509.46
-55.5042
-40.4587
523.472
-55.5468
7.62492
526.845
-40.7491
49.3529
526.098
-45.9688
74.7288
508.929
-48.4197
107.654
525.71
-49.1413
142.479
556.811
-48.4717
187.09
614.916
-43.6028
266.174
652.836
-41.7436
340.399
673.517
-41.8097
411.356
674.861
-35.6395
475.113
658.37
-24.9691
517.623
642.114
-27.2944
544.11
621.501
-39.4237
568.804
602.592
-57.0627
588.689
589.047
-51.9128
610.389
578.931
-39.1513
634.632
578.748
-22.2225
653.479
586.603
-10.8542
585.138
-24.8032
-107.854
537.055
-56.0378
-39.6453
548.588
-58.2814
9.51017
552.55
-44.2399
50.7081
551.278
-47.1737
79.569
532.792
-49.8741
113.892
543.488
-50.3403
146.375
566.427
-49.3984
186.517
615.197
-47.509
255.372
650.896
-42.0923
324.183
674.149
-37.1417
391.576
682.58
-30.0734
454.767
674.035
-24.8085
503.282
661.615
-27.8479
538.144
636.965
-37.0872
561.431
622.48
-46.6126
582.929
609.849
-35.57
611.727
607.154
-20.5077
636.28
609.113
-6.384
653.018
613.541
-14.0575
620.829
-38.6788
-104.495
565.835
-55.2248
-39.2489
575.205
-58.0758
10.5813
579.533
-46.125
51.3977
578.82
-46.0151
83.0722
559.985
-49.6495
118.657
566.229
-50.8876
149.761
581.968
-49.6985
186.097
619.998
-48.7324
246.171
654.236
-44.2659
311.246
677.673
-37.045
377.007
689.114
-29.309
438.926
686.336
-26.3014
491.522
676.923
-32.3137
532.392
652.992
-40.2915
558.516
644.223
-35.9074
586.412
634.256
-15.954
613.879
634.188
-2.92082
631.596
629.158
-8.64766
657.461
641.948
-34.4725
654.936
-54.4246
-101.581
595.861
-56.8554
-39.0525
603.163
-60.338
10.7135
607.788
-50.9709
51.0963
607.777
-48.8294
83.8911
589.097
-55.4363
119.283
592.457
-57.8119
151.152
602.925
-54.8125
186.7
630.125
-51.3712
238.563
660.463
-48.3151
296.888
684.962
-41.5682
360.171
697.73
-34.0575
420.877
698.448
-33.0503
474.217
691.33
-35.388
516.829
672.958
-32.7993
553.374
668.504
-16.0319
590.686
654.083
-2.73543
617.963
652.971
-8.27773
645.37
656.257
-31.0055
684.019
680.874
-52.5129
666.391
-50.8582
-99.1602
-58.6866
-39.3755
-63.0442
9.9542
-55.6606
50.7883
-54.5509
84.8039
-62.5114
119.281
-65.6597
151.682
-62.4963
185.626
-56.6788
231.631
-52.9689
284.445
-48.8316
340.355
-44.8871
396.482
-44.3876
448.48
-41.9926
495.057
-33.4546
541.931
-19.0603
586.354
-16.3818
623.488
-30.8785
658.47
-48.3013
671.148
-48.4739
-38.8991
-221.794
-223.182
-30.4558
-182.149
-236.251
-26.9089
-151.717
-245.734
-23.9079
-115.822
-269.989
-28.4104
-65.6943
-302.564
-29.9659
-1.00587
-317.04
-30.0531
71.774
-322.306
-31.5657
157.107
-325.523
-31.1965
240.959
-311.841
-30.2259
306.463
-264.319
-29.2917
355.386
-210.173
-29.7925
393.925
-168.981
-27.0951
426.123
-144.814
-30.5326
454.785
-128.597
-29.8274
483.215
-119.61
-31.404
510.879
-115.876
-34.6567
537.982
-110.667
-35.6175
566.273
-107.195
-35.58
595.927
-104.148
-37.0993
-101.607
-38.976
-233.823
-184.268
-26.9872
-192.407
-196.309
-20.5426
-172.791
-208.718
-18.0991
-141.335
-246.025
-22.6422
-82.8597
-292.949
-27.4889
-9.12995
-308.199
-28.1812
74.6916
-309.567
-29.6778
180.724
-313.461
-29.196
292.885
-284.799
-26.7823
366.544
-213.946
-24.8434
408.477
-150.141
-25.8233
434.093
-102.34
-21.6718
456.463
-70.0292
-26.7418
478.75
-50.8569
-27.948
501.631
-44.4225
-30.3876
525.618
-43.3153
-34.6486
550.267
-42.404
-37.4665
576.306
-41.9396
-38.0594
603.8
-41.7771
-40.2535
-42.0923
-42.996
-243.673
-152.302
-23.7354
-205.01
-173.837
-17.891
-202.135
-201.739
-16.3218
-175.918
-58.9617
-18.3639
-64.2284
-60.0419
-64.9859
-97.8093
-73.1694
-26.6032
-72.4857
-73.6718
-72.7859
-14.8079
-73.2659
-28.5312
-74.558
-73.7877
-74.9028
77.7512
-72.932
-28.5143
-72.4336
-73.1016
-72.9879
204.676
-73.4009
-27.6913
-73.5879
-73.599
-73.5371
339.64
-65.1704
-23.6868
-54.3395
-64.7236
-53.5792
410.67
-142.314
-20.1177
439.017
-90.2643
-22.814
451.801
-52.6807
-18.0575
465.211
-22.4761
-19.0644
482.728
-8.13989
-17.126
504.098
1.07131
-18.9286
528.205
4.92502
-23.1409
553.771
6.74072
-27.12
580.512
7.79637
-29.6188
608.572
7.67431
-34.2957
6.81522
-38.8572
-267.772
-114.859
-27.3023
-244.048
-140.333
-22.0356
-58.7823
-175.415
-18.3837
-63.8395
-60.4635
-64.5837
7.18852
-59.8002
-59.1594
-6.52494
10.8075
-37.8966
-9.02538
55.3605
-17.5188
-18.2469
-17.4821
-18.3436
9.96542
26.1351
-13.1206
-8.67435
-17.9833
-17.7091
-17.9351
-17.7978
9.81437
2.57561
8.25767
-8.50813
-18.0234
-17.769
-17.9683
-17.8044
9.43533
-21.0137
34.5817
-7.99036
-18.0415
-17.7894
-18.0803
-17.8331
-61.428
7.70737
82.7697
-59.0103
-6.34911
461.265
-61.909
-13.862
-105.412
-110.035
-105.403
-110.455
468.651
-35.3095
-21.8929
465.427
-14.394
-22.4072
470.869
8.55235
-26.0618
485.184
30.0145
-25.5917
505.056
40.769
-25.5279
527.365
47.4958
-28.0433
551.905
49.2114
-30.6351
578.932
50.0376
-31.2878
607.677
49.4033
-34.6629
48.4173
-39.554
-300.016
-64.8191
-28.6637
-288.77
-82.8812
-26.4424
-71.3598
-99.8166
-26.68
-71.3118
-71.7718
-71.7325
9.06465
-39.4458
-8.53663
53.4147
-16.7235
-16.7999
-16.8135
-16.781
1.92354
3.5416
27.094
-1.23049
-1.4457
514.919
5.08013
-34.8042
-121.349
-134.25
-122.06
-135.163
509.761
9.25342
-34.9389
498.301
17.837
-33.9913
483.424
29.8655
-33.223
483.293
47.5711
-27.2968
495.022
61.9597
-28.3569
513.013
72.0639
-31.8955
535.494
77.3987
-34.8914
561.768
81.4244
-36.2743
590.468
82.3425
-41.7026
82.3175
-47.4783
-316.097
-0.58169
-28.6454
-307.925
-9.03446
-26.7368
-73.8264
-15.023
-27.0821
-74.5993
-74.0076
-74.9316
9.30714
27.1887
-13.3049
-8.17043
-18.107
-17.8544
-18.0789
-17.9183
2.66711
-0.143922
35.1129
0.997576
-2.57335
585.261
62.512
-40.3878
-143.774
-148.513
-145.144
-150.225
580.659
60.0574
-39.2375
570.832
62.9666
-37.7334
549.998
67.7204
-35.9033
528.15
77.1353
-30.1664
526.468
93.9497
-30.6579
535.824
106.449
-34.7344
551.293
112.641
-37.5573
572.497
117.871
-39.1967
598.022
118.955
-44.6912
117.764
-50.7619
-322.075
72.7208
-30.9502
-309.701
76.0802
-29.3101
-72.9334
78.8816
-28.4369
-72.4052
-72.9969
-72.832
9.83437
2.47209
8.40072
-8.4642
-18.0299
-17.7813
-17.9812
-17.812
2.62523
-3.42265
37.7512
4.19589
-2.53378
628.133
126.967
-39.2184
-154.061
-158.115
-155.849
-160.059
625.63
125.561
-37.7108
620.331
124.279
-36.4566
609.41
125.578
-36.0197
590.291
127.797
-32.5148
573.415
133.557
-27.9601
571.961
143.034
-31.4786
578.708
146.632
-35.4346
591.665
149.544
-36.9294
610.711
150.569
-41.4975
149.898
-48.145
-325.445
158.041
-31.6549
-313.834
182.296
-30.1794
-73.3378
205.871
-29.6239
-73.3727
-73.7069
-73.4865
10.055
-21.4015
35.3032
-8.6295
-17.9733
-17.7884
-17.9481
-17.7968
2.71988
-6.36993
40.0946
7.31006
-2.58229
670.057
216.057
-36.1285
-163.617
-165.761
-165.716
-167.952
675.191
206.818
-35.866
676.881
197.775
-34.1807
674.809
190.61
-33.2173
667.009
189.012
-32.0634
651.865
188.288
-29.7246
637.485
189.902
-26.2802
634.706
188.542
-30.788
637.569
186.482
-35.2578
645.153
186.176
-38.8847
184.144
-43.7756
-310.717
241.51
-32.2114
-283.572
294.254
-30.6541
-63.6206
340.831
-31.2675
-53.0397
-64.2842
-53.4266
-60.8677
9.34252
-58.2027
82.7994
-8.96815
2.20496
5.88802
-0.902505
28.4458
-3.31458
2.80909
-0.0392661
0.832885
34.0866
-2.66247
2.76888
-3.21637
3.96181
36.7698
-2.638
2.61693
-6.16971
7.09962
39.4612
-2.47311
-11.7303
-16.2106
10.5835
141.067
150.819
-8.15071
-18.5633
-11.7124
-18.4852
-21.5443
-16.013
-21.4379
648.46
433.893
-28.4243
-154.432
-140.83
-156.889
-143.905
666.997
368.092
-31.3614
679.424
337.93
-31.0099
688.996
315.702
-31.8436
693.327
295.439
-32.8312
689.818
278.594
-30.0802
679.205
270.46
-26.7355
672.56
260.512
-26.0361
673
250.591
-29.0383
678.391
242.124
-35.4572
233.388
-41.2063
-262.421
306.288
-32.314
-212.344
366.472
-30.2125
-140.068
410.304
-28.9331
-62.761
458.109
-25.3499
-105.101
-110.237
-105.034
-110.156
0.396929
507.464
-37.5671
-119.959
-131.605
-121.028
-132.982
56.1649
572.884
-40.3019
-139.771
-144.475
-142.299
-147.454
122.252
620.193
-37.0452
-150.949
-155.833
-154.185
-159.295
222.278
665.953
-31.6494
-162.8
-166.636
-166.289
-170.309
415.637
653.755
-23.0048
-158.537
-148.098
-162.292
-149.367
550.078
563.185
-38.7179
610.733
480.113
-22.5973
646.074
434.896
-23.4204
671.166
410.11
-27.8928
688.889
386.693
-29.5912
697.688
363.006
-32.2438
697.278
345.528
-28.711
695.543
329.45
-24.6042
696.982
316.597
-24.5702
702.846
303.092
-29.276
288.354
-36.9975
-207.49
354.73
-33.4427
-148.605
407.425
-31.5713
-90.1658
437.744
-30.4921
-36.4044
465.297
-30.6908
5.82338
501.897
-37.1789
54.7159
569.212
-39.253
120.787
616.992
-36.2059
206.754
669.116
-32.1876
357.135
667.284
-26.0472
462.764
615.231
-21.1791
550.208
560.176
-28.6258
604.154
503.515
-23.6103
635.18
465.748
-20.0612
659.147
445.15
-24.3655
680.479
430.284
-30.693
693.517
415.992
-28.7465
701.901
397.079
-23.2243
707.952
382.53
-20.1496
714.679
366.909
-22.5797
345.956
-32.04
-166.988
393.154
-31.088
-101.118
432.886
-27.4146
-53.4307
450.643
-25.0066
-15.6281
463.312
-29.2447
14.9697
489.897
-35.9289
58.137
559.941
-37.7529
119.963
611.255
-35.1264
194.259
670.131
-31.7565
332.104
676.492
-26.0516
425.682
646.801
-19.3789
491.496
607.829
-25.0777
548.38
556.487
-13.5934
588.012
505.631
-6.23638
618.106
483.617
-12.7658
648.21
480.927
-17.7905
674
478.798
-21.213
691.527
460.59
-19.8209
703.316
444.527
-16.7641
713.028
426.222
-19.9453
401.376
-30.5214
-143.295
425.381
-34.5332
-68.7719
455.451
-32.0664
-23.6157
464.182
-25.4077
7.90392
469.302
-30.6001
27.8336
476.88
-35.1818
63.4734
539.475
-36.3401
121.243
600.352
-35.0543
186.203
667.834
-31.3933
308.948
684.699
-27.9656
405.043
669.091
-24.2173
461.874
635.993
-20.1166
499.107
592.265
-8.55829
542.826
548.292
-13.4656
583.531
522.005
-11.0237
621.34
517.95
-13.0013
654.979
519.042
-18.4963
674.74
504.791
-17.646
689.041
492.532
-18.6057
701.86
475.437
-21.5449
451.092
-29.4556
-127.461
454.055
-33.5563
-50.1279
477.822
-32.586
-7.93296
481.843
-22.6326
29.9252
483.652
-28.1269
45.4851
478.568
-29.6157
73.8337
520.213
-31.5572
123.477
582.102
-32.1869
184.371
660.043
-30.4086
289.013
688.444
-30.0662
381.316
685.54
-27.4615
445.033
658.417
-23.2744
485.236
619.686
-12.3084
521.279
585.534
-10.5936
559.985
562.014
-0.479135
598.605
549.383
-3.57787
628.679
542.913
-15.6896
644.611
532.18
-17.6069
659.264
527.563
-25.7107
676.304
515.247
-23.4163
496.206
-25.7216
-118.758
482.526
-34.7301
-43.9642
500.818
-34.2056
1.2972
503.179
-23.3702
39.9521
503.821
-28.1459
59.5754
491.685
-30.6251
90.5975
520.078
-32.369
129.519
567.219
-28.785
183.652
645.243
-28.1002
272.994
684.866
-28.0009
357.648
693.621
-30.3816
428.09
678.481
-27.3068
482.386
648.174
-12.9302
520.786
621.763
-10.3669
548.709
599.868
-4.05981
582.048
584.57
-19.6089
605.909
569.422
-32.1732
625.603
555.794
-30.6576
645.765
550.276
-28.6203
670.618
549.13
-13.3809
541.056
-14.5329
-115.206
510.229
-37.5864
-42.9532
524.911
-37.8817
5.16405
527.463
-26.8355
46.1785
526.486
-30.6256
69.8002
510.63
-34.086
102.997
530.478
-36.2756
138.631
566.874
-32.3545
184.912
632.41
-25.4034
264.903
674.837
-24.8848
339.783
693.058
-25.5505
411.396
690.586
-23.7283
476.569
671.563
-15.4459
522.169
653.385
-14.4934
546.757
628.8
-12.4049
570.16
606.97
-30.201
590.34
589.19
-31.6354
611.284
577.845
-24.2213
636.276
575.98
-11.5895
658.996
585.242
2.0858
584.232
-8.62996
-110.018
537.363
-38.1896
-41.8953
549.611
-40.1821
7.24826
553.155
-30.0633
47.6869
551.326
-32.8156
75.021
533.779
-36.655
109.544
546.75
-38.6819
142.598
574.468
-35.5766
183.865
630.326
-30.1897
254.913
668.945
-24.1044
323.373
691.761
-21.0517
391.487
698.655
-18.3947
456.681
688.434
-14.3697
506.167
673.557
-12.3778
536.598
645.045
-12.1413
560.142
625.558
-25.9331
582.277
609.372
-21.4613
610.002
604.818
-11.0737
639.523
608.396
5.54056
658.664
613.168
5.39494
620.191
-18.9973
-106.476
565.734
-37.9605
-41.3596
575.729
-40.5285
8.26902
579.993
-32.1538
48.6643
578.583
-33.326
79.2227
560.568
-37.7572
114.919
568.555
-40.0504
146.023
588.086
-36.8343
182.748
633.516
-33.9469
245.372
669.72
-27.3369
310.619
693.645
-21.439
376.724
704.917
-16.0226
440.066
700.652
-12.0632
491.839
688.479
-12.967
530.402
660.643
-18.7466
556.426
645.966
-21.6473
583.837
634.252
-6.34216
614.17
635.801
8.62785
634.163
630.396
12.4417
659.463
640.798
-11.6718
654.753
-36.5368
-103.343
595.513
-39.281
-41.1501
603.343
-42.4671
8.17443
608.169
-36.3657
48.385
607.573
-36.3397
80.4449
589.674
-42.7828
115.878
594.515
-45.3873
147.334
607.601
-41.2121
183.192
641.448
-36.8345
237.368
675.157
-33.3189
297.12
699.875
-26.614
360.83
712.23
-19.1894
421.441
711.224
-15.9251
473.183
702.017
-16.1242
515.333
678.607
-16.0188
551.691
671.286
-4.98266
589.684
657.718
10.0739
618.379
656.505
10.7458
645.443
656.658
-8.76051
683.527
679.329
-37.3167
668.796
-35.6267
-100.779
-40.9065
-41.4301
-44.8993
7.46685
-40.4607
47.8365
-40.8108
80.8345
-48.1082
114.896
-51.3321
146.863
-47.7496
181.585
-41.7339
229.483
-38.6029
283.561
-34.2999
340.58
-29.1791
396.517
-27.0106
447.436
-24.7365
493.778
-19.3744
540.264
-7.12253
585.5
-0.791715
623.185
-11.9348
658.752
-31.2489
673.863
-33.4208
-20.0694
-227.565
-225.884
-21.1718
-188.032
-237.631
-18.7198
-158.133
-248.037
-16.8294
-121.138
-279.652
-19.7283
-68.0559
-312.379
-21.3203
-1.93898
-326.536
-21.6502
72.2431
-330.115
-22.6508
158.826
-333.702
-22.7606
243.599
-318.853
-21.8771
309.493
-270.185
-20.8953
358.691
-215.735
-20.5749
396.978
-173.256
-18.1255
428.785
-148.553
-20.5674
456.704
-131.911
-20.2245
484.525
-122.872
-21.3892
511.775
-118.896
-23.3958
538.517
-114.101
-24.1908
566.315
-110.63
-24.4786
595.569
-107.429
-25.566
-105.147
-27.1235
-239.203
-186.43
-18.5055
-199.034
-198.128
-13.8044
-181.863
-214.202
-12.0048
-149.397
-254.153
-15.101
-84.846
-303.227
-19.3718
-9.80207
-316.436
-20.1412
75.7748
-316.217
-21.2778
183.555
-320.023
-21.5411
296.139
-289.397
-19.6602
369.974
-216.95
-17.8145
412.175
-153.854
-17.1813
437.413
-106.925
-13.0606
458.883
-76.2749
-16.6577
480.382
-56.3971
-17.9188
502.815
-49.0874
-19.8634
526.424
-47.0261
-22.6143
550.764
-45.6285
-24.6313
576.365
-44.8326
-25.4366
603.481
-44.2451
-27.0634
-44.6618
-29.2777
-248.235
-156.581
-16.433
-213.666
-180.291
-12.3065
-214.18
-211.921
-10.4369
-182.524
-61.9513
-11.9507
-67.6634
-62.4505
-68.0081
-98.8868
-74.9875
-18.9653
-74.1485
-74.7037
-74.1078
-14.4713
-75.105
-19.6556
-76.0079
-75.3602
-76.0252
79.7424
-74.3511
-20.1033
-74.0154
-74.3638
-74.3522
207.095
-74.7375
-20.7997
-74.6413
-74.5942
-74.397
341.164
-65.6837
-19.5194
-54.3391
-65.3277
-53.2028
411.029
-143.235
-16.024
440.609
-92.0639
-15.4467
455.396
-55.0755
-9.86281
469.153
-22.96
-9.72707
485.688
-10.5758
-8.83952
505.797
-3.47123
-10.9485
529.147
0.31104
-14.7699
554.106
2.13325
-17.9969
580.213
3.33396
-20.1117
607.638
3.27803
-23.378
2.13662
-26.7573
-277.162
-120.211
-19.0494
-252.408
-147.841
-14.8475
-62.2084
-180.905
-12.7144
-66.9642
-62.9608
-67.2598
5.8171
-62.1616
-61.3999
-4.9095
7.30343
-38.0307
-5.51366
57.0384
-17.9872
-18.777
-17.938
-18.7938
7.3887
26.0464
-13.0179
-6.14284
-18.5422
-18.3761
-18.4567
-18.4765
7.33882
2.45317
8.35523
-6.29111
-18.4849
-18.1966
-18.4052
-18.2522
6.87065
-21.4273
35.5817
-5.99022
-18.5685
-18.1849
-18.5184
-18.2524
-62.6077
5.48977
82.9604
-60.233
-4.29019
461.403
-66.6668
-12.5094
-104.959
-110.312
-105.143
-110.659
471.645
-39.1346
-16.8526
468.29
-16.1652
-14.835
472.632
6.27781
-14.3487
486.165
25.8268
-15.1467
505.496
36.8935
-16.2358
527.372
43.3027
-18.7798
551.201
45.2872
-21.4761
577.099
45.8658
-22.7578
604.756
44.6128
-25.7172
43.1774
-29.3791
-310.044
-68.5769
-20.4341
-300.82
-85.7606
-18.5501
-73.3446
-100.952
-18.4537
-73.7638
-73.7316
-74.0993
7.69586
-39.4701
-6.83086
55.0366
-17.3825
-17.0262
-17.258
-17.0638
1.52647
3.65177
27.456
-2.09328
-0.981978
518.971
1.30772
-26.6757
-122.158
-135.662
-121.913
-135.669
517.496
5.99908
-26.5345
511.313
15.5613
-24.847
499.805
27.4079
-24.6114
497.003
44.2366
-19.459
505.231
57.749
-19.0457
521.02
66.6398
-22.0548
541.236
71.3068
-24.9485
565.326
75.0081
-26.7275
592.067
75.5995
-30.9558
75.5088
-35.0799
-326.533
-3.26572
-20.0629
-316.843
-11.7446
-18.4517
-74.7495
-16.415
-18.5794
-75.9481
-74.819
-76.0044
7.04401
26.695
-13.1536
-5.83606
-18.5657
-18.2173
-18.497
-18.2548
2.27509
-0.129839
35.6929
1.03124
-2.15266
597.689
60.1049
-28.6416
-145.63
-151.062
-147.087
-153.123
595.881
58.2992
-28.2535
590.456
59.6412
-27.5366
576.487
64.5129
-26.7884
554.346
71.6222
-22.5229
546.842
85.496
-21.0793
552.615
98.0408
-24.6676
564.915
105.278
-27.208
582.902
110.43
-28.7248
605.334
112.475
-32.364
111.524
-36.6244
-329.683
70.5826
-21.5131
-315.831
73.4454
-19.8349
-74.2459
76.8872
-18.6651
-73.8146
-74.2508
-74.2555
7.19111
2.61032
8.17028
-6.00426
-18.4692
-18.1921
-18.397
-18.2447
2.25748
-3.50352
38.6235
4.2617
-2.10502
647.902
124.376
-24.1368
-157.444
-162.261
-160.417
-165.344
647.288
123.077
-23.5395
644.688
121.408
-23.5498
638.272
121.259
-24.0169
624.237
124.157
-22.966
605.054
128.353
-19.4871
597.596
136.851
-20.2499
600.587
141.894
-24.7548
609.516
144.498
-26.1175
624.4
145.635
-28.778
144.697
-33.3509
-332.715
156.856
-21.6508
-319.755
181.639
-20.0061
-75.0017
205.874
-19.1425
-74.7439
-74.9717
-74.7922
7.30506
-21.059
35.01
-6.08576
-18.6358
-18.2064
-18.5431
-18.2739
2.1461
-6.37962
41.2162
7.30868
-1.95538
691.981
218.594
-21.3035
-168.497
-171.105
-171.706
-174.082
697.012
205.033
-22.0411
700.145
197.683
-20.8476
700.201
188.478
-21.2307
696.755
186.145
-21.4921
686.128
186.156
-21.1102
669.975
188.378
-18.4188
662.613
186.353
-19.4446
662.894
184.521
-24.452
667.067
183.204
-27.3662
180.839
-30.5169
-319.012
241.918
-22.021
-291.33
295.003
-19.7586
-66.393
340.433
-19.1144
-55.0723
-66.6078
-55.3638
-62.296
8.4136
-60.5251
82.8339
-5.88967
2.22297
3.68388
-2.2782
27.2447
-1.73984
2.20798
0.255799
0.610762
35.3602
-2.08611
2.07515
-3.13678
3.86133
38.4518
-1.87872
1.918
-6.01306
6.99255
41.3144
-1.69655
-14.3299
-12.4977
6.43028
152.765
149.348
-5.60938
-19.5316
-13.3668
-19.3109
-20.0816
-12.8089
-19.9022
670.303
432.843
-12.416
-162.298
-149.768
-163.035
-149.1
688.841
367.51
-13.3447
701.885
338.042
-16.6911
711.561
315.432
-19.4647
718.269
296.691
-21.4173
717.839
278.746
-20.3007
710.447
268.554
-18.3489
701.287
261.51
-17.0551
698.724
251.931
-18.8903
702.083
242.461
-24.6824
232.866
-29.6247
-270.614
307.814
-22.3216
-219.096
368.494
-19.7604
-148.612
410.587
-17.4298
-70.7232
461.157
-13.994
-105.021
-110.327
-105.191
-110.632
-2.68361
516.089
-27.3494
-121.819
-134.152
-121.626
-134.218
56.1882
592.189
-29.341
-144.438
-149.967
-145.298
-151.483
122.224
644.976
-25.4037
-157.067
-162.471
-158.969
-164.489
221.225
690.702
-22.0994
-169.349
-172.999
-171.512
-174.753
427.954
671.054
-14.8443
-160.828
-147.635
-164.952
-151.424
572.089
572.501
-29.4587
629.629
483.1
-11.5472
663.637
435.632
-15.0198
688.929
409.835
-18.6277
708.081
387.75
-15.5014
721.49
365.62
-18.2331
724.543
345.616
-19.3965
722.166
330.28
-17.0941
720.872
317.872
-16.6637
724.342
304.586
-20.4374
288.628
-26.832
-215.365
357.269
-23.2072
-156.705
410.867
-21.4584
-99.5002
440.93
-20.9602
-45.3615
473.762
-21.8194
1.50113
513.742
-28.0474
53.9621
590.392
-29.3171
120.295
643.973
-25.4365
206.967
694.542
-22.812
364.211
689.841
-18.0725
474.856
629.545
-13.3647
562.625
566.186
-26.0747
619.184
509.205
-19.1157
653.062
471.273
-8.81303
677.615
449.209
-8.50707
700.899
432.821
-17.7978
716.648
417.085
-21.4812
724.738
397.841
-18.5158
729.221
382.792
-14.8889
734.301
367.694
-15.6045
346.691
-22.7661
-173.14
395.851
-21.6386
-109.566
436.436
-18.417
-63.2038
455.968
-16.1976
-22.9099
471.047
-21.4548
10.3724
506.321
-27.8723
54.6666
584.582
-29.125
118.515
640.719
-25.5618
196.582
697.426
-22.0053
336.541
701.692
-20.0751
430.969
664.539
-18.14
500.789
620.261
-22.0982
565.445
569.81
-11.5109
605.27
515.961
5.6669
634.664
486.241
-2.45337
664.009
478.544
-14.1905
691.633
478.019
-18.6353
709.746
461.354
-16.3389
721.435
445.427
-11.6099
730.186
427.307
-12.7592
402.198
-21.2336
-148.365
427.917
-24.4896
-77.5699
458.129
-22.2285
-31.4039
469.018
-17.1842
-1.11985
473.658
-23.3167
21.5758
493.929
-28.0629
59.1911
569.252
-28.8413
117.917
633.241
-26.1822
186.095
696.851
-22.2052
312.334
710.933
-22.3492
408.707
689.958
-21.5238
470.477
654.73
-15.3646
513.369
608.121
0.631882
556.331
559.697
-4.92132
593.53
522.256
-10.5289
629.394
513.714
-12.6324
668.354
520.699
-16.7283
691.521
507.847
-13.3947
706.644
494.543
-10.8242
718.596
476.63
-13.0457
451.531
-20.6712
-131.772
455.954
-24.2738
-56.7493
479.76
-23.1839
-14.4164
485.411
-15.804
20.6346
486.285
-22.9541
37.7939
491.323
-23.1369
66.0427
546.131
-25.1877
120.074
617.748
-25.2525
182.49
692.386
-22.3047
292.203
716.712
-23.8452
385.409
708.701
-19.7583
451.138
679.481
-14.3154
489.568
637.297
-6.38216
522.398
596.622
-11.4122
562.094
564.309
-3.08524
601.75
549.058
-1.59956
638.91
546.755
-5.34422
660.403
533.533
-6.0893
675.805
527.599
-14.7996
689.907
515.597
-16.7077
496.109
-19.9812
-122.636
483.902
-25.3333
-49.2164
502.248
-24.6426
-5.21941
505.142
-17.131
32.9019
505.615
-22.1561
51.704
500.333
-23.0408
80.3786
538.891
-24.4371
123.491
598.282
-22.1133
182.092
680.86
-21.7968
273.885
715.165
-22.1272
361.814
720.381
-22.0209
433.143
701.744
-20.3646
483.044
666.769