/*--------------------------------*- C++ -*----------------------------------*\
  =========                 |
  \\      /  F ield         | OpenFOAM: The Open Source CFD Toolbox
   \\    /   O peration     | Website:  https://openfoam.org
    \\  /    A nd           | Version:  9
     \\/     M anipulation  |
\*---------------------------------------------------------------------------*/
FoamFile
{
    format      ascii;
    class       volScalarField;
    location    "0.0035";
    object      rho;
}
// * * * * * * * * * * * * * * * * * * * * * * * * * * * * * * * * * * * * * //

dimensions      [1 -3 0 0 0 0 0];

internalField   nonuniform List<scalar> 
9720
(
24.1564
27.092
28.6757
29.3116
29.4429
28.89
27.4243
24.6236
21.0284
17.7904
15.1505
13.2399
11.8474
10.8567
10.0782
9.40609
8.8814
8.39421
7.96463
7.19095
27.0305
30.0317
31.5924
30.7772
30.5414
30.3797
28.9516
24.9984
18.9966
14.1589
11.4969
10.321
9.53456
8.93236
8.44156
7.98336
7.58867
7.20356
6.85321
6.20824
28.5468
31.4752
33.5929
30.2057
29.2176
30.7668
30.049
25.2327
16.5063
10.3186
8.33164
8.2728
8.34083
8.37964
8.3082
8.09916
7.80642
7.46431
7.13275
6.50042
29.2132
30.7176
30.278
26.8535
25.1686
31.4006
32.9873
29.6716
16.6349
5.45767
5.71051
6.34994
7.0158
7.49462
7.7488
7.72765
7.62791
7.43295
7.2032
6.66514
29.3253
30.3467
28.9091
25.0939
4.60354
4.53818
4.93899
5.66498
6.69227
7.66459
8.15933
8.12603
7.98401
7.72563
7.44071
6.83084
28.7372
30.1022
30.375
30.9023
5.33403
5.42816
5.52157
5.81547
6.47948
7.34592
8.00167
8.1092
8.04607
7.8585
7.58252
6.93697
27.1808
28.5283
29.465
32.4666
5.90634
5.97042
5.97868
6.06502
6.3167
6.85383
7.53619
8.03739
8.11897
8.04264
7.81947
7.13229
24.3329
24.5199
24.5499
28.7486
6.35869
5.49752
5.65269
5.82402
6.04546
6.38615
6.94796
7.59433
8.01583
8.09294
8.02607
7.51498
20.7148
18.5701
15.9914
15.4914
4.40633
5.36891
5.95906
6.40284
1.44402
2.15065
3.10825
3.89417
4.47572
5.01018
5.60603
6.28733
6.96205
7.46175
7.61377
7.3819
17.4903
13.8605
10.0912
5.45138
4.59649
5.47915
6.04586
5.62174
2.39213
1.36944
1.61646
2.23302
2.95675
3.61688
4.27786
5.01473
5.76445
6.4304
6.95402
6.981
14.8716
11.2819
8.21761
5.70675
5.01543
5.57449
6.05492
5.75269
3.39119
1.71294
1.38765
1.50394
1.92863
2.5386
3.19518
3.91835
4.66714
5.36834
6.01268
6.40426
12.9917
10.12
8.12951
6.31139
5.72786
5.87428
6.14328
5.91935
4.13747
2.41505
1.55811
1.51945
1.60376
1.90417
2.40438
3.0209
3.70483
4.39245
5.04557
5.68674
11.6296
9.34201
8.18735
6.91886
6.68937
6.52727
6.39731
6.14584
4.683
3.16143
2.05279
1.64819
1.62941
1.69629
1.92149
2.32562
2.89731
3.55132
4.19039
4.95755
10.6693
8.7594
8.22742
7.37353
7.59128
7.33738
6.91692
6.49534
5.19894
3.82326
2.70289
2.01033
1.73957
1.7257
1.76207
1.93465
2.34852
2.9194
3.47547
4.25039
9.91758
8.29023
8.16389
7.6366
8.06974
7.94475
7.55529
7.05031
5.78056
4.49079
3.39039
2.56224
2.02891
1.79649
1.77853
1.8918
2.12422
2.49476
2.91891
3.67125
9.26942
7.8534
7.97059
7.61986
8.03967
8.08062
8.02921
7.65497
6.44099
5.22143
4.12963
3.21419
2.48645
2.03526
1.92157
1.96001
2.09977
2.29292
2.6209
3.21566
8.76508
7.47793
7.69503
7.53387
7.90349
8.02031
8.10903
8.05608
7.09799
5.95907
4.87902
3.90998
3.08735
2.50573
2.2159
2.12314
2.13016
2.26363
2.4898
2.76138
8.29565
7.10963
7.36977
7.35818
7.65559
7.837
8.03095
8.12046
7.57397
6.61703
5.57882
4.59966
3.75395
3.10886
2.6356
2.35248
2.30134
2.34678
2.36781
2.47904
7.87858
6.77111
7.05198
7.14414
7.38349
7.57082
7.81098
8.04508
7.6952
7.11111
6.22459
5.26307
4.40742
3.68762
3.09395
2.73578
2.5701
2.3983
2.31589
2.4687
7.12159
6.14266
6.43807
6.62244
6.7889
6.93563
7.13895
7.51101
7.44484
7.1085
6.57594
5.88718
5.17907
4.47807
3.87351
3.38969
2.90763
2.55593
2.5228
3.09285
22.649
25.5009
27.0334
27.4033
27.3413
26.808
25.4267
22.8163
19.4209
16.3605
13.882
12.1069
10.8045
9.8929
9.17157
8.54275
8.06096
7.62336
7.23216
6.52323
25.4491
28.3484
29.888
28.5799
28.1648
28.258
26.9989
23.2913
17.6169
13.0464
10.4631
9.40505
8.71035
8.17889
7.73654
7.3055
6.93267
6.57977
6.25632
5.66088
26.9527
29.7869
31.3844
27.4902
26.902
28.8657
28.3241
23.7404
15.4627
9.56689
7.55358
7.48918
7.5786
7.67669
7.64312
7.47484
7.21049
6.89728
6.58899
6.00089
27.4218
28.6792
27.5649
24.3513
24.1342
30.115
31.5196
28.1403
15.9039
5.13636
5.27098
5.75093
6.35701
6.81728
7.13003
7.12565
7.0532
6.89259
6.68802
6.189
27.3591
28.1062
26.4837
23.1637
4.17406
4.29381
4.61493
5.17674
6.03524
6.93537
7.54806
7.56245
7.47055
7.24934
6.97388
6.3801
26.7212
28.0487
28.4923
29.6226
4.99918
5.16465
5.22015
5.41767
5.89966
6.67677
7.34881
7.57551
7.53951
7.38633
7.12248
6.49488
25.18
26.6151
27.8687
31.1009
5.63112
5.67917
5.61538
5.64697
5.79305
6.19898
6.81767
7.35277
7.55233
7.51332
7.33306
6.70368
22.4641
22.7975
23.155
27.4712
6.02312
5.17439
5.26765
5.36342
5.51778
5.77563
6.22899
6.81715
7.30056
7.48698
7.45172
7.04177
19.0171
17.0873
14.8899
15.2222
4.03288
5.08149
5.71844
6.05417
1.30221
1.93921
2.80022
3.51004
4.02266
4.46416
4.95872
5.56309
6.20303
6.74708
7.00559
6.84932
15.9724
12.6058
9.19058
5.02308
4.29573
5.20155
5.75228
5.22422
2.10923
1.15389
1.38156
1.92897
2.56987
3.13722
3.70142
4.36602
5.07735
5.73532
6.30024
6.41742
13.534
10.1007
7.22553
5.14532
4.60948
5.25335
5.69004
5.32661
3.0067
1.44986
1.13714
1.23006
1.57652
2.1074
2.71171
3.38163
4.08123
4.74527
5.36416
5.81662
11.8134
9.12266
7.25429
5.60503
5.16701
5.44896
5.7229
5.44261
3.70976
2.0835
1.27158
1.24151
1.31448
1.59322
2.0556
2.60349
3.21584
3.84157
4.44189
5.11091
10.5578
8.47216
7.36321
6.19048
6.01028
5.94028
5.87434
5.6201
4.21512
2.7705
1.69424
1.35289
1.36364
1.45157
1.64813
1.98653
2.48301
3.0658
3.65532
4.43974
9.68587
7.9798
7.4981
6.66531
6.88832
6.69588
6.28637
5.89609
4.65664
3.35729
2.28366
1.70223
1.50812
1.47439
1.48614
1.60512
1.94854
2.4739
3.03143
3.8256
8.99685
7.56745
7.48161
7.02455
7.48208
7.33007
6.887
6.35786
5.15127
3.93686
2.92869
2.22602
1.77426
1.5258
1.48708
1.56908
1.78533
2.15691
2.59234
3.32465
8.39557
7.16242
7.33739
7.03207
7.48971
7.57199
7.40189
6.92987
5.74447
4.60371
3.62334
2.82182
2.17457
1.71509
1.6077
1.64868
1.80376
2.03796
2.35341
2.91199
7.93785
6.81226
7.09459
6.97428
7.39243
7.53378
7.58995
7.39216
6.36949
5.30464
4.33331
3.46468
2.71248
2.12909
1.87691
1.85963
1.89459
2.02638
2.23664
2.50016
7.52086
6.47856
6.79976
6.82904
7.17233
7.37782
7.54585
7.5544
6.89827
5.95783
5.00295
4.1055
3.31696
2.69662
2.31083
2.1276
2.0773
2.11046
2.12991
2.21358
7.14432
6.16936
6.50469
6.63276
6.90199
7.11175
7.35949
7.50859
7.12108
6.50416
5.6293
4.72257
3.92463
3.27807
2.78874
2.49064
2.33186
2.16792
2.08317
2.19432
6.45392
5.59229
5.93305
6.14201
6.31888
6.47979
6.72108
7.06847
6.93746
6.56689
6.02911
5.35813
4.69713
4.07833
3.55089
3.10546
2.66281
2.30179
2.25389
2.67914
22.0943
24.9117
26.3854
26.5499
26.218
25.7117
24.3576
21.8182
18.5391
15.6
13.23
11.551
10.3275
9.47325
8.79791
8.20102
7.73395
7.30816
6.93076
6.24083
24.9004
27.656
29.0194
27.3796
26.6556
26.9458
25.7699
22.1676
16.7488
12.4117
9.91609
8.95544
8.36095
7.89732
7.49086
7.08417
6.71766
6.36656
6.04909
5.46297
26.3548
28.9738
29.7657
25.4942
25.2597
27.4779
27.0279
22.5343
14.6497
9.16001
7.18296
7.14115
7.22203
7.36475
7.36589
7.25085
7.02277
6.72591
6.42586
5.84463
26.5268
27.3165
25.2532
21.8289
22.7999
28.736
30.0787
26.6955
14.8292
4.95597
5.08892
5.5534
6.16279
6.61237
6.9261
6.92733
6.85983
6.70347
6.49945
6.00237
26.1985
26.5398
24.777
21.6339
3.75393
4.07643
4.39307
4.8924
5.65361
6.52006
7.25204
7.38917
7.32403
7.13444
6.86159
6.25379
25.6536
26.782
27.1747
28.4974
4.81487
4.94166
4.98321
5.14921
5.53452
6.27408
7.03377
7.43401
7.4161
7.28542
7.03006
6.39529
24.1695
25.5222
26.7748
29.8243
5.39733
5.46865
5.39443
5.41493
5.52636
5.84906
6.44814
7.0507
7.35148
7.33515
7.19826
6.61791
21.5288
21.8195
22.2208
26.3962
5.74251
4.92535
5.03607
5.12963
5.27395
5.48401
5.84653
6.3966
6.94514
7.22952
7.21524
6.89045
18.1844
16.3269
14.2551
14.4112
3.68623
4.76175
5.43705
5.75641
1.17252
1.82851
2.64393
3.32321
3.8133
4.19723
4.6162
5.1561
5.76555
6.32733
6.69652
6.61408
15.2392
11.988
8.7382
4.62771
3.89315
4.86483
5.46604
4.89757
1.8594
1.00112
1.23376
1.76473
2.38198
2.92186
3.40851
3.98068
4.639
5.2831
5.88546
6.13808
12.8856
9.49163
6.69372
4.72703
4.17985
4.90103
5.37683
5.01168
2.7155
1.27067
0.973263
1.0597
1.39089
1.90128
2.44532
3.02351
3.66353
4.31367
4.94722
5.50024
11.254
8.62768
6.77766
5.1605
4.67782
5.06083
5.3934
5.11139
3.40931
1.85717
1.08393
1.07352
1.14984
1.41172
1.83186
2.31004
2.8595
3.46198
4.06375
4.78824
10.0734
8.10025
6.95108
5.80873
5.44831
5.45283
5.49781
5.26623
3.9007
2.50301
1.46685
1.1786
1.19218
1.27512
1.46002
1.76124
2.204
2.7474
3.31489
4.12419
9.25391
7.67724
7.14822
6.35021
6.33925
6.18423
5.81654
5.48919
4.28988
3.05409
2.01775
1.49126
1.31621
1.29824
1.31852
1.42119
1.7081
2.18002
2.7194
3.52823
8.60649
7.30109
7.1828
6.77117
7.09858
6.89516
6.38907
5.85247
4.71566
3.55884
2.59296
1.9556
1.54945
1.35091
1.31041
1.35726
1.53087
1.873
2.3011
3.03976
8.03375
6.9212
7.09301
6.81358
7.26637
7.29422
6.95904
6.39052
5.24721
4.14523
3.20549
2.4779
1.89499
1.49758
1.38022
1.41009
1.54558
1.78355
2.09034
2.66535
7.58972
6.57844
6.89055
6.7628
7.20559
7.29047
7.26646
6.92692
5.84344
4.80363
3.86938
3.06264
2.37661
1.83783
1.592
1.58604
1.64001
1.78151
2.0019
2.32053
7.18591
6.2489
6.61239
6.62494
7.02498
7.1839
7.25883
7.19564
6.39945
5.44176
4.52381
3.67812
2.94674
2.35068
1.98743
1.85437
1.82721
1.87699
1.93188
2.00236
6.82532
5.94654
6.32457
6.43007
6.76267
6.94754
7.1306
7.18462
6.74322
6.03095
5.15111
4.28282
3.5282
2.91213
2.45749
2.20397
2.08091
1.96483
1.87339
1.9463
6.15887
5.38272
5.7623
5.94575
6.17388
6.33803
6.57337
6.85752
6.64524
6.23579
5.6597
4.97952
4.32445
3.72393
3.22095
2.82085
2.44465
2.07126
1.98544
2.23283
21.5229
24.3128
25.7313
25.7182
25.2355
24.7777
23.4537
20.9278
17.7286
14.8952
12.6089
11.033
9.88907
9.0946
8.46616
7.90525
7.45443
7.03854
6.67394
6.00572
24.3058
26.991
28.2317
26.351
25.5109
25.9861
24.8829
21.2959
15.9862
11.8129
9.35708
8.5321
8.03032
7.63631
7.26296
6.8792
6.52364
6.17608
5.86545
5.29195
25.7057
28.2302
28.5202
24.0444
24.1574
26.5929
26.1969
21.7046
13.9053
8.64355
6.63833
6.74261
6.9163
7.12299
7.13485
7.04154
6.83824
6.5543
6.26216
5.68974
25.6355
26.2021
23.7854
20.4075
21.5097
27.721
28.926
25.476
13.6713
4.54321
4.66716
5.14554
5.87539
6.48529
6.78337
6.77763
6.69272
6.51919
6.30976
5.81945
25.1011
25.2616
23.7144
21.1495
3.55637
3.77949
4.07522
4.53392
5.23309
6.09083
6.89736
7.22019
7.18191
7.02259
6.76145
6.15437
24.6428
25.7403
26.224
27.4756
4.62299
4.69612
4.73075
4.86917
5.17236
5.79505
6.61995
7.19709
7.22476
7.13929
6.9215
6.3109
23.273
24.6319
25.9078
28.6729
5.25367
5.24068
5.14918
5.15408
5.22382
5.44883
5.95148
6.61237
7.03803
7.05567
6.97026
6.48024
20.7541
21.0866
21.5057
25.2538
5.56205
4.60052
4.72587
4.8272
4.9627
5.14279
5.4257
5.89104
6.4824
6.87029
6.89225
6.65567
17.5387
15.8039
13.7951
13.8118
3.40407
4.46037
5.18497
5.45169
1.01818
1.59154
2.36858
3.03247
3.52659
3.89604
4.26537
4.7313
5.28707
5.85004
6.31432
6.30546
14.6916
11.6133
8.48089
4.44437
3.66682
4.61198
5.16142
4.5797
1.72013
0.862831
1.07174
1.55925
2.14591
2.68146
3.13486
3.62096
4.20688
4.82831
5.43992
5.80419
12.3964
9.13664
6.42329
4.50927
3.94343
4.64317
5.07046
4.69678
2.51778
1.12903
0.837264
0.910782
1.21611
1.70719
2.21225
2.71565
3.29539
3.92706
4.5489
5.15744
10.8133
8.28235
6.48249
4.89608
4.38302
4.77564
5.076
4.78759
3.16161
1.68541
0.940279
0.920235
1.00023
1.25052
1.63808
2.07026
2.56856
3.13861
3.71541
4.44601
9.67156
7.78223
6.62308
5.53942
5.05002
5.08025
5.14681
4.91679
3.62073
2.29533
1.29065
1.02236
1.04168
1.12315
1.30293
1.56828
1.95975
2.46642
3.00062
3.78733
8.88481
7.3948
6.8307
6.10895
5.87704
5.69723
5.37633
5.09917
3.9722
2.81285
1.80299
1.3095
1.1514
1.15023
1.17353
1.2669
1.51671
1.93094
2.42198
3.20692
8.26733
7.03429
6.87907
6.47651
6.65398
6.45405
5.86982
5.38833
4.34185
3.2545
2.31782
1.72553
1.36519
1.19857
1.15786
1.18455
1.31946
1.61696
2.02531
2.74939
7.71727
6.6691
6.80776
6.52039
6.98207
6.98242
6.48327
5.85744
4.8061
3.75024
2.84497
2.18561
1.66383
1.31528
1.19384
1.21297
1.32267
1.54713
1.84795
2.41313
7.28347
6.33593
6.63217
6.47059
6.95491
7.02226
6.88571
6.43062
5.35377
4.3396
3.44726
2.71474
2.08528
1.59637
1.34961
1.34329
1.40074
1.55231
1.76271
2.12127
6.88804
6.01261
6.37399
6.33866
6.81298
6.94845
6.90769
6.78634
5.90411
4.95063
4.08417
3.30346
2.61228
2.04107
1.68285
1.58845
1.5799
1.63091
1.7184
1.81515
6.54322
5.72384
6.10476
6.16053
6.57399
6.75165
6.83116
6.80387
6.33034
5.55051
4.70302
3.8813
3.15409
2.55273
2.12335
1.91846
1.81034
1.7388
1.66196
1.69199
5.90394
5.18251
5.56742
5.71142
6.00675
6.18353
6.37002
6.56758
6.30134
5.86999
5.27398
4.58463
3.93058
3.34773
2.87773
2.52032
2.20107
1.8614
1.71118
1.83008
21.2136
23.9731
25.3698
25.2517
24.7671
24.3328
23.0062
20.473
17.2734
14.486
12.2257
10.6888
9.59166
8.83809
8.24548
7.71444
7.28402
6.88097
6.52999
5.8833
23.9428
26.5479
27.6968
25.7324
24.9688
25.5404
24.455
20.8573
15.5359
11.4331
8.98894
8.20082
7.75765
7.41547
7.07864
6.72467
6.38966
6.05337
5.75419
5.19962
25.2952
27.6853
27.71
23.0583
23.7742
26.2286
25.8226
21.3106
13.4742
8.2921
6.28466
6.40053
6.62174
6.87263
6.93568
6.87165
6.70477
6.44057
6.16111
5.60703
25.1063
25.5221
22.8822
19.4137
21.023
27.1968
28.3299
24.9117
13.3107
4.28841
4.37021
4.81158
5.57059
6.30804
6.65837
6.65702
6.57157
6.39324
6.18918
5.72209
24.4792
24.494
22.9551
20.3866
3.30958
3.53805
3.80279
4.23792
4.90061
5.76288
6.59208
7.05065
7.04614
6.93127
6.69654
6.1122
24.0834
25.1144
25.6115
26.6647
4.2784
4.49085
4.53472
4.67116
4.94521
5.48992
6.30594
6.97609
7.09702
7.03077
6.84349
6.27019
22.7642
24.0989
25.4089
27.9132
4.92685
5.01727
4.95715
4.95788
5.00939
5.1904
5.62361
6.28253
6.78842
6.86217
6.79885
6.3835
20.3078
20.6341
21.0803
24.6108
5.2225
4.34951
4.49618
4.59299
4.71273
4.87723
5.13489
5.56173
6.16221
6.61011
6.6917
6.50486
17.1734
15.4627
13.4582
13.2203
3.2535
4.25576
4.88955
5.11581
0.941795
1.45109
2.18753
2.83197
3.31987
3.68095
4.03344
4.46823
5.00033
5.56418
6.08498
6.14233
14.4113
11.4086
8.32716
4.31953
3.53732
4.45739
4.95994
4.3635
1.63007
0.784704
0.977251
1.43229
1.9914
2.51751
2.95985
3.40573
3.95238
4.56695
5.1939
5.63618
12.1626
8.98416
6.32147
4.40729
3.81002
4.50087
4.90351
4.49402
2.39094
1.04579
0.756241
0.82279
1.10967
1.58143
2.07395
2.54245
3.08269
3.70623
4.33728
4.99716
10.6057
8.13836
6.38107
4.82614
4.24342
4.63728
4.91099
4.58929
3.00277
1.56809
0.852143
0.828996
0.907112
1.15459
1.52679
1.93172
2.4032
2.96262
3.53973
4.29232
9.48859
7.65265
6.51016
5.50642
4.88854
4.91715
4.97524
4.71539
3.44193
2.14428
1.18066
0.927406
0.952098
1.03475
1.20799
1.46838
1.83722
2.32147
2.84678
3.63415
8.71972
7.28296
6.70955
6.12391
5.69176
5.4738
5.17237
4.88631
3.78112
2.65451
1.67329
1.2049
1.0524
1.05958
1.09813
1.19574
1.42361
1.80889
2.27686
3.04992
8.11402
6.92762
6.75572
6.4244
6.46112
6.24978
5.61616
5.15185
4.13436
3.08422
2.1679
1.59386
1.24834
1.11505
1.07604
1.09223
1.20849
1.48342
1.87914
2.59871
7.57358
6.56583
6.69039
6.42693
6.8558
6.84787
6.24198
5.58564
4.57116
3.53826
2.65078
2.01471
1.52454
1.2184
1.09353
1.10685
1.20443
1.41603
1.71238
2.27513
7.14347
6.23268
6.52209
6.35898
6.84491
6.92799
6.69222
6.16492
5.09377
4.08583
3.20828
2.5055
1.91125
1.46044
1.21934
1.21218
1.26581
1.41953
1.62448
1.9978
6.74743
5.90567
6.2659
6.20809
6.72746
6.86158
6.73862
6.56342
5.63743
4.68321
3.82953
3.07681
2.4143
1.87074
1.51925
1.43649
1.43283
1.48631
1.5796
1.71223
6.40743
5.6198
6.0023
6.03082
6.50226
6.67862
6.6743
6.61074
6.10902
5.28668
4.44796
3.65013
2.94396
2.35645
1.93988
1.75341
1.65078
1.58958
1.5369
1.54044
5.78051
5.08842
5.47663
5.59936
5.94767
6.1283
6.26336
6.41343
6.12154
5.67448
5.06828
4.37738
3.72023
3.13723
2.68266
2.34389
2.04454
1.73792
1.55182
1.61771
21.2165
23.981
25.376
25.2334
24.7407
24.3027
22.9828
20.4577
17.2632
14.47
12.2084
10.6671
9.56842
8.81734
8.22857
7.7008
7.27435
6.87499
6.52642
5.88181
23.9376
26.5508
27.712
25.6726
24.9378
25.5279
24.4372
20.8389
15.5402
11.4361
8.98461
8.17769
7.72696
7.38753
7.05648
6.70761
6.37745
6.04563
5.74938
5.19736
25.288
27.6723
27.6921
22.883
23.852
26.2561
25.8093
21.2806
13.4964
8.33642
6.3091
6.40358
6.59141
6.83051
6.90815
6.84984
6.69064
6.43314
6.158
5.60753
25.1185
25.5575
22.9192
19.1495
21.2586
27.1142
28.158
24.7383
13.1499
4.33462
4.41369
4.83862
5.56931
6.28355
6.63071
6.63207
6.55305
6.38377
6.18757
5.72679
24.4877
24.491
22.8647
19.8007
3.18692
3.55733
3.82023
4.25156
4.90279
5.74421
6.55934
7.02834
7.03015
6.92438
6.69496
6.11344
24.0927
25.1016
25.565
26.5039
4.21236
4.51305
4.54984
4.67959
4.94717
5.48136
6.28822
6.95839
7.0994
7.03569
6.85035
6.27845
22.7606
24.0724
25.3694
27.7118
4.87515
5.04149
4.97069
4.96975
5.0182
5.1942
5.62096
6.27305
6.78199
6.8635
6.80282
6.39282
20.2993
20.6059
21.0351
24.3945
5.10816
4.38562
4.52293
4.61454
4.72823
4.88791
5.14206
5.56521
6.16165
6.61072
6.69768
6.51258
17.1712
15.4572
13.4562
13.2312
3.21429
4.21753
4.81741
5.02422
0.905039
1.49979
2.23992
2.87052
3.34343
3.69673
4.04491
4.47674
5.00604
5.57015
6.09214
6.15166
14.4148
11.4098
8.33408
4.30363
3.53862
4.4615
4.96336
4.33311
1.57518
0.778216
0.984763
1.45303
2.01385
2.53468
2.97121
3.41401
3.95853
4.57072
5.19853
5.64504
12.1775
9.0001
6.34724
4.41873
3.81261
4.49802
4.89973
4.47601
2.33539
1.02306
0.758008
0.829674
1.12028
1.5915
2.08015
2.54629
3.08478
3.70616
4.33784
5.00313
10.6334
8.18
6.43029
4.88047
4.25607
4.6298
4.90318
4.5736
2.95986
1.53648
0.847032
0.834646
0.91369
1.16192
1.53329
1.9347
2.40206
2.96006
3.53804
4.29476
9.52357
7.70464
6.58008
5.59018
4.92277
4.91022
4.96239
4.69758
3.41032
2.11434
1.16771
0.926756
0.953413
1.03898
1.21419
1.46949
1.83312
2.31694
2.84224
3.63174
8.75728
7.3362
6.78211
6.21475
5.7447
5.47863
5.15973
4.8648
3.75155
2.62573
1.65601
1.19585
1.05129
1.06142
1.10033
1.19211
1.41511
1.80044
2.26814
3.04405
8.15075
6.97714
6.8142
6.49638
6.52001
6.28039
5.61293
5.12933
4.10126
3.0529
2.1498
1.58589
1.2452
1.11283
1.07361
1.08859
1.20332
1.477
1.87279
2.59406
7.60761
6.60962
6.74255
6.49033
6.90768
6.894
6.25865
5.56638
4.53719
3.5043
2.63153
2.00768
1.52033
1.21584
1.09158
1.10422
1.2012
1.41353
1.70971
2.27153
7.17222
6.26901
6.56453
6.40881
6.89266
6.96945
6.71786
6.15456
5.06496
4.0563
3.19043
2.49651
1.90585
1.45522
1.21621
1.20977
1.26344
1.41879
1.62467
1.99556
6.77015
5.93406
6.29875
6.24432
6.76805
6.90014
6.76412
6.56038
5.61634
4.66233
3.81581
3.06746
2.40781
1.86143
1.51365
1.43539
1.43319
1.48854
1.5804
1.70999
6.42466
5.64141
6.02708
6.05669
6.5358
6.71108
6.69767
6.6144
6.09764
5.27185
4.43741
3.6431
2.93909
2.34889
1.93528
1.75413
1.6538
1.5927
1.53648
1.53867
5.79067
5.10148
5.49103
5.6122
5.96905
6.14801
6.27975
6.41694
6.11628
5.66512
5.06034
4.37259
3.71818
3.13609
2.6835
2.34655
2.05
1.74271
1.55177
1.61679
21.5323
24.3335
25.7565
25.6939
25.2167
24.7198
23.3828
20.8586
17.646
14.8229
12.5501
10.9801
9.84117
9.05353
8.43635
7.88519
7.44383
7.03583
6.67603
6.01047
24.2847
26.97
28.236
26.2399
25.5052
25.9697
24.8302
21.2164
15.8727
11.7216
9.29674
8.46757
7.96527
7.57762
7.21558
6.84453
6.50124
6.16447
5.86107
5.29292
25.6555
28.1415
28.4277
23.702
24.3857
26.6692
26.1735
21.6135
13.7595
8.54889
6.59467
6.69065
6.83791
7.04181
7.07704
6.99892
6.81297
6.54254
6.25978
5.6953
25.6231
26.1927
23.6888
19.5931
21.6567
27.4988
28.5284
25.0822
13.3061
4.50451
4.63278
5.11107
5.82744
6.43851
6.73934
6.73431
6.6577
6.50051
6.30715
5.8328
25.065
25.1625
23.4273
20.0488
3.29822
3.75781
4.05178
4.5132
5.20665
6.0531
6.84094
7.18205
7.15253
7.00719
6.75816
6.1615
24.6224
25.6586
26.0744
26.9338
4.37499
4.74586
4.78021
4.91319
5.204
5.79912
6.60229
7.18328
7.22477
7.14293
6.93047
6.3264
23.2429
24.5541
25.8209
28.1511
5.06847
5.27228
5.18168
5.18499
5.25075
5.46835
5.95756
6.60761
7.03828
7.06214
6.98073
6.49801
20.7271
21.0072
21.3898
24.7525
5.30786
4.62667
4.74453
4.84087
4.97555
5.15798
5.44283
5.91103
6.5088
6.89145
6.91161
6.67421
17.5235
15.7462
13.6877
13.2702
3.23989
4.266
4.96023
5.19877
0.95399
1.65277
2.43142
3.08284
3.56556
3.9327
4.3043
4.76942
5.32524
5.88821
6.34732
6.33566
14.7049
11.6212
8.48263
4.45656
3.66083
4.62768
5.1914
4.5674
1.65107
0.855154
1.08634
1.59827
2.19476
2.72613
3.1739
3.65983
4.24486
4.86367
5.47381
5.83695
12.4383
9.20797
6.50723
4.5674
3.95681
4.66952
5.10014
4.69401
2.4439
1.09622
0.837372
0.921727
1.2411
1.73736
2.24166
2.74604
3.32592
3.95559
4.57532
5.18532
10.877
8.38284
6.60014
5.0304
4.42211
4.81285
5.10524
4.79462
3.10745
1.63027
0.928663
0.926784
1.01505
1.27941
1.6704
2.09705
2.59062
3.15871
3.7325
4.46463
9.74782
7.88244
6.74869
5.73199
5.12486
5.12156
5.17529
4.93123
3.59046
2.24322
1.26561
1.02242
1.0518
1.14103
1.3243
1.58487
1.9721
2.47655
3.00773
3.79664
8.96542
7.49143
6.95012
6.30927
5.97657
5.74644
5.40402
5.11387
3.95422
2.77736
1.77917
1.30302
1.15274
1.1583
1.1797
1.26688
1.51491
1.92753
2.41737
3.20782
8.34715
7.12311
6.9756
6.61576
6.77074
6.54452
5.90583
5.40208
4.32472
3.22616
2.299
1.71646
1.35627
1.19191
1.151
1.17814
1.31284
1.60907
2.01848
2.74877
7.79169
6.74673
6.89292
6.61555
7.07294
7.08258
6.54845
5.87477
4.78717
3.71849
2.82227
2.16981
1.64646
1.29822
1.18664
1.20646
1.31647
1.54199
1.84034
2.40962
7.34647
6.39925
6.69995
6.54278
7.03454
7.09793
6.94466
6.4624
5.3383
4.30906
3.4198
2.69058
2.06256
1.57799
1.34183
1.33617
1.3953
1.54881
1.75818
2.118
6.93805
6.06117
6.42498
6.38413
6.87733
7.01166
6.95249
6.81188
5.89343
4.92844
4.05913
3.27838
2.59042
2.02258
1.67324
1.58582
1.57827
1.63127
1.7169
1.81126
6.58135
5.76002
6.14189
6.18903
6.6223
6.79705
6.86582
6.82235
6.3275
5.53613
4.68682
3.8656
3.13809
2.53567
2.11646
1.92098
1.81386
1.74122
1.66032
1.68794
5.92607
5.20239
5.5863
5.72047
6.03274
6.2041
6.38498
6.58082
6.29925
5.85995
5.26305
4.57591
3.92202
3.33844
2.87355
2.52189
2.20537
1.86573
1.70947
1.82716
22.1256
24.9678
26.4415
26.5497
26.1982
25.6299
24.2432
21.6884
18.3981
15.5002
13.171
11.5215
10.3119
9.46279
8.79373
8.20403
7.74276
7.32098
6.94471
6.25303
24.9198
27.7001
29.0882
27.3054
26.6511
26.899
25.6639
22.0149
16.5362
12.253
9.82263
8.91987
8.34294
7.8855
7.48345
7.08218
6.72137
6.3754
6.05979
5.47272
26.3441
28.9527
29.7494
25.3185
25.3822
27.5057
26.9457
22.3718
14.374
8.9458
7.02428
7.08343
7.1924
7.35693
7.36276
7.25309
7.02975
6.73745
6.43932
5.85694
26.5167
27.3117
25.1637
20.7191
22.3991
28.2416
29.2975
25.8407
13.9645
4.82556
4.96487
5.45398
6.11457
6.61057
6.94026
6.94113
6.87498
6.72288
6.52135
6.02378
26.1375
26.4084
24.5418
20.8366
3.533
4.03179
4.34976
4.85594
5.62722
6.50625
7.25673
7.4063
7.34068
7.15017
6.87719
6.27034
25.6057
26.6714
27.0099
27.7667
4.69113
5.0043
5.04157
5.19366
5.55911
6.28538
7.04866
7.45292
7.43592
7.30696
7.05256
6.41954
24.1336
25.4342
26.6674
29.0861
5.36775
5.51869
5.42839
5.44344
5.54418
5.85365
6.44589
7.05629
7.3692
7.35595
7.22213
6.6462
21.5151
21.7679
22.137
25.6588
5.57111
4.88606
5.01385
5.11315
5.26229
5.47609
5.83726
6.394
6.96318
7.25277
7.24123
6.91741
18.1946
16.3165
14.2133
14.0545
3.47934
4.58519
5.30047
5.56271
1.09635
1.78491
2.60754
3.30039
3.8004
4.19135
4.61385
5.15247
5.76663
6.34094
6.72095
6.64126
15.2716
12.0319
8.77738
4.6936
3.9624
4.94871
5.51275
4.91784
1.85898
0.987169
1.21902
1.75596
2.37892
2.91997
3.4069
3.98051
4.64486
5.29695
5.90584
6.16756
12.935
9.58571
6.80082
4.81353
4.26254
4.98345
5.42739
5.04329
2.7136
1.25204
0.961185
1.04958
1.38561
1.89896
2.44547
3.02793
3.67467
4.32918
4.96219
5.52467
11.3054
8.71711
6.8929
5.28238
4.76822
5.13846
5.444
5.14843
3.41197
1.83455
1.06562
1.06181
1.1455
1.4187
1.84346
2.31901
2.86605
3.4682
4.0694
4.80447
10.1248
8.17198
7.04445
5.94705
5.54949
5.52066
5.54881
5.30236
3.90789
2.48401
1.43976
1.16376
1.18674
1.28128
1.46894
1.7623
2.19933
2.74365
3.31295
4.13325
9.30641
7.74222
7.23045
6.4764
6.43936
6.26151
5.86869
5.52078
4.29425
3.037
1.98916
1.47478
1.31177
1.29894
1.31491
1.41251
1.69597
2.16956
2.71179
3.53184
8.65832
7.36035
7.25051
6.85077
7.19789
7.00846
6.45831
5.88623
4.71531
3.5362
2.56622
1.94128
1.54142
1.34001
1.30106
1.34604
1.51832
1.86135
2.29238
3.04024
8.08359
6.97298
7.14939
6.85837
7.34091
7.40377
7.04968
6.4349
5.24834
4.1204
3.17865
2.4607
1.87974
1.47908
1.36629
1.39657
1.53259
1.77512
2.08458
2.66436
7.63315
6.62066
6.9323
6.79524
7.27193
7.38605
7.33876
6.98045
5.84998
4.78424
3.84453
3.04072
2.35533
1.81174
1.57379
1.56943
1.62714
1.7736
1.99431
2.31765
7.221
6.28096
6.64172
6.64147
7.07568
7.25467
7.32014
7.24008
6.40909
5.42855
4.50128
3.65269
2.91946
2.3188
1.96314
1.83831
1.81481
1.87012
1.92521
1.99955
6.85276
5.97028
6.34442
6.43656
6.79754
6.99596
7.17801
7.22394
6.75555
6.02064
5.1262
4.25147
3.49532
2.87825
2.42984
2.18634
2.07037
1.95959
1.86918
1.94289
6.17538
5.39543
5.77027
5.94036
6.18809
6.35928
6.59844
6.88779
6.6567
6.2277
5.63675
4.9497
4.29246
3.69307
3.1967
2.80503
2.43621
2.06787
1.9809
2.22709
22.6674
25.5165
27.0506
27.4009
27.3111
26.7103
25.2996
22.6867
19.3203
16.3019
13.8617
12.113
10.8212
9.9126
9.19307
8.56563
8.08444
7.64643
7.25332
6.54023
25.483
28.3812
29.9337
28.58
28.1642
28.1886
26.8585
23.131
17.4901
12.98
10.4436
9.4206
8.73238
8.19837
7.75515
7.32547
6.95405
6.60171
6.27683
5.67748
26.9777
29.8164
31.4103
27.571
27.0285
28.8577
28.1835
23.5592
15.34
9.53198
7.54304
7.51052
7.6013
7.69493
7.66006
7.49242
7.2294
6.9172
6.60835
6.01701
27.4035
28.6281
27.3753
22.5413
23.4976
29.3552
30.5712
27.1254
15.1563
5.14716
5.28839
5.76833
6.36838
6.82306
7.15283
7.15365
7.08393
6.92334
6.7168
6.21207
27.2971
27.9705
26.2501
22.0316
3.81473
4.27347
4.6018
5.17236
6.03698
6.94723
7.5659
7.57934
7.48536
7.26155
6.98451
6.38952
26.6803
27.9487
28.3461
28.8448
4.88528
5.1437
5.19021
5.38575
5.87167
6.65792
7.33923
7.58042
7.54782
7.39855
7.13662
6.50978
25.1282
26.5144
27.7385
30.3214
5.51745
5.65522
5.58814
5.61919
5.76591
6.17634
6.80576
7.35366
7.56145
7.5236
7.34593
6.72105
22.4164
22.7004
23.0253
26.7254
5.8134
5.156
5.24376
5.33698
5.49069
5.75049
6.20867
6.80765
7.30553
7.49987
7.46439
7.05616
18.9733
17.0303
14.8608
14.7072
3.75805
4.912
5.57705
5.88245
1.23389
1.96775
2.81551
3.51306
4.01592
4.45079
4.94277
5.54824
6.19426
6.7472
7.01824
6.86615
15.9307
12.5685
9.18803
5.01694
4.25975
5.23009
5.79343
5.26378
2.09897
1.1516
1.38284
1.92849
2.56645
3.13094
3.69087
4.3556
5.07259
5.73776
6.31305
6.44011
13.5003
10.0855
7.2466
5.15994
4.61005
5.28005
5.72049
5.35517
2.99609
1.44264
1.11966
1.21244
1.56268
2.1003
2.70728
3.37805
4.08261
4.75352
5.37939
5.84132
11.7878
9.11185
7.27094
5.63845
5.20882
5.48149
5.75162
5.45768
3.69048
2.05829
1.24389
1.22434
1.30227
1.5903
2.05876
2.60725
3.22103
3.85121
4.45596
5.13366
10.5436
8.46768
7.37888
6.23604
6.08018
5.97969
5.90243
5.62542
4.19058
2.73053
1.65401
1.33562
1.35225
1.44931
1.65357
1.99275
2.48759
3.07089
3.66298
4.45748
9.68367
7.98824
7.52326
6.7155
6.96084
6.75421
6.31822
5.9007
4.63384
3.31281
2.23755
1.68093
1.49888
1.47075
1.48107
1.59958
1.94362
2.47062
3.03315
3.84026
9.00399
7.58606
7.50864
7.0587
7.55151
7.40912
6.93381
6.37085
5.13472
3.89611
2.88436
2.20173
1.7638
1.51506
1.47605
1.55705
1.7738
2.14886
2.59144
3.33817
8.41025
7.18682
7.36627
7.05905
7.55462
7.64229
7.4567
6.9547
5.73922
4.57169
3.58571
2.79531
2.15678
1.69222
1.58824
1.63072
1.78872
2.02946
2.3533
2.92498
7.95456
6.83684
7.12247
6.99576
7.44967
7.5967
7.64236
7.42658
6.37259
5.28176
4.30099
3.43457
2.68504
2.0938
1.84635
1.83396
1.87708
2.01706
2.23409
2.51079
7.53679
6.50086
6.82389
6.84481
7.21745
7.4278
7.5953
7.59372
6.91038
5.94297
4.97305
4.07141
3.28079
2.65215
2.27043
2.09877
2.06044
2.09784
2.12418
2.21932
7.15837
6.18811
6.52477
6.64363
6.93555
7.14932
7.40182
7.54772
7.13891
6.49817
5.60235
4.68589
3.88188
3.22944
2.74496
2.45829
2.30834
2.15388
2.07733
2.19607
6.46423
5.60539
5.94706
6.14571
6.33744
6.5017
6.74913
7.10368
6.95586
6.56599
6.01104
5.32755
4.65666
4.03292
3.50827
3.06913
2.6329
2.28618
2.24086
2.67139
24.1712
27.1012
28.6726
29.2649
29.3743
28.8022
27.3521
24.5805
21.0214
17.7979
15.1667
13.261
11.8683
10.8767
10.0992
9.42727
8.9031
8.41545
7.98409
7.20668
27.0671
30.0692
31.6406
30.7033
30.4939
30.3313
28.8779
24.956
19.0372
14.2143
11.5339
10.3504
9.55792
8.95022
8.45859
8.00253
7.60991
7.22533
6.874
6.22567
28.5876
31.5199
33.665
30.2835
29.3907
30.8031
29.9681
25.1696
16.6261
10.4454
8.41604
8.2939
8.34732
8.37718
8.30834
8.10493
7.81754
7.47889
7.14911
6.51671
29.2333
30.7365
30.0919
25.3802
25.0087
30.7242
32.014
28.5893
16.1886
5.5961
5.82911
6.41555
7.01758
7.47448
7.7412
7.72622
7.6334
7.4443
7.21892
6.68301
29.3003
30.2405
28.5533
23.6325
4.19517
4.53658
4.96919
5.7092
6.72158
7.65401
8.12672
8.09433
7.95849
7.70968
7.43386
6.83355
28.6692
29.9397
30.1274
30.0242
5.03749
5.37677
5.48507
5.79709
6.46812
7.31422
7.96067
8.08015
8.01916
7.83626
7.56779
6.93373
27.0448
28.314
29.2205
31.4999
5.60551
5.89843
5.91998
6.01998
6.28514
6.83321
7.51247
8.01329
8.09732
8.02041
7.79878
7.12138
24.1816
24.2859
24.2609
27.7999
5.9833
5.43392
5.5962
5.77416
5.99971
6.34789
6.91845
7.56135
7.99042
8.07203
8.0048
7.49847
20.5423
18.3107
15.6725
14.8358
4.12413
5.1743
5.80278
6.16823
1.38237
2.13594
3.08865
3.86856
4.44404
4.97473
5.57056
6.25652
6.93507
7.43889
7.59874
7.37111
17.3249
13.651
9.8979
5.40538
4.65223
5.53389
6.10312
5.66859
2.39377
1.36094
1.60445
2.21261
2.92884
3.58451
4.24237
4.98179
5.73714
6.4085
6.94067
6.97532
14.7338
11.1332
8.08843
5.67409
5.07273
5.63588
6.11216
5.80097
3.40086
1.70534
1.37638
1.48934
1.90648
2.51104
3.16551
3.88986
4.64246
5.34819
5.99705
6.39962
12.8882
10.0221
8.06319
6.29488
5.7807
5.9353
6.20017
5.96385
4.15433
2.41235
1.54728
1.50604
1.59097
1.8899
2.38744
3.00107
3.68373
4.3725
5.02715
5.67995
11.557
9.28047
8.14743
6.9253
6.73363
6.58108
6.45138
6.18434
4.70169
3.16279
2.04206
1.63661
1.61884
1.68756
1.91224
2.31173
2.87806
3.53002
4.17046
4.94996
10.6215
8.7278
8.22508
7.39519
7.61948
7.39181
6.96997
6.52886
5.21384
3.82032
2.6883
1.99768
1.73086
1.71647
1.75136
1.91928
2.32754
2.89789