/*--------------------------------*- C++ -*----------------------------------*\
  =========                 |
  \\      /  F ield         | OpenFOAM: The Open Source CFD Toolbox
   \\    /   O peration     | Website:  https://openfoam.org
    \\  /    A nd           | Version:  9
     \\/     M anipulation  |
\*---------------------------------------------------------------------------*/
FoamFile
{
    format      ascii;
    class       volScalarField;
    location    "0.0035";
    object      rho.Air;
}
// * * * * * * * * * * * * * * * * * * * * * * * * * * * * * * * * * * * * * //

dimensions      [1 -3 0 0 0 0 0];

internalField   nonuniform List<scalar> 
9720
(
0.0175962
0.0213291
0.0220694
0.0222943
0.0223663
0.0219626
0.0208575
0.0188542
0.0162883
0.014013
0.0120908
0.0106527
0.00960392
0.00886242
0.00825619
0.00767989
0.00718007
0.00663492
0.0062334
0.00524771
0.0213757
0.0279713
0.0292586
0.0279754
0.0274649
0.0270011
0.0257475
0.0221545
0.0174539
0.0139249
0.0117284
0.0106666
0.00980317
0.00900711
0.00824509
0.00750779
0.00686489
0.00618351
0.00571018
0.00456761
0.0220822
0.0292123
0.0310813
0.0271621
0.0257996
0.0270667
0.0264003
0.0221243
0.0145174
0.00903246
0.00714447
0.00734403
0.00773661
0.00802027
0.00796585
0.00771144
0.00726621
0.00661551
0.00609373
0.0047409
0.0222584
0.0280619
0.0274334
0.0238282
0.021871
0.0272153
0.0286192
0.0257098
0.0147445
0.00426507
0.00429361
0.00467851
0.00531279
0.00597955
0.00656118
0.00660463
0.00649154
0.00616105
0.0058115
0.00463351
0.022249
0.0273999
0.0257179
0.0218815
0.0039782
0.00168862
0.00184679
0.00222423
0.00291531
0.00379005
0.00466703
0.005143
0.00516712
0.00507499
0.00489339
0.00404318
0.0217172
0.0267617
0.0267495
0.0267445
0.00196143
0.000655965
0.000696461
0.000806544
0.00105481
0.0014945
0.00207433
0.0026556
0.00316685
0.00338631
0.00336659
0.00303029
0.0204897
0.025296
0.0258357
0.0281129
0.000974971
0.000306124
0.000318394
0.000345769
0.000394608
0.000492108
0.000655126
0.000894332
0.00120296
0.00155872
0.00180494
0.0019456
0.0184126
0.0216297
0.0214688
0.0248365
0.000494748
0.000200065
0.000226882
0.000263198
0.000308697
0.000370313
0.000462303
0.000587535
0.000739328
0.000951726
0.00114114
0.00135504
0.0158602
0.0170236
0.0139007
0.0136522
0.00366009
0.00203276
0.001153
0.000669899
6.54455e-05
6.36333e-05
9.37496e-05
0.000139016
0.000193426
0.000258638
0.000341132
0.00044616
0.000569143
0.00073652
0.000923539
0.00113381
0.0136408
0.0136052
0.00865954
0.00409449
0.00177322
0.000783863
0.000405978
0.000251969
7.41745e-05
5.18052e-05
5.84026e-05
7.69593e-05
0.000112185
0.000166947
0.000245179
0.000350878
0.000474543
0.000631018
0.000807781
0.00105086
0.0117518
0.0114357
0.00682431
0.00412974
0.00197394
0.000845702
0.000421863
0.000284332
0.000111044
5.99145e-05
6.18883e-05
7.38963e-05
9.61479e-05
0.000129041
0.000186619
0.000279866
0.000399403
0.000549109
0.000712915
0.000981061
0.0103512
0.0103363
0.00699274
0.00448459
0.00236611
0.00097641
0.000460991
0.00032651
0.00016222
8.13471e-05
7.48767e-05
8.08848e-05
9.96171e-05
0.000131462
0.000173448
0.000235966
0.000332617
0.000469405
0.000621908
0.000904393
0.00933872
0.00947047
0.00735087
0.00506454
0.00303818
0.00125615
0.000531795
0.000382136
0.000223936
0.000120281
9.74796e-05
0.000100937
0.000112946
0.000139491
0.000177844
0.000229027
0.000299475
0.000409178
0.000546194
0.000828467
0.00863547
0.00871358
0.00767874
0.00571157
0.00388474
0.00173006
0.000662586
0.000458542
0.000299748
0.000180576
0.000131713
0.000133888
0.000141591
0.000158938
0.000187211
0.000233859
0.000303835
0.000398445
0.000503298
0.000757458
0.00806892
0.00800475
0.00765237
0.00634461
0.00477645
0.00234564
0.000864529
0.000569016
0.000394698
0.000267593
0.00019494
0.000178335
0.000183191
0.000191536
0.000207629
0.000248302
0.000315614
0.000405445
0.000497957
0.000718415
0.00752988
0.0073219
0.00745801
0.00645518
0.00526959
0.00300209
0.0011567
0.000711837
0.000511515
0.00038385
0.000297148
0.000249509
0.000238149
0.000242538
0.000254756
0.000286031
0.00033952
0.000416489
0.000505659
0.000684011
0.0070672
0.00673218
0.00708868
0.00638071
0.0052966
0.00354852
0.00151857
0.000887084
0.000648767
0.000521075
0.000429076
0.000357708
0.000315658
0.000318179
0.000327516
0.000346855
0.000378053
0.000443108
0.000525662
0.000663973
0.00656042
0.00610582
0.00652386
0.00612784
0.0052123
0.00369877
0.00191879
0.0011484
0.000852344
0.00070565
0.000600345
0.000509583
0.000440229
0.000419283
0.000422919
0.000430487
0.000452978
0.000508507
0.000552641
0.000678678
0.00618423
0.00567241
0.00606326
0.00583832
0.00504746
0.00366958
0.00220188
0.00138187
0.00108011
0.000919298
0.000792897
0.000680967
0.000592446
0.000537859
0.00052273
0.000528858
0.000545006
0.000563061
0.000576193
0.000868902
0.00523285
0.00457911
0.00477805
0.00472186
0.00419257
0.00325302
0.00218885
0.0015466
0.00126202
0.00114749
0.00106058
0.000970554
0.000886669
0.000809704
0.00076387
0.000726374
0.000695064
0.000705156
0.000878606
0.0387129
0.0145728
0.0183397
0.018907
0.018871
0.0187377
0.0182878
0.0172494
0.0155267
0.0134553
0.0116109
0.0100261
0.00884003
0.00792558
0.00728616
0.00675278
0.00622565
0.00577987
0.00531397
0.0049734
0.00413362
0.0184372
0.0278678
0.0295476
0.0276563
0.0264573
0.0256502
0.0242594
0.0209435
0.0167097
0.0132933
0.0111873
0.0100166
0.00895886
0.00796425
0.00704595
0.00618978
0.00545142
0.00473523
0.00426966
0.00324237
0.0190263
0.0295146
0.0318475
0.0278892
0.0255188
0.0257152
0.0245632
0.0209194
0.0135111
0.00800173
0.00600069
0.00624324
0.00671739
0.00701217
0.006916
0.00651048
0.00584296
0.00500255
0.00438299
0.00311794
0.0190469
0.0281614
0.0284267
0.02208
0.0222134
0.0294823
0.035345
0.0340269
0.0146761
0.00228421
0.00247793
0.00288186
0.00352486
0.00434022
0.00500801
0.00501357
0.00482184
0.00438854
0.00395335
0.00287405
0.0188404
0.0267091
0.0257057
0.0228827
0.00109076
0.000157665
0.000360385
0.000632926
0.00106698
0.00172212
0.00245304
0.00297727
0.00307842
0.00302179
0.00285278
0.00223528
0.0181205
0.0254936
0.0254861
0.029001
1.50022e-05
5.13491e-05
9.97506e-05
0.00016149
0.000264099
0.000458405
0.000747071
0.00106885
0.00138094
0.00157965
0.00156684
0.00143438
0.016861
0.0237667
0.0240133
0.0354501
3.65376e-05
7.08554e-05
9.54374e-05
0.000121516
0.000151257
0.000195523
0.000262953
0.000354469
0.000470786
0.000625707
0.000720492
0.000841438
0.0150119
0.0203355
0.0201855
0.0340203
8.73682e-05
0.000115385
0.000133644
0.000157961
0.000191398
0.000234207
0.000292699
0.000374776
0.00046267
0.000555588
0.000620637
0.000699071
0.0129155
0.0161251
0.0127419
0.0138032
0.00108283
8.64995e-06
2.1295e-05
5.33336e-05
3.1019e-05
5.08301e-05
7.65804e-05
0.000110048
0.000149241
0.000195851
0.000255237
0.000334235
0.000424656
0.00053852
0.000635391
0.000715107
0.011132
0.0128147
0.00754978
0.00231676
0.00016845
4.9559e-05
5.855e-05
8.84119e-05
4.54155e-05
4.1551e-05
4.8368e-05
6.75528e-05
9.99174e-05
0.000143567
0.000201935
0.00028163
0.000379648
0.000500501
0.000625606
0.000759588
0.00961163
0.0107933
0.00570193
0.00248936
0.000408057
0.00011071
8.93122e-05
0.000111929
6.66279e-05
4.75405e-05
5.04368e-05
6.05592e-05
7.9419e-05
0.000109361
0.00015936
0.000234362
0.000331241
0.000450862
0.000580811
0.000763848
0.00848885
0.00961868
0.00593091
0.00287244
0.000725386
0.000190356
0.000122356
0.000142735
9.83942e-05
6.35336e-05
6.04147e-05
6.55161e-05
8.12306e-05
0.000110234
0.000148328
0.000203344
0.000283127
0.000392998
0.000515179
0.000729921
0.00762817
0.00857905
0.00641099
0.00350193
0.00121005
0.000320708
0.000160849
0.000182217
0.000139018
9.1766e-05
7.87164e-05
8.1304e-05
9.25061e-05
0.000117056
0.000149735
0.000189848
0.000248494
0.0003382
0.000450561
0.000681854
0.00704339
0.00764745
0.00677726
0.00433117
0.00192151
0.00055505
0.000217629
0.000231641
0.000188667
0.000133721
0.000106474
0.000109325
0.000117929
0.000133168
0.000154514
0.000190506
0.000248617
0.000331415
0.00042405
0.000640486
0.00656244
0.00681028
0.00671187
0.00504227
0.00269316
0.00088868
0.000303248
0.000299043
0.000252409
0.000192953
0.000153058
0.000147164
0.000151611
0.000157508
0.000168071
0.000198537
0.000255411
0.000338673
0.000427309
0.000621919
0.00608569
0.00603615
0.00637366
0.00506383
0.00321071
0.00127068
0.000422678
0.000391646
0.0003349
0.000275279
0.000227876
0.000201469
0.000194029
0.000196069
0.00020338
0.000228826
0.00027889
0.00035387
0.000436882
0.000599706
0.00568621
0.00537178
0.00579279
0.00490221
0.00329593
0.00163428
0.000577938
0.000490883
0.000431302
0.000378157
0.000327922
0.00028253
0.000253752
0.000255395
0.0002635
0.000284775
0.000320223
0.000381058
0.000455026
0.000577555
0.00526288
0.00471786
0.0050293
0.0045102
0.0032337
0.00180743
0.000778582
0.000606705
0.000560998
0.000510812
0.000457497
0.000398371
0.000344137
0.000339873
0.00034807
0.000363715
0.000388636
0.000438267
0.000478539
0.000583779
0.00494637
0.0042897
0.00445835
0.00410361
0.00305698
0.00178189
0.000890136
0.000687593
0.000671819
0.000653983
0.000602012
0.000529944
0.000460101
0.000435544
0.000439733
0.000451217
0.000468828
0.000486437
0.000498956
0.000690697
0.00412747
0.00328544
0.00319923
0.00299765
0.0023713
0.00157688
0.000968594
0.000758011
0.00075091
0.000775518
0.000779497
0.000744987
0.000695959
0.000657309
0.000641385
0.000621623
0.000597196
0.000601515
0.000701014
0.0244947
0.0100179
0.0123612
0.0125886
0.0121678
0.0116825
0.0111708
0.010391
0.00935873
0.00832765
0.00750876
0.00678738
0.0062178
0.00573756
0.00539788
0.00511303
0.0048048
0.00451956
0.00419847
0.00396224
0.00329238
0.0125377
0.0283268
0.030295
0.0268174
0.0241675
0.0226994
0.0209064
0.0183746
0.0149214
0.0118581
0.00997036
0.00832458
0.00690073
0.00587215
0.00502663
0.00423581
0.00355915
0.00296722
0.00262186
0.00202609
0.0127996
0.0303849
0.0330284
0.0234793
0.0184913
0.0179103
0.0181254
0.0156132
0.00934079
0.00466929
0.00337663
0.00371656
0.00424953
0.0045039
0.00434964
0.00380624
0.00302945
0.00232888
0.00185775
0.00146829
0.0124126
0.0278268
0.0246978
0.0198462
0.0104384
0.011199
0.0242817
0.000826677
3.54463e-05
9.17548e-05
0.000221615
0.000439907
0.000813277
0.00140803
0.00194167
0.00197501
0.00184707
0.00159357
0.00127494
0.00112974
0.0118565
0.0249115
0.0186582
0.00044923
1.16836e-06
9.04571e-06
1.73982e-05
3.80906e-05
9.15151e-05
0.000220573
0.000423035
0.00062997
0.000752953
0.00076018
0.000710979
0.000747802
0.011144
0.022689
0.0187277
0.0262277
1.26143e-05
2.82112e-05
3.20639e-05
3.99799e-05
5.34494e-05
7.88944e-05
0.000118698
0.000170345
0.000234306
0.000306523
0.0003335
0.00043432
0.010201
0.0204959
0.0182475
0.0270886
4.1637e-05
7.56534e-05
7.89077e-05
8.30147e-05
9.05794e-05
0.000105674
0.000132505
0.000168837
0.000202322
0.000234004
0.000253355
0.000320117
0.00907368
0.0176847
0.0154199
0.000608065
0.000103794
0.000133465
0.000147277
0.000164405
0.000187378
0.000215213
0.000249963
0.000308078
0.000359275
0.000360665
0.000354838
0.0003715
0.00799191
0.0141518
0.00886905
9.96211e-05
7.38096e-07
9.82861e-06
3.47654e-05
8.825e-05
3.66874e-05
6.01555e-05
8.69627e-05
0.000118547
0.000152402
0.00018896
0.000233196
0.000293127
0.000361771
0.000465626
0.000499533
0.000494107
0.00718602
0.0110893
0.00374205
8.45807e-05
6.81769e-06
2.32674e-05
6.51669e-05
0.000114823
5.54697e-05
4.30349e-05
5.01826e-05
7.09715e-05
0.000104354
0.000145458
0.000194276
0.00025712
0.000339094
0.000436551
0.000549317
0.000620097
0.00649329
0.00931719
0.00296361
0.000200991
1.49578e-05
2.68601e-05
6.80791e-05
0.000127731
7.90002e-05
4.9731e-05
5.18098e-05
6.02428e-05
7.78484e-05
0.000108193
0.000153425
0.000215633
0.000298533
0.000398536
0.000512436
0.0006603
0.00595849
0.00775543
0.00330558
0.000396915
3.75755e-05
3.45091e-05
7.19571e-05
0.000144299
0.000107566
6.8686e-05
6.03697e-05
6.45002e-05
7.89144e-05
0.000104476
0.000139743
0.000188798
0.000258345
0.000353379
0.00045944
0.000637182
0.00551183
0.00646252
0.00390838
0.000755485
9.8067e-05
4.77545e-05
7.94369e-05
0.000166347
0.000138656
9.82638e-05
7.75651e-05
7.895e-05
8.7873e-05
0.00010937
0.000138246
0.000172584
0.000224144
0.000304336
0.000401967
0.000599685
0.00521072
0.00556913
0.00431168
0.00137924
0.000247913
7.43453e-05
9.49e-05
0.000192677
0.000172057
0.000135057
0.000104001
0.000104419
0.000109665
0.000122633
0.000142243
0.000170545
0.00021655
0.000286191
0.000369461
0.000562693
0.00496577
0.00483187
0.00421083
0.00198671
0.000476544
0.000117619
0.000123126
0.000225827
0.000213181
0.000179994
0.00014434
0.000136352
0.000138275
0.000143042
0.000151697
0.000173944
0.00021875
0.000289669
0.000368541
0.000545783
0.0046955
0.00414276
0.00376169
0.00205476
0.000704088
0.000182464
0.000159067
0.000283431
0.000268513
0.000238232
0.00020251
0.00018108
0.000170592
0.000171779
0.000175636
0.000193194
0.000233432
0.000299933
0.000374599
0.000532377
0.00444662
0.00354562
0.00306793
0.00194191
0.000833713
0.000263663
0.000191825
0.000322811
0.000336305
0.000316199
0.000280446
0.000245319
0.000217233
0.000217472
0.000220922
0.000235593
0.000266324
0.000320541
0.000389542
0.000511511
0.00415985
0.00300217
0.0024009
0.00169798
0.000839727
0.00034943
0.000226252
0.000327565
0.000434152
0.000409127
0.000378086
0.000336296
0.00028975
0.000284872
0.000290009
0.000302325
0.000323215
0.000368724
0.000412757
0.000508708
0.00394224
0.00268048
0.0019614
0.00138395
0.00077786
0.000371919
0.000247276
0.000326058
0.000454176
0.0005256
0.000490613
0.000439269
0.000382149
0.00036313
0.000366794
0.00037681
0.000393718
0.000415499
0.000431089
0.000541819
0.00329202
0.00207107
0.00152341
0.00118946
0.000795125
0.000458503
0.000316308
0.000347878
0.000451541
0.000573366
0.000624764
0.000608258
0.000576777
0.00054818
0.000538802
0.000531119
0.000514698
0.00051283
0.000545602
0.0101262
0.00751015
0.00825619
0.00844152
0.00824489
0.00783033
0.0074274
0.00693826
0.00632372
0.00577222
0.00544203
0.0051523
0.00491118
0.00468481
0.0045303
0.00439164
0.00420746
0.00400377
0.00374434
0.00354387
0.00295131
0.0082944
0.0149
0.0139182
0.0104065
0.00856454
0.00789415
0.00682794
0.00538865
0.00411934
0.00256279
0.00191709
0.00393091
0.00393182
0.00374016
0.00337815
0.00291935
0.00248461
0.00210961
0.00191228
0.00160726
0.00850161
0.0144196
0.0139957
0.00870751
0.00849701
0.00930287
0.00971037
0.00672024
0.00372676
0.00101633
0.00044386
0.000542553
0.000842773
0.00121678
0.00125707
0.00115629
0.00094724
0.000803921
0.000765768
0.000936803
0.00833933
0.0110368
0.00919992
0.00035824
0.000893216
0.00248189
0.0281522
0.000365913
4.09434e-05
3.57232e-06
7.08842e-06
1.65497e-05
4.42104e-05
0.000116685
0.000216783
0.000280252
0.000293615
0.00030899
0.000324124
0.000603421
0.00791017
0.00882332
0.00932129
0.000721376
2.6168e-06
1.26429e-05
1.53365e-05
1.9614e-05
2.68824e-05
3.94395e-05
5.99018e-05
8.85456e-05
0.000118827
0.000153176
0.000176692
0.00038453
0.00745787
0.00778463
0.00975612
0.0132682
2.03022e-05
3.99188e-05
4.2638e-05
4.57931e-05
5.05768e-05
5.9822e-05
7.40585e-05
9.17482e-05
0.000110531
0.000134628
0.000153862
0.000265395
0.00693166
0.00658033
0.00957693
0.0292916
6.05472e-05
9.66959e-05
9.82812e-05
0.00010087
0.000105441
0.000113484
0.000127474
0.000144673
0.000158696
0.000171502
0.000182502
0.000242758
0.00630576
0.00508566
0.00662877
0.000486583
0.000136159
0.000150687
0.000164159
0.000180111
0.000200471
0.000225382
0.000254331
0.000302427
0.000354002
0.000349176
0.000325042
0.00032656
0.005733
0.00387747
0.00373615
4.65331e-05
1.57131e-06
1.54616e-05
5.06779e-05
0.000117826
4.25837e-05
6.38379e-05
9.3834e-05
0.000127127
0.000160373
0.000194047
0.000232946
0.000286241
0.000345146
0.000438311
0.000474393
0.000463783
0.00538176
0.00222302
0.000941929
2.54586e-06
9.12051e-06
3.18127e-05
8.16412e-05
0.000133478
6.46407e-05
4.33233e-05
5.03367e-05
7.19823e-05
0.000106123
0.000146707
0.000191943
0.000247353
0.000319452
0.000409062
0.000510763
0.000583226
0.00507349
0.00157621
0.000377542
5.12468e-06
1.12855e-05
3.39235e-05
8.2727e-05
0.000145746
9.13018e-05
5.11781e-05
5.20036e-05
5.83432e-05
7.4437e-05
0.000104658
0.00014746
0.000202661
0.00027741
0.000370158
0.000476163
0.000616003
0.0048142
0.00381601
0.000438794
1.24442e-05
1.47707e-05
3.6526e-05
8.47659e-05
0.000159882
0.000120219
7.31616e-05
5.95231e-05
6.20497e-05
7.50135e-05
9.80067e-05
0.000130769
0.000175986
0.00023945
0.000326809
0.000425422
0.000591565
0.00457684
0.00381812
0.000722006
3.55362e-05
2.1106e-05
4.05012e-05
8.86662e-05
0.000178454
0.000148904
0.000104776
7.56992e-05
7.58887e-05
8.29542e-05
0.000101881
0.000128249
0.000158009
0.000204423
0.000279121
0.000369067
0.00055079
0.00442247
0.00364323
0.00114473
0.000104395
3.32731e-05
4.86538e-05
9.57382e-05
0.000201006
0.000178584
0.000140443
0.000102597
9.87177e-05
0.000102665
0.000114206
0.0001318
0.000154552
0.000191552
0.000249953
0.00032559
0.000507682
0.00429047
0.00331796
0.00123913
0.000210288
5.39954e-05
6.17772e-05
0.000107742
0.000228205
0.000214455
0.000180715
0.000140322
0.000128404
0.000128856
0.000132544
0.00013943
0.000156157
0.000191328
0.000250124
0.000320066
0.000488662
0.00412081
0.00290398
0.00116613
0.000286733
8.33305e-05
7.81789e-05
0.000122867
0.000277709
0.000262587
0.000230394
0.000191087
0.000169676
0.000156922
0.000154971
0.000156582
0.000168448
0.000199628
0.000257031
0.000325703
0.000479301
0.00393855
0.00250867
0.000992255
0.000308651
0.000113162
9.5312e-05
0.000134456
0.000306389
0.000319079
0.00029779
0.000260368
0.000228183
0.000198902
0.000190858
0.000191417
0.000200235
0.000224983
0.000273979
0.000336582
0.000463092
0.00370363
0.00215395
0.000855524
0.00032849
0.000146078
0.000117731
0.000146176
0.000298679
0.00040641
0.000379292
0.000348179
0.00031101
0.000266695
0.00024673
0.000248453
0.000257183
0.000274834
0.000312495
0.000357915
0.000448516
0.00351987
0.001965
0.000815625
0.000344189
0.000168107
0.00013522
0.0001567
0.000275302
0.000417385
0.000483581
0.00045111
0.000404848
0.000351071
0.00031699
0.000317717
0.000325099
0.000337166
0.000358516
0.000376574
0.000454629
0.00294727
0.00164296
0.000972923
0.00063044
0.000388864
0.00025266
0.000217308
0.000281817
0.000405943
0.00052852
0.000576108
0.000558616
0.000526457
0.000492249
0.000481306
0.00047571
0.000462219
0.000448976
0.000455519
0.00378271
0.00708902
0.00765235
0.00786152
0.00775886
0.00736557
0.0069822
0.00652544
0.00594997
0.00542819
0.00513319
0.00487199
0.00465572
0.00445998
0.0043299
0.00421298
0.00405251
0.00386559
0.00361742
0.00342509
0.00285318
0.00764407
0.00251432
0.00270903
0.00258261
0.00256539
0.00263104
0.00250681
0.00196966
0.00136956
0.000493246
0.000188993
0.00256955
0.00329072
0.00319668
0.00296229
0.00261246
0.0022624
0.00194558
0.00177714
0.00152879
0.00785672
0.00274984
0.00469041
0.00507788
0.00675501
0.0069543
0.00731363
0.00498106
0.00204626
0.000335586
4.9647e-05
8.87586e-05
0.000233144
0.000440872
0.00061161
0.000609095
0.000581092
0.000577971
0.000592682
0.000859118
0.00779744
0.00245227
0.004886
0.00149095
0.00224814
8.88741e-10
0.021819
0.000412769
2.30226e-05
4.29748e-06
6.36567e-06
8.64112e-06
1.31206e-05
2.28818e-05
4.14479e-05
7.11228e-05
0.000106315
0.000162006
0.000208496
0.000541748
0.00739628
0.00252445
0.00572152
9.593e-05
3.20658e-06
1.4946e-05
1.79158e-05
2.09737e-05
2.54817e-05
3.37714e-05
4.81525e-05
6.93473e-05
9.22188e-05
0.000121811
0.000145924
0.000350367
0.00698934
0.00268252
0.00704088
0.000316288
2.57929e-05
4.81198e-05
5.16586e-05
5.48244e-05
5.83506e-05
6.5447e-05
7.74673e-05
9.12554e-05
0.000106475
0.000128587
0.000148614
0.000253737
0.00652213
0.00251884
0.00744249
0.0241588
7.36944e-05
0.00011308
0.0001149
0.000117218
0.00012097
0.000127136
0.000138155
0.000153429
0.00016514
0.000174844
0.000183834
0.000239328
0.005958
0.00194685
0.00500032
0.000303136
0.000154496
0.000164595
0.000178491
0.000193725
0.000212715
0.000236232
0.00026272
0.000304106
0.000358166
0.000355386
0.000330828
0.000328811
0.00543992
0.00142506
0.00227252
2.818e-05
2.22248e-06
1.93915e-05
5.88678e-05
0.000127547
4.30062e-05
6.58815e-05
9.97818e-05
0.000135563
0.000169638
0.000202456
0.000238836
0.000287893
0.000342732
0.000426912
0.000471884
0.000463146
0.00513682
0.000515882
0.000362984
3.41669e-06
1.18538e-05
3.80865e-05
9.03381e-05
0.000138236
6.49312e-05
4.20766e-05
4.96745e-05
7.32726e-05
0.000109421
0.000151065
0.000195197
0.000246581
0.000312554
0.000398388
0.000494759
0.000575031
0.0048654
0.000193499
5.51264e-05
4.93746e-06
1.40408e-05
4.08184e-05
9.23369e-05
0.000150348
9.2987e-05
5.00968e-05
5.06939e-05
5.62534e-05
7.20942e-05
0.000103337
0.000146583
0.000198633
0.000268048
0.000357563
0.000461295
0.000602951
0.00462945
0.00263684
9.05764e-05
6.76071e-06
1.6351e-05
4.31277e-05
9.4753e-05
0.000164491
0.000122418
7.20238e-05
5.70748e-05
5.91376e-05
7.16972e-05
9.38446e-05
0.000125603
0.000168788
0.000229499
0.000314303
0.000411548
0.000577666
0.00441536
0.00330358
0.000234986
1.09275e-05
2.02651e-05
4.60798e-05
9.8374e-05
0.000182745
0.00015117
0.000103712
7.23739e-05
7.21306e-05
7.88016e-05
9.67842e-05
0.000121674
0.000151185
0.00019597
0.000267989
0.000356132
0.000534674
0.0042741
0.0031999
0.000448315
2.09937e-05
2.84472e-05
5.25457e-05
0.000103831
0.000204476
0.000180153
0.000139889
9.94313e-05
9.36867e-05
9.6833e-05
0.000107396
0.000125343
0.000146834
0.000179742
0.000233453
0.000306352
0.000485888
0.00415042
0.00296325
0.00063731
4.17323e-05
4.30936e-05
6.33443e-05
0.000113627
0.000229382
0.000214085
0.000179276
0.000136684
0.000121427
0.000121363
0.00012535
0.000132665
0.000147266
0.000177216
0.00023014
0.000296458
0.000463614
0.00399131
0.00262161
0.000640502
7.50782e-05
6.10492e-05
7.57126e-05
0.000127148
0.000273561
0.000259598
0.00022589
0.000184083
0.000160115
0.000147748
0.000145099
0.000145939
0.000155489
0.000182836
0.000235461
0.000301467
0.000454572
0.00381555
0.00228552
0.000619175
0.000112513
7.9245e-05
8.90414e-05
0.000136609
0.000307411
0.000311696
0.000288646
0.000248912
0.000215739
0.000187522
0.000175685
0.000175196
0.000181727
0.000203273
0.000249807
0.00031034
0.000439758
0.00358446
0.00197744
0.000615216
0.000168892
0.000104629
0.000108917
0.000145217
0.000299972
0.000395475
0.00036716
0.000333152
0.000295996
0.000253748
0.000227043
0.000227044
0.000233497
0.000249185
0.00028418
0.000328596
0.000419144
0.00340498
0.00181533
0.000628915
0.00021548
0.00012745
0.000126771
0.000153945
0.000275718
0.00041135
0.000465395
0.000433635
0.000388566
0.000336676
0.000295302
0.000292988
0.000299101
0.000309354
0.000328138
0.000348185
0.000417607
0.00284889
0.00155605
0.000888145
0.000560033
0.000346208
0.000236227
0.000210316
0.000279433
0.000401168
0.000518318
0.00056097
0.000542127
0.000507705
0.000468238
0.000455312
0.000449837
0.000436844
0.000417785
0.000417077
0.00239736
0.00708844
0.00765135
0.00786291
0.00777557
0.00736805
0.00698138
0.00652595
0.00595083
0.00542699
0.00512639
0.00486407
0.00464666
0.00445054
0.00432165
0.00420579
0.00404576
0.00385873
0.00360988
0.00341701
0.00284557
0.00764134
0.00249704
0.0027068
0.00262497
0.00255124
0.00259347
0.00247497
0.00196046
0.00134519
0.000480286
0.000182157
0.00251369
0.00327193
0.00318199
0.00295078
0.00260142
0.00224965
0.00193171
0.00176328
0.00151898
0.00784839
0.0027538
0.00470175
0.00506724
0.00695699
0.00691616
0.00720723
0.00495235
0.00197002
0.00032315
4.69042e-05
8.51876e-05
0.000228389
0.000432656
0.000602044
0.000599641
0.00057202
0.000569439
0.000584734
0.000852313
0.00778645
0.00246192
0.00494341
0.00158308
0.006155
0.000144906
0.0170858
0.000217637
1.44229e-05
4.42216e-06
6.57713e-06
8.89902e-06
1.3326e-05
2.27838e-05
4.06717e-05
6.9408e-05
0.000104279
0.000160284
0.000207098
0.000538111
0.00739612
0.00258243
0.00581176
1.50438e-06
3.29279e-06
1.53162e-05
1.85491e-05
2.17659e-05
2.62748e-05
3.44661e-05
4.85802e-05
7.00396e-05
9.37102e-05
0.000124022
0.000148188
0.000349233
0.00698914
0.00274567
0.0071788
0.00302006
2.71244e-05
5.04961e-05
5.40336e-05
5.73269e-05
6.10213e-05
6.83129e-05
8.06193e-05
9.42787e-05
0.000109536
0.000131685
0.000151736
0.00025577
0.00652213
0.00254381
0.0075009
0.0272448
8.26668e-05
0.000120352
0.000121833
0.00012395
0.000127589
0.000133773
0.000145155
0.000160745
0.000172279
0.000181349
0.0001897
0.000243674
0.00595937
0.00196893
0.00503546
0.000737823
0.000172626
0.000178033
0.000191973
0.000207572
0.000227169
0.000251527
0.000279153
0.000321381
0.000373766
0.00036977
0.000343048
0.000337003
0.005444
0.0014372
0.00231498
2.94966e-05
2.67724e-06
2.36294e-05
6.65974e-05
0.000136484
4.18358e-05
7.30356e-05
0.000109586
0.000146999
0.000182407
0.000216694
0.000254712
0.000304559
0.000358865
0.000442632
0.000485556
0.000475226
0.00514438
0.000513804
0.000348744
3.78607e-06
1.30504e-05
4.11321e-05
9.59945e-05
0.000144041
6.51815e-05
4.37268e-05
5.27113e-05
7.91773e-05
0.000118368
0.000162692
0.000208793
0.000261091
0.000327648
0.000413137
0.0005099
0.000587933
0.00487846
0.000189846
4.82421e-05
5.48627e-06
1.53205e-05
4.35862e-05
9.73301e-05
0.000156794
9.41894e-05
5.13024e-05
5.29388e-05
5.9702e-05
7.75345e-05
0.000111703
0.000156991
0.000210162
0.000280601
0.000370693
0.000475232
0.000615728
0.0046469
0.00254388
8.34687e-05
7.44892e-06
1.77646e-05
4.58376e-05
9.93248e-05
0.000171339
0.000125421
7.32342e-05
5.88922e-05
6.1961e-05
7.59576e-05
9.92268e-05
0.000132799
0.000177438
0.000239297
0.000325343
0.000423763
0.000589731
0.00443459
0.00328377
0.000223668
1.16579e-05
2.17136e-05
4.89251e-05
0.000102817
0.000190045
0.000156005
0.00010588
7.42361e-05
7.45084e-05
8.23069e-05
0.000101639
0.000127052
0.0001572
0.000203043
0.000276784
0.000366399
0.000545441
0.00429246
0.00318714
0.000429806
2.14639e-05
2.98189e-05
5.56928e-05
0.00010867
0.00021205
0.000185987
0.000143136
0.00010152
9.61959e-05
9.98163e-05
0.000111419
0.00013011
0.00015106
0.000184152
0.000239402
0.000314177
0.000495178
0.00416672
0.00295199
0.000610344
4.12096e-05
4.43377e-05
6.67428e-05
0.000119036
0.000236462
0.000219873
0.00018304
0.000139297
0.000124315
0.000124507
0.000128656
0.000136415
0.000151041
0.000181059
0.00023463
0.000302031
0.00047098
0.00400355
0.00260685
0.000618076
7.31129e-05
6.27953e-05
7.89692e-05
0.000132934
0.000279259
0.000265132
0.000230008
0.000187324
0.000163353
0.000150943
0.000148557
0.000149377
0.000159001
0.000186709
0.000239981
0.000306893
0.000460712
0.00382214
0.00226615
0.000599047
0.000109671
8.14091e-05
9.21636e-05
0.000142272
0.000314821
0.000316789
0.000293232
0.000253152
0.000219532
0.000190946
0.000179235
0.000178488
0.000185173
0.000207009
0.000254439
0.00031565
0.000444728
0.00358481
0.00195584
0.00059759
0.000165412
0.000106865
0.000111823
0.000150257
0.000307325
0.000401184
0.000372876
0.000338596
0.000300793
0.000257792
0.000230658
0.000230571
0.000237172
0.000253415
0.000289187
0.000333501
0.000422535
0.00340156
0.00179402
0.000613542
0.000211744
0.000129465
0.000129728
0.000158521
0.000282843
0.000419579
0.000471993
0.000440226
0.000394604
0.000341728
0.000299693
0.000297236
0.000303564
0.000314201
0.000333225
0.000352655
0.000420459
0.00284255
0.00154284
0.000878142
0.000552453
0.000342899
0.000236667
0.000213643
0.000285562
0.0004094
0.000526711
0.000568808
0.000549482
0.000514144
0.000474167
0.000461138
0.00045545
0.000442636
0.000422514
0.000420901
0.00237544
0.00750693
0.0082571
0.00845603
0.00828776
0.00784264
0.0074206
0.00692364
0.00630518
0.00574475
0.00541248
0.00512323
0.004884
0.0046611
0.00451136
0.0043774
0.00419621
0.0039927
0.00373107
0.00352829
0.00293359
0.00826857
0.014662
0.0140782
0.0105061
0.00829727
0.00751647
0.00656715
0.00523216
0.00389851
0.00239443
0.00181123
0.00389121
0.00389856
0.00371453
0.0033581
0.00290026
0.002462
0.00208429
0.00188496
0.0015832
0.00845537
0.0139545
0.013832
0.00884712
0.00983243
0.00934201
0.00948153
0.00659414
0.00348859
0.000952746
0.000425012
0.000532459
0.000835312
0.00120329
0.00124163
0.00113856
0.000926939
0.000784184
0.000746583
0.000915578
0.00830419
0.0109969
0.00910561
0.00108421
0.00566914
2.22045e-16
0.0187994
0.000173244
2.10788e-05
3.93843e-06
7.53421e-06
1.65844e-05
4.24478e-05
0.000109516
0.000206528
0.000270147
0.000285666
0.000303302
0.000319193
0.000590855
0.00790771
0.00928253
0.00881297
1.31626e-06
3.43441e-06
1.39891e-05
1.71377e-05
2.15942e-05
2.93559e-05
4.23689e-05
6.28595e-05
9.13756e-05
0.000122494
0.000158094
0.000182001
0.00038067
0.00746397
0.00825336
0.0101324
0.00679271
2.7145e-05
4.6865e-05
4.97244e-05
5.29064e-05
5.76607e-05
6.70412e-05
8.17426e-05
9.93127e-05
0.000119115
0.00014404
0.0001639
0.000271513
0.00694549
0.00682113
0.00979533
0.0309569
8.27597e-05
0.000115493
0.00011642
0.000118389
0.00012256
0.000130369
0.000144439
0.000161862
0.000175219
0.000187184
0.000197493
0.00025503
0.00632626
0.00527956
0.00665701
0.000192978
0.000175162
0.000179816
0.000194435
0.000211848
0.000234666
0.000261947
0.000292815
0.000344131
0.00039203
0.000384521
0.000354776
0.000348423
0.00575602
0.00393072
0.00359535
2.24741e-05
2.64877e-06
2.15516e-05
6.59313e-05
0.000141416
4.50634e-05
7.72531e-05
0.000114235
0.000152918
0.000190672
0.000228092
0.000270376
0.000326601
0.000386414
0.000480745
0.00051289
0.000498269
0.00541093
0.00231331
0.000942327
3.04351e-06
1.09085e-05
3.75688e-05
9.49783e-05
0.000151863
6.79689e-05
4.81038e-05
5.78541e-05
8.58694e-05
0.000127338
0.000173818
0.000223635
0.000283099
0.00035895
0.000449752
0.000554359
0.000621158
0.00510765
0.00165372
0.000379387
6.06052e-06
1.3559e-05
4.00838e-05
9.57517e-05
0.000165003
9.7767e-05
5.56688e-05
5.81756e-05
6.68334e-05
8.6708e-05
0.000123127
0.000171788
0.000231978
0.000311541
0.000407648
0.000516714
0.000654023
0.00485528
0.00383113
0.000464891
1.41274e-05
1.74573e-05
4.29482e-05
9.7645e-05
0.000180465
0.000131191
7.81881e-05
6.51845e-05
6.95817e-05
8.60192e-05
0.00011206
0.000149484
0.000199247
0.00026739
0.000359435
0.000461611
0.000627672
0.00462163
0.00383265
0.000742967
3.77356e-05
2.43942e-05
4.70622e-05
0.000101655
0.000201002
0.000164734
0.000112728
8.21446e-05
8.33331e-05
9.29453e-05
0.00011514
0.000142763
0.00017523
0.000226138
0.000306297
0.000400503
0.000583803
0.00446488
0.00364955
0.00111035
0.000100322
3.67531e-05
5.55681e-05
0.000108826
0.000225198
0.000197953
0.000152655
0.000111173