/*--------------------------------*- C++ -*----------------------------------*\
  =========                 |
  \\      /  F ield         | OpenFOAM: The Open Source CFD Toolbox
   \\    /   O peration     | Website:  https://openfoam.org
    \\  /    A nd           | Version:  9
     \\/     M anipulation  |
\*---------------------------------------------------------------------------*/
FoamFile
{
    format      ascii;
    class       volScalarField;
    location    "0.0035";
    object      rho.C4;
}
// * * * * * * * * * * * * * * * * * * * * * * * * * * * * * * * * * * * * * //

dimensions      [1 -3 0 0 0 0 0];

internalField   nonuniform List<scalar> 
9720
(
24.2052
27.1207
28.7
29.3304
29.4578
28.9026
27.4349
24.6323
21.0355
17.7968
15.1567
13.2465
11.8548
10.8653
10.0885
9.41856
8.89659
8.41315
7.98737
7.22513
27.0598
30.0446
31.6024
30.7841
30.5471
30.3849
28.9561
25.0019
18.999
14.1607
11.4985
10.3229
9.5368
8.93522
8.44523
7.988
7.59453
7.21113
6.86254
6.22355
28.5718
31.4853
33.6007
30.211
29.2221
30.7714
30.053
25.2357
16.5081
10.3198
8.33267
8.27401
8.34236
8.38165
8.31083
8.10252
7.81068
7.46978
7.13948
6.51176
29.2321
30.7246
30.2835
26.8609
25.1751
31.4086
32.9948
29.6778
16.6378
5.45824
5.71117
6.3508
7.01699
7.49629
7.75109
7.73068
7.63188
7.43816
7.2097
6.67614
29.34
30.3522
28.9136
25.1005
4.60444
4.53905
4.94005
5.66635
6.69409
7.66702
8.16247
8.12994
7.9889
7.73185
7.44829
6.84324
28.7493
30.1071
30.3791
30.9097
5.33653
5.43162
5.52523
5.8195
6.48421
7.35157
8.00824
8.11653
8.05434
7.86809
7.59352
6.95318
27.1909
28.5323
29.4686
32.4734
5.9127
5.98064
5.98914
6.0759
6.32836
6.86685
7.5509
8.05362
8.13628
8.06141
7.83978
7.15808
24.341
24.523
24.5525
28.7539
6.37362
5.51869
5.67453
5.84676
6.06944
6.41199
6.9767
7.62654
8.051
8.13039
8.06562
7.56062
20.7215
18.5722
15.9929
15.4938
4.40705
5.37103
5.96438
6.41546
1.45235
2.16581
3.1308
3.92279
4.50898
5.04796
5.64912
6.33674
7.0184
7.52474
7.68111
7.45704
17.4963
13.8621
10.0922
5.45186
4.59716
5.48165
6.05328
5.63759
2.40744
1.38161
1.63301
2.25766
2.99094
3.66031
4.33095
5.07878
5.84052
6.51891
7.05414
7.09363
14.8775
11.2834
8.21849
5.70731
5.01626
5.57721
6.06264
5.76908
3.41249
1.72971
1.40502
1.52585
1.95973
2.58251
3.25327
3.99251
4.75912
5.47923
6.143
6.55868
12.998
10.1216
8.13055
6.31213
5.72896
5.87739
6.15151
5.93666
4.16292
2.43953
1.58016
1.54648
1.63728
1.94852
2.46457
3.10081
3.8081
4.52174
5.20194
5.88242
11.6367
9.34402
8.18868
6.91989
6.69087
6.53105
6.4064
6.16449
4.71183
3.19406
2.08402
1.68184
1.67086
1.74669
1.98503
2.40875
3.00797
3.69559
4.37003
5.1928
10.6776
8.76201
8.22919
7.37499
7.59333
7.34205
6.92742
6.51599
5.23135
3.86355
2.74598
2.05507
1.79024
1.78767
1.836
2.0255
2.46868
3.07964
3.67695
4.5214
9.92754
8.29363
8.16625
7.63864
8.07248
7.95035
7.56751
7.07398
5.81762
4.53943
3.44652
2.62262
2.09364
1.87058
1.86872
2.00389
2.26514
2.67477
3.14197
3.97844
9.28144
7.85774
7.97366
7.62262
8.04317
8.08702
8.04311
7.68225
6.48401
5.27997
4.20067
3.29369
2.57123
2.1278
2.03352
2.09923
2.27272
2.50343
2.87883
3.56373
8.77977
7.48345
7.69894
7.53751
7.90794
8.02767
8.1243
8.0868
7.14803
6.02902
4.96686
4.0118
3.19922
2.62877
2.35879
2.29562
2.33775
2.51815
2.79753
3.14288
8.31401
7.11679
7.37484
7.363
7.66131
7.84571
8.04796
8.15412
7.6311
6.69943
5.68506
4.72657
3.89863
3.27235
2.81976
2.56409
2.55783
2.6612
2.72871
2.91335
7.90066
6.77997
7.05823
7.15017
7.3905
7.58095
7.82971
8.08134
7.75713
7.20502
6.35007
5.41678
4.5874
3.89336
3.3239
3.00016
2.88445
2.76214
2.72686
2.98805
7.15486
6.15729
6.4487
6.63272
6.80048
6.9509
7.16326
7.55388
7.51567
7.21589
6.72555
6.08017
5.41568
4.75605
4.19226
3.75307
3.30677
3.00162
3.05227
3.95442
22.6757
25.5154
27.0457
27.4122
27.3482
26.8138
25.4315
22.8202
19.4242
16.3634
13.8849
12.1102
10.8083
9.89752
9.17728
8.54981
8.06982
7.63479
7.24627
6.54566
25.4639
28.3535
29.8916
28.5819
28.1662
28.2594
27
23.2922
17.6175
13.0469
10.4636
9.40567
8.7112
8.18008
7.73817
7.30768
6.93555
6.58372
6.26143
5.67024
26.9653
29.7905
31.3865
27.4911
26.9027
28.8663
28.3247
23.7409
15.4629
9.56712
7.55385
7.48956
7.57916
7.6775
7.64426
7.47638
7.21254
6.90008
6.59263
6.00792
27.431
28.6812
27.5658
24.3513
24.1342
30.1151
31.5197
28.1403
15.9039
5.13643
5.27115
5.75122
6.35747
6.81799
7.13106
7.12709
7.05519
6.89538
6.6917
6.19607
27.366
28.1077
26.4843
23.1638
4.17411
4.29449
4.61577
5.17779
6.0366
6.93713
7.55025
7.56505
7.47371
7.25335
6.97882
6.3887
26.7268
28.05
28.4928
29.6226
5.00134
5.16915
5.2247
5.4224
5.90485
6.68267
7.35535
7.58243
7.5469
7.39456
7.13173
6.50814
25.1846
26.6161
27.8692
31.1009
5.63995
5.6933
5.62922
5.66083
5.80729
6.21421
6.83431
7.37064
7.57092
7.53265
7.35331
6.72784
22.4678
22.7982
23.1554
27.4712
6.04681
5.20303
5.29623
5.39212
5.54721
5.80646
6.26227
6.8536
7.33996
7.52841
7.49449
7.08859
19.0201
17.0879
14.8902
15.2222
4.0329
5.08279
5.72414
6.07004
1.31339
1.95853
2.82806
3.54471
4.0621
4.50796
5.00753
5.61813
6.26514
6.81623
7.07954
6.92891
15.9751
12.6062
9.19076
5.02313
4.2962
5.20486
5.76316
5.24675
2.12858
1.16807
1.40045
1.95675
2.60805
3.185
3.75899
4.43501
5.15904
5.83004
6.40762
6.53631
13.5367
10.1011
7.22573
5.14544
4.61007
5.25673
5.7008
5.34886
3.03312
1.46885
1.15557
1.2527
1.60814
2.15224
2.77182
3.45881
4.17701
4.86037
5.49914
5.97596
11.8165
9.12318
7.25459
5.60525
5.16778
5.45252
5.73376
5.46533
3.74112
2.11128
1.29437
1.26856
1.34746
1.63734
2.11632
2.68402
3.31957
3.97103
4.59824
5.30769
10.5614
8.47288
7.36366
6.19084
6.01131
5.94427
5.88563
5.64372
4.2497
2.80736
1.72631
1.38606
1.40428
1.50136
1.71045
2.06706
2.58972
3.20503
3.82964
4.6717
9.69022
7.98084
7.49877
6.66588
6.8897
6.7005
6.29864
5.92118
4.69475
3.40215
2.32829
1.74708
1.55867
1.53404
1.55549
1.68835
2.05805
2.62253
3.22319
4.08989
9.00226
7.56891
7.48257
7.02542
7.48389
7.33534
6.90065
6.38539
5.19364
3.99003
2.98724
2.28722
1.83839
1.59548
1.5694
1.66969
1.9128
2.32381
2.80425
3.62099
8.40227
7.16438
7.33872
7.03331
7.49192
7.57779
7.41688
6.96052
5.79229
4.66675
3.69727
2.90202
2.25745
1.8004
1.70866
1.77341
1.96055
2.23438
2.59597
3.24192
7.9463
6.81489
7.09638
6.97601
7.39515
7.54016
7.60592
7.42591
6.42378
5.37883
4.424
3.56669
2.82096
2.24233
2.0061
2.01853
2.08642
2.26102
2.52039
2.8556
7.53182
6.4822
6.80223
6.8315
7.17583
7.3851
7.56284
7.59052
6.95935
6.04404
5.11143
4.23161
3.45651
2.84891
2.48166
2.32684
2.31474
2.39708
2.45755
2.60646
7.15786
6.17409
6.50792
6.63601
6.90633
7.12003
7.37755
7.54639
7.18687
6.60221
5.7566
4.87442
4.09812
3.47297
3.00621
2.73917
2.62199
2.49844
2.45289
2.65744
6.47554
5.60104
5.9394
6.14835
6.32657
6.49184
6.74319
7.11086
7.00976
6.67652
6.17951
5.54835
4.92637
4.34497
3.8543
3.44648
3.03272
2.70366
2.72497
3.4157
22.1059
24.9167
26.3895
26.5528
26.2201
25.7135
24.3591
21.8194
18.5402
15.601
13.2311
11.5523
10.3292
9.47548
8.80088
8.20497
7.73923
7.31538
6.94006
6.25683
24.9054
27.6565
29.0198
27.3797
26.6556
26.9459
25.77
22.1677
16.7489
12.4117
9.91613
8.95551
8.36109
7.8976
7.49135
7.08495
6.7189
6.36854
6.05195
5.46929
26.359
28.9742
29.7658
25.4942
25.2597
27.4779
27.0279
22.5344
14.6497
9.16002
7.18298
7.14119
7.2221
7.36488
7.36612
7.25125
7.02345
6.72708
6.42768
5.84936
26.5297
27.3167
25.2533
21.8289
22.7999
28.736
30.0787
26.6955
14.8292
4.95601
5.089
5.55354
6.16299
6.61265
6.9265
6.92791
6.86069
6.70486
6.50151
6.0074
26.2006
26.5399
24.777
21.6339
3.75399
4.07724
4.39407
4.89363
5.65511
6.52183
7.25406
7.39137
7.32653
7.13751
6.86539
6.2608
25.6554
26.7821
27.1747
28.4974
4.81749
4.94715
4.98889
5.15522
5.5411
6.28151
7.04194
7.44252
7.42469
7.29436
7.03958
6.40795
24.171
25.5223
26.7748
29.8243
5.40726
5.48577
5.41148
5.43224
5.54425
5.86823
6.46917
7.07342
7.37505
7.35887
7.22223
6.64411
21.53
21.8195
22.2208
26.3962
5.76847
4.95818
5.06943
5.16369
5.30924
5.5211
5.88645
6.44042
6.993
7.27992
7.2664
6.94362
18.1854
16.327
14.2551
14.4112
3.68628
4.76395
5.44592
5.77989
1.18544
1.85052
2.6756
3.36278
3.85862
4.24727
4.67162
5.21852
5.83616
6.40623
6.78176
6.70357
15.2401
11.988
8.7382
4.62774
3.8938
4.86952
5.4814
4.92755
1.88123
1.01611
1.25407
1.79514
2.42405
2.97433
3.47076
4.05466
4.72686
5.38557
6.00267
6.2681
12.8867
9.49166
6.69373
4.72709
4.18063
4.90583
5.39198
5.04188
2.7468
1.2913
0.992302
1.0828
1.42333
1.94773
2.50722
3.10236
3.7618
4.43301
5.08853
5.66856
11.2553
8.62774
6.77768
5.1606
4.67878
5.06586
5.40865
5.14191
3.44767
1.88853
1.10746
1.10088
1.18273
1.45575
1.89258
2.39001
2.96235
3.59149
4.22173
4.98939
10.075
8.10037
6.95113
5.80888
5.4495
5.45832
5.51343
5.29772
3.9439
2.54554
1.50051
1.21211
1.23221
1.32383
1.52111
1.83953
2.30699
2.88218
3.48498
4.35452
9.25602
7.67748
7.14832
6.35042
6.34066
6.19042
5.83315
5.52214
4.3369
3.10598
2.06544
1.5369
1.366
1.35649
1.38566
1.50021
1.80982
2.31797
2.90047
3.78494
8.60932
7.30152
7.18298
6.77148
7.10022
6.90196
6.40723
5.88777
4.76706
3.61946
2.65545
2.01818
1.61274
1.41882
1.38817
1.44846
1.64411
2.02284
2.49625
3.32229
8.03752
6.92191
7.09334
6.81403
7.26817
7.30138
6.97865
6.42916
5.30446
4.21623
3.28399
2.5596
1.97614
1.57867
1.4717
1.52014
1.68291
1.95932
2.31151
2.97695
7.59478
6.57956
6.89112
6.76349
7.20764
7.29778
7.28691
6.9691
5.90759
4.88668
3.96581
3.16645
2.48249
1.94325
1.70674
1.7251
1.80885
1.9907
2.25958
2.65648
7.19283
6.25071
6.61339
6.62609
7.02753
7.19161
7.27952
7.24008
6.47084
5.53757
4.63921
3.80679
3.08353
2.49286
2.1409
2.03256
2.03898
2.13318
2.22941
2.35948
6.83424
5.94916
6.32614
6.4318
6.76585
6.95579
7.15161
7.22987
6.82008
6.13985
5.28642
4.43799
3.69889
3.09677
2.65764
2.42982
2.34295
2.26423
2.20395
2.35632
6.17426
5.38858
5.76653
5.95017
6.17996
6.34919
6.59671
6.90494
6.72619
6.35593
5.81916
5.17446
4.55194
3.98144
3.50759
3.13875
2.78832
2.43283
2.39827
2.83486
21.5311
24.3158
25.7338
25.72
25.2368
24.7788
23.4547
20.9286
17.7294
14.8959
12.6096
11.0339
9.89032
9.0963
8.46852
7.9085
7.4589
7.0448
6.68212
6.02013
24.3088
26.9911
28.2317
26.351
25.5109
25.9861
24.8829
21.2959
15.9862
11.8129
9.35708
8.53211
8.03038
7.63645
7.26326
6.87974
6.52458
6.17769
5.86788
5.29765
25.7082
28.2302
28.5202
24.0444
24.1574
26.5929
26.1969
21.7046
13.9053
8.64355
6.63834
6.74261
6.91631
7.12303
7.13494
7.04174
6.83867
6.55518
6.26365
5.69403
25.6373
26.2021
23.7854
20.4075
21.5097
27.721
28.926
25.476
13.6713
4.54326
4.66727
5.14571
5.87563
6.4856
6.78375
6.77813
6.69345
6.52038
6.31157
5.82412
25.1024
25.2616
23.7144
21.1495
3.55642
3.78069
4.07663
4.53558
5.23512
6.09317
6.89996
7.22295
7.18486
7.02601
6.76553
6.16151
24.6439
25.7403
26.224
27.4756
4.62695
4.7038
4.73854
4.87726
5.18104
5.8047
6.6307
7.20836
7.23595
7.15053
6.93298
6.32486
23.2739
24.6319
25.9078
28.6729
5.2681
5.26294
5.17109
5.17611
5.24627
5.4724
5.9771
6.6404
7.06725
7.08478
6.9992
6.51009
20.7549
21.0866
21.5057
25.2538
5.59609
4.63846
4.76464
4.86686
5.00371
5.18569
5.47138
5.94074
6.53711
6.9284
6.95084
6.71488
17.5394
15.8039
13.7951
13.8118
3.40412
4.46344
5.19734
5.48236
1.03173
1.6139
2.40157
3.07432
3.57522
3.94997
4.32485
4.79781
5.3621
5.93411
6.40634
6.40109
14.6922
11.6133
8.48089
4.4444
3.6677
4.61813
5.18054
4.61531
1.74438
0.877669
1.0916
1.58926
2.18814
2.73501
3.19837
3.69553
4.29508
4.93176
5.55927
5.93815
12.3971
9.13665
6.42329
4.50935
3.94447
4.64943
5.08922
4.73249
2.55261
1.15009
0.855535
0.932549
1.24689
1.75212
2.27226
2.79142
3.39001
4.04342
4.68801
5.32537
10.8142
8.28236
6.48249
4.89621
4.38428
4.78217
5.09481
4.82337
3.20413
1.71819
0.96302
0.945727
1.03072
1.29155
1.69493
2.14527
2.66532
3.26165
3.8667
4.64084
9.67277
7.78228
6.62309
5.53959
5.05157
5.0873
5.16593
4.95336
3.66841
2.34004
1.32361
1.05376
1.07849
1.16767
1.35931
1.64031
2.05418
2.59093
3.15885
4.00435
8.88647
7.39493
6.83073
6.10917
5.87883
5.70508
5.39637
5.13715
4.02381
2.86752
1.85023
1.35263
1.19713
1.20373
1.23513
1.33898
1.60847
2.05455
2.58501
3.44348
8.26963
7.03456
6.87915
6.47679
6.65597
6.46275
5.89159
5.42858
4.39771
3.31759
2.3794
1.78487
1.42394
1.26125
1.22843
1.2651
1.41717
1.74594
2.19693
3.00683
7.72042
6.66961
6.80792
6.52076
6.98419
6.99153
6.50695
5.90115
4.86791
3.82313
2.92156
2.26301
1.73903
1.38925
1.27447
1.30769
1.43894
1.6977
2.04216
2.6965
7.28778
6.3368
6.63253
6.47115
6.9572
7.03135
6.91037
6.4786
5.42281
4.4245
3.54154
2.8135
2.18318
1.69104
1.44807
1.46037
1.54281
1.73198
1.98771
2.42895
6.89407
6.0141
6.37474
6.33962
6.81568
6.95761
6.93231
6.83709
5.9809
5.0488
4.19828
3.42733
2.73974
2.1682
1.81407
1.74036
1.76101
1.85097
1.98079
2.13852
6.55108
5.72609
6.10605
6.16204
6.57728
6.76108
6.85569
6.85501
6.41367
5.66273
4.8379
4.03167
3.31408
2.71919
2.29845
2.11544
2.03745
2.00184
1.95334
2.04805
5.91781
5.18781
5.57126
5.71552
6.01281
6.19538
6.39569
6.61942
6.38758
5.99441
5.43431
4.77484
4.14611
3.58571
3.13853
2.80766
2.51223
2.1864
2.06683
2.31889
21.2213
23.9759
25.3722
25.2533
24.7683
24.3339
23.0071
20.4737
17.2741
14.4866
12.2265
10.6897
9.59284
8.83972
8.24775
7.71759
7.28837
6.88708
6.538
5.89747
23.9456
26.5479
27.6968
25.7324
24.9688
25.5404
24.455
20.8573
15.5359
11.4331
8.98894
8.20083
7.7577
7.4156
7.07892
6.72519
6.39058
6.05496
5.75661
5.20529
25.2976
27.6853
27.71
23.0583
23.7742
26.2286
25.8226
21.3106
13.4742
8.2921
6.28467
6.40054
6.62175
6.87267
6.93576
6.87184
6.70519
6.44143
6.16259
5.61132
25.108
25.5221
22.8822
19.4137
21.023
27.1968
28.3299
24.9117
13.3107
4.28846
4.37032
4.81177
5.57086
6.30839
6.6588
6.65756
6.57234
6.39446
6.19103
5.7268
24.4804
24.494
22.9551
20.3866
3.30964
3.5393
3.8043
4.23978
4.90292
5.76562
6.59516
7.05394
7.04958
6.93514
6.70104
6.11971
24.0845
25.1144
25.6115
26.6647
4.28306
4.49987
4.54386
4.68064
4.95531
5.50103
6.31837
6.98925
7.11007
7.04379
6.8566
6.28544
22.765
24.0989
25.4089
27.9132
4.94411
5.04366
4.98305
4.98367
5.03534
5.21714
5.65227
6.31384
6.82121
6.89464
6.83103
6.41597
20.3086
20.6342
21.0803
24.6108
5.26187
4.39295
4.5405
4.63781
4.75851
4.92461
5.18473
5.61545
6.22119
6.67276
6.75495
6.56783
17.1741
15.4627
13.4582
13.2203
3.25355
4.25923
4.90334
5.14861
0.955923
1.47403
2.22198
2.87622
3.37153
3.73828
4.09642
4.53818
5.0788
5.65181
6.18138
6.242
14.4119
11.4086
8.32716
4.31958
3.53835
4.46453
4.98105
4.40048
1.65499
0.799345
0.996961
1.46235
2.03421
2.57245
3.02524
3.48188
4.04189
4.67198
5.31551
5.7735
12.1633
8.98416
6.32148
4.40739
3.81126
4.50816
4.92436
4.53139
2.42648
1.06663
0.773803
0.843713
1.1396
1.62579
2.13378
2.61766
3.17628
3.822
4.4767
5.16697
10.6066
8.13837
6.38108
4.82629
4.24493
4.64489
4.9319
4.62689
3.04592
1.60024
0.873772
0.853057
0.936022
1.19408
1.58195
2.00459
2.49746
3.08345
3.68944
4.48666
9.48975
7.6527
6.51017
5.50664
4.89041
4.92531
4.99647
4.75395
3.49024
2.18817
1.2121
0.956925
0.986714
1.07678
1.26164
1.53782
1.92845
2.44209
3.00095
3.84717
8.72132
7.28309
6.70958
6.12418
5.69393
5.48282
5.19444
4.92633
3.83341
2.70857
1.71876
1.24567
1.09498
1.1097
1.15698
1.26533
1.51148
1.92655
2.43226
3.27786
8.11623
6.92788
6.75579
6.42473
6.46354
6.25983
5.63999
5.19419
4.19114
3.14684
2.22744
1.64994
1.30299
1.17438
1.14287
1.16759
1.29863
1.60198
2.03871
2.84361
7.57664
6.56632
6.69055
6.42735
6.85836
6.85846
6.26801
5.63151
4.63398
3.61031
2.72444
2.08766
1.5947
1.28808
1.16834
1.19358
1.30974
1.55265
1.89148
2.54327
7.14767
6.23354
6.52245
6.35959
6.8476
6.9385
6.71943
6.21543
5.164
4.16958
3.29885
2.59874
2.00263
1.54822
1.30875
1.31729
1.39267
1.58194
1.83068
2.28849
6.75331
5.90714
6.26665
6.2091
6.73053
6.8721
6.76569
6.61713
5.7157
4.78044
3.94002
3.19496
2.53421
1.98844
1.63779
1.5729
1.59547
1.68545
1.82033
2.01843
6.41511
5.62202
6.00359
6.03238
6.5059
6.68931
6.7012
6.66491
6.19466
5.39851
4.57977
3.79507
3.09589
2.51147
2.10005
1.933
1.85737
1.83009
1.80739
1.86645
5.79407
5.09366
5.48048
5.60351
5.95405
6.14118
6.29098
6.4679
6.21015
5.79998
5.22742
4.56349
3.92775
3.3626
2.92744
2.61281
2.33554
2.04354
1.87683
2.05068
21.2242
23.9838
25.3784
25.2351
24.742
24.3037
22.9837
20.4584
17.2639
14.4706
12.2091
10.668
9.5696
8.81896
8.23083
7.70394
7.2787
6.88111
6.53445
5.89604
23.9405
26.5508
27.712
25.6726
24.9378
25.5279
24.4372
20.8389
15.5402
11.4361
8.98461
8.1777
7.72701
7.38766
7.05676
6.70813
6.37837
6.04723
5.75182
5.20309
25.2905
27.6723
27.6921
22.883
23.852
26.2561
25.8093
21.2806
13.4964
8.33642
6.3091
6.40359
6.59143
6.83055
6.90823
6.85003
6.69105
6.43401
6.1595
5.61189
25.1202
25.5575
22.9192
19.1495
21.2586
27.1142
28.158
24.7383
13.1499
4.33468
4.41381
4.83881
5.56958
6.28391
6.63116
6.63264
6.55385
6.38503
6.18947
5.7316
24.4889
24.491
22.8647
19.8007
3.18698
3.55864
3.82181
4.25349
4.9052
5.74707
6.56255
7.03177
7.03373
6.92839
6.69962
6.12114
24.0937
25.1016
25.565
26.5039
4.21733
4.52258
4.55949
4.68958
4.95777
5.49301
6.30122
6.97213
7.11301
7.04924
6.86396
6.29415
22.7614
24.0724
25.3694
27.7118
4.89483
5.06964
4.99821
4.9971
5.04564
5.22237
5.65103
6.30577
6.81618
6.89722
6.8362
6.42629
20.3001
20.6059
21.0351
24.3945
5.1524
4.43245
4.57047
4.66242
4.77689
4.93798
5.19449
5.62148
6.22318
6.67579
6.76314
6.57747
17.1718
15.4572
13.4562
13.2312
3.2144
4.22199
4.83333
5.05955
0.919324
1.5246
2.2769
2.91764
3.39806
3.75705
4.11096
4.54985
5.08779
5.66112
6.19188
6.25415
14.4154
11.4098
8.33408
4.30369
3.53985
4.46946
4.98611
4.37121
1.59973
0.793129
1.00532
1.48473
2.05891
2.59227
3.03947
3.49328
4.05145
4.6794
5.32404
5.78611
12.1782
9.00011
6.34724
4.41885
3.81405
4.50605
4.922
4.51461
2.37068
1.0438
0.776039
0.851417
1.15157
1.63782
2.14242
2.62435
3.18168
3.82571
4.48156
5.17768
10.6343
8.18001
6.4303
4.88065
4.25778
4.63808
4.92536
4.61243
3.00313
1.56838
0.868884
0.859435
0.943697
1.20304
1.59063
2.01017
2.49935
3.08459
3.69222
4.49451
9.52474
7.70469
6.5801
5.59043
4.92485
4.919
4.98478
4.73737
3.4591
2.15818
1.19922
0.956819
0.988971
1.08244
1.26977
1.5411
1.92688
2.44088
3.00061
3.85019
8.75888
7.33633
6.78214
6.21506
5.74709
5.48832
5.18292
4.90604
3.80449
2.67994
1.70162
1.23701
1.09476
1.11288
1.16084
1.26334
1.50479
1.92059
2.42683
3.2768
8.15297
6.9774
6.81427
6.49674
6.52264
6.29116
5.63791
5.1729
4.15879
3.11586
2.2097
1.64262
1.30075
1.17329
1.14176
1.16538
1.29498
1.5974
2.03491
2.84317
7.61067
6.61011
6.74272
6.49079
6.91046
6.90529
6.28593
5.61357
4.60088
3.57682
2.70578
2.08155
1.59151
1.28668
1.16767
1.19229
1.30793
1.55197
1.89121
2.54337
7.17643
6.26987
6.56489
6.40946
6.89556
6.98059
6.74631
6.20652
5.13629
4.14086
3.28195
2.59093
1.9985
1.54421
1.30686
1.31622
1.39175
1.58315
1.83344
2.28958
6.77604
5.93555
6.29952
6.24538
6.77132
6.91126
6.79234
6.61561
5.69597
4.76082
3.92776
3.1872
2.52938
1.98047
1.63351
1.5735
1.59785
1.69024
1.8238
2.01895
6.43235
5.64365
6.02841
6.05831
6.53964
6.72232
6.72567
6.67012
6.18489
5.38532
4.57113
3.79013
3.09323
2.50584
2.09733
1.93611
1.86326
1.83634
1.80954
1.86723
5.80426
5.10677
5.49495
5.61645
5.97566
6.16137
6.30831
6.47281
6.20657
5.79255
5.22181
4.56143
3.92875
3.36466
2.93169
2.61918
2.34519
2.0523
1.87956
2.05258
21.5404
24.3364
25.759
25.6957
25.218
24.7209
23.3838
20.8594
17.6467
14.8236
12.5508
10.981
9.84242
9.05524
8.43872
7.88846
7.44834
7.04216
6.68433
6.02511
24.2877
26.97
28.236
26.2399
25.5052
25.9697
24.8302
21.2164
15.8727
11.7216
9.29674
8.46758
7.96532
7.57777
7.21588
6.84509
6.50221
6.16614
5.86359
5.29881
25.6581
28.1415
28.4277
23.702
24.3857
26.6692
26.1735
21.6135
13.7595
8.54889
6.59467
6.69066
6.83792
7.04185
7.07713
6.99913
6.81342
6.54345
6.26134
5.69978
25.6249
26.1927
23.6888
19.5931
21.6567
27.4988
28.5284
25.0822
13.3061
4.50456
4.63289
5.11125
5.82769
6.43884
6.73975
6.73485
6.65848
6.50177
6.30908
5.83772
25.0663
25.1625
23.4273
20.0488
3.29828
3.75905
4.05328
4.51503
5.20892
6.05575
6.84387
7.18513
7.15579
7.01093
6.76259
6.16911
24.6235
25.6586
26.0744
26.9338
4.38002
4.75483
4.78933
4.92265
5.21408
5.81026
6.6146
7.19606
7.23734
7.15549
6.94318
6.34149
23.2439
24.5541
25.8209
28.1511
5.08802
5.29895
5.20783
5.21115
5.27721
5.4958
5.98711
6.6396
7.07128
7.09462
7.0129
6.53052
20.7279
21.0072
21.3898
24.7525
5.35218
4.67261
4.7911
4.88795
5.02385
5.20806
5.4956
5.96799
6.57091
6.95651
6.97666
6.73866
17.5242
15.7462
13.6877
13.2702
3.23994
4.27007
4.97613
5.23535
0.968987
1.6795
2.47055
3.13205
3.62222
3.99507
4.37266
4.84527
5.41007
5.98228
6.44924
6.43961
14.7056
11.6212
8.48263
4.45661
3.66184
4.63501
5.2138
4.60682
1.67665
0.871477
1.10897
1.63302
2.2436
2.78755
3.24614
3.74406
4.3437
4.97859
5.6053
5.98227
12.4391
9.20797
6.50723
4.56749
3.95805
4.67699
5.12199
4.73365
2.48065
1.11851
0.857448
0.946097
1.27603
1.78825
2.30917
2.83074
3.43098
4.08385
4.72765
5.36704
10.8779
8.38285
6.60014
5.03054
4.42363
4.82063
5.12701
4.83447
3.15272
1.66426
0.952826
0.954638
1.04889
1.3255
1.73397
2.18011
2.69691
3.29307
3.89685
4.67433
9.74905
7.8825
6.7487
5.7322
5.12674
5.12988
5.19731
4.97193
3.64162
2.28994
1.30003
1.05604
1.09184
1.18993
1.38625
1.66345
2.07446
2.6109
3.17776
4.02831
8.9671
7.49157
6.95016
6.30954
5.97874
5.75567
5.42692
5.15608
4.00981
2.83498
1.82864
1.3486
1.20149
1.21578
1.24577
1.34375
1.61255
2.05872
2.59006
3.45778
8.34947
7.1234
6.97568
6.61609
6.77313
6.55471
5.93058
5.44668
4.38491
3.29288
2.36374
1.7789
1.41798
1.25779
1.22509
1.26269
1.41532
1.74413
2.19835
3.01871
7.79488
6.74726
6.8931
6.61599
7.07544
7.0931
6.57527
5.92309
4.85369
3.7956
2.90275
2.25089
1.72478
1.37492
1.27072
1.30515
1.43751
1.69875
2.04236
2.70474
7.35084
6.40015
6.70034
6.54343
7.0372
7.10828
6.97229
6.51524
5.4126
4.399
3.51884
2.79369
2.16419
1.67594
1.44412
1.45767
1.5427
1.73535
1.99163
2.43701
6.94415
6.06272
6.42579
6.3852
6.88041
7.02202
6.97978
6.86738
5.97593
5.0326
4.17916
3.40772
2.72279
2.15408
1.80919
1.74373
1.76646
1.85997
1.98886
2.14498
6.58931
5.76235
6.14327
6.19068
6.62598
6.80759
6.89289
6.87798
6.41686
5.65521
4.82889
4.02294
3.3045
2.70789
2.29796
2.12611
2.05042
2.01466
1.96162
2.05417
5.94007
5.20784
5.59033
5.72481
6.03929
6.21698
6.41279
6.63656
6.39112
5.99146
5.43152
4.77473
4.14617
3.58492
3.14361
2.81996
2.52833
2.20232
2.07517
2.3275
22.1371
24.9726
26.4456
26.5526
26.2003
25.6316
24.2447
21.6896
18.3992
15.5012
13.1721
11.5229
10.3136
9.46502
8.79672
8.20802
7.74813
7.32835
6.95422
6.26943
24.9248
27.7006
29.0885
27.3055
26.6512
26.899
25.6639
22.0149
16.5363
12.253
9.82266
8.91994
8.34309
7.88578
7.48394
7.08299
6.72265
6.37747
6.06279
5.47934
26.3484
28.953
29.7495
25.3185
25.3822
27.5058
26.9457
22.3718
14.374
8.94581
7.0243
7.08347
7.19247
7.35706
7.363
7.2535
7.03046
6.73869
6.44126
5.86196
26.5197
27.3118
25.1638
20.7191
22.3991
28.2416
29.2975
25.8407
13.9645
4.82559
4.96495
5.45412
6.11478
6.61088
6.94069
6.94174
6.8759
6.72437
6.52356
6.02913
26.1397
26.4085
24.5418
20.8366
3.53304
4.03272
4.35089
4.85734
5.62896
6.50831
7.25908
7.40885
7.34353
7.1536
6.88139
6.27792
25.6075
26.6714
27.0099
27.7667
4.69526
5.01124
5.04866
5.20107
5.56714
6.29438
7.05852
7.46305
7.44604
7.31729
7.06339
6.43353
24.135
25.4342
26.6674
29.0861
5.3842
5.54047
5.44985
5.46504
5.56626
5.87698
6.47135
7.08359
7.39713
7.38382
7.24991
6.67563
21.5163
21.768
22.137
25.6588
5.61031
4.92651
5.05489
5.15474
5.30517
5.52088
5.88511
6.44619
7.01982
7.31182
7.30052
6.97742
18.1956
16.3165
14.2133
14.0545
3.4794
4.58862
5.31448
5.59749
1.11221
1.81051
2.64478
3.3472
3.85414
4.25058
4.67916
5.22559
5.84886
6.43223
6.81888
6.74207
15.2726
12.0319
8.77739
4.69364
3.96323
4.95459
5.53144
4.95359
1.88472
1.00448
1.24243
1.7912
2.42786
2.98089
3.4789
4.06569
4.74559
5.41386
6.03887
6.31316
12.936
9.58574
6.80083
4.8136
4.26351
4.98942
5.44579
5.07923
2.75015
1.27563
0.982836
1.07576
1.42252
1.95182
2.51573
3.11717
3.78557
4.46329
5.12022
5.71119
11.3067
8.71717
6.89293
5.2825
4.76941
5.14468
5.46248
5.18468
3.45656
1.87003
1.09186
1.09233
1.18229
1.46819
1.91154
2.40812
2.98004
3.61114
4.24315
5.02452
10.1264
8.17211
7.04451
5.94723
5.55098
5.52742
5.5677
5.33971
3.95794
2.532
1.47691
1.20066
1.23086
1.33516
1.53628
1.84783
2.31114
2.88966
3.49699
4.382
9.30857
7.74247
7.23056
6.47666
6.44112
6.26912
5.88872
5.55977
4.34852
3.09545
2.04173
1.52475
1.36621
1.36237
1.3873
1.49703
1.80433
2.3166
2.90504
3.80612
8.66121
7.3608
7.25071
6.85114
7.19991
7.01681
6.48021
5.92796
4.77448
3.60434
2.63513
2.00973
1.61006
1.41276
1.38376
1.44242
1.63777
2.01962
2.49898
3.33997
8.08744
6.97372
7.14975
6.85889
7.34309
7.41244
7.07324
6.48054
5.31425
4.20015
3.2652
2.54975
1.9671
1.56513
1.4628
1.51225
1.67681
1.96017
2.31786
2.99334
7.63831
6.62185
6.93292
6.79603
7.27436
7.39478
7.36306
7.0301
5.92383
4.87765
3.95091
3.15354
2.46881
1.92303
1.69446
1.71527
1.80419
1.9933
2.26495
2.67088
7.22807
6.28287
6.64281
6.64275
7.07864
7.26369
7.34449
7.29199
6.49104
5.5363
4.62858
3.79227
3.06565
2.46861
2.12419
2.02538
2.03689
2.13895
2.23704
2.37374
6.86186
5.97304
6.34612
6.43848
6.80117
7.00548
7.20244
7.27636
6.84337
6.14281
5.27511
4.41935
3.67734
3.07284
2.63982
2.42332
2.34535
2.27363
2.2152
2.37102
6.19104
5.40154
5.77478
5.94512
6.19478
6.37173
6.62472
6.94153
6.74784
6.36116
5.81109
5.15965
4.53438
3.96438
3.49744
3.13811
2.79592
2.44559
2.4105
2.85135
22.6938
25.5307
27.0626
27.4097
27.3178
26.7159
25.3042
22.6905
19.3234
16.3048
13.8646
12.1163
10.825
9.91722
9.1988
8.57274
8.0934
7.65804
7.26767
6.56314
25.4977
28.3862
29.9371
28.5819
28.1657
28.1899
26.8596
23.1318
17.4907
12.9805
10.4441
9.42121
8.73322
8.19955
7.7568
7.32767
6.95699
6.60577
6.28211
5.68721
26.9903
29.82
31.4124
27.5718
27.0291
28.8583
28.184
23.5595
15.3403
9.5322
7.5433
7.5109
7.60186
7.69575
7.66121
7.49398
7.2315
6.9201
6.61215
6.0244
27.4128
28.6302
27.3762
22.5413
23.4976
29.3552
30.5712
27.1254
15.1563
5.14723
5.28855
5.76862
6.36885
6.82377
7.15389
7.15513
7.08599
6.92626
6.72067
6.21956
27.3042
27.972
26.2508
22.0316
3.81477
4.27407
4.60257
5.17338
6.03835
6.94902
7.56819
7.58209
7.48872
7.26582
6.98978
6.39866
26.6861
27.95
28.3467
28.8448
4.88798
5.14809
5.19474
5.39059
5.87712
6.66424
7.34632
7.588
7.55588
7.40749
7.14661
6.52403
25.1329
26.5155
27.739
30.3214
5.52897
5.67001
5.60278
5.63401
5.7813
6.19304
6.82419
7.3736
7.58224
7.54514
7.36836
6.74742
22.4201
22.7012
23.0256
26.7254
5.84396
5.18699
5.27451
5.36809
5.52279
5.78435
6.24548
6.84824
7.34966
7.5463
7.51215
7.10773
18.9764
17.0309
14.861
14.7072
3.75808
4.91449
5.58699
5.90828
1.24797
1.9896
2.84655
3.55138
4.05939
4.49904
4.99663
5.60914
6.26315
6.824
7.1004
6.95393
15.9335
12.569
9.18822
5.017
4.26031
5.234
5.80635
5.29032
2.12091
1.1676
1.40405
1.95942
2.60874
3.18371
3.75431
4.43154
5.16246
5.84192
6.43121
6.57057
13.5031
10.0859
7.24682
5.16008
4.61076
5.28411
5.73337
5.38191
3.02659
1.4642
1.14017
1.23741
1.59749
2.14967
2.77325
3.46245
4.18711
4.87891
5.52639
6.01472
11.7909
9.1124
7.27127
5.6387
5.20976
5.48584
5.76478
5.48505
3.72709
2.08991
1.26919
1.25423
1.33849
1.63865
2.12504
2.6947
3.33323
3.99096
4.62463
5.346
10.5473
8.46844
7.37937
6.23645
6.08145
5.98461
5.91621
5.65394
4.23128
2.77263
1.68968
1.37232
1.39676
1.50355
1.72117
2.07958
2.60203
3.2198
3.84936
4.70586
9.68808
7.98932
7.52398
6.71614
6.96251
6.75994
6.33328
5.9311
4.67886
3.36426
2.28742
1.73054
1.55424
1.53537
1.55535
1.68814
2.05975
2.62808
3.23656
4.1215
9.00946
7.58757
7.50967
7.05965
7.55363
7.41561
6.95057
6.40423
5.18486
3.9573
2.95009
2.26946
1.83389
1.59
1.56362
1.66324
1.90777
2.32424
2.81461
3.65183
8.41705
7.18885
7.36768
7.06039
7.55716
7.64931
7.475
6.99179
5.79586
4.64439
3.66894
2.88397
2.24697
1.78331
1.69501
1.76157
1.9526
2.23477
2.60746
3.27267
7.96313
6.83956
7.12436
6.99763
7.45276
7.60426
7.66166
7.46722
6.43675
5.36728
4.40304
3.54705
2.80258
2.21417
1.98219
1.99984
2.07681
2.26121
2.52979
2.88387
7.54791
6.50462
6.82651
6.84745
7.22136
7.43624
7.61553
7.63681
6.98218
6.04198
5.0947
4.20994
3.43146
2.81374
2.44947
2.30632
2.30717
2.39462
2.46393
2.6296
7.17211
6.19301
6.52821
6.64712
6.94035
7.15875
7.42298
7.59234
7.2157
6.61024
5.74455
4.85215
4.06866
3.43608
2.97278
2.71672
2.60857
2.49544
2.46011
2.67777
6.48619
5.61446
5.95381
6.15251
6.3458
6.51502
6.7741
7.15228
7.03852
6.68957
6.17759
5.53462
4.90241
4.31503
3.82586
3.42311
3.01457
2.70088
2.72657
3.4318
24.2194
27.1293
28.6964
29.2831
29.3887
28.8143
27.3622
24.5887
21.0283
17.804
15.1728
13.2675
11.8756
10.8854
10.1096
9.43978
8.91838
8.43455
8.00707
7.24134
27.0962
30.0818
31.6502
30.71
30.4994
30.3362
28.8821
24.9592
19.0396
14.2161
11.5355
10.3522
9.56014
8.95306
8.46227
8.00721
7.61585
7.23303
6.88352
6.24136
28.6126
31.5298
33.6727
30.2887
29.395
30.8073
29.9718
25.1725
16.6279
10.4465
8.41706
8.29509
8.34884
8.37918
8.31098
8.10834
7.82188
7.48449
7.15604
6.52845
29.2525
30.7437
30.0974
25.3815
25.0095
30.7252
32.015
28.59
16.1891
5.59668
5.82977
6.41641
7.01877
7.47614
7.7435
7.72929
7.63745
7.44966
7.22563
6.69445
29.3155
30.2464
28.5579
23.6334
4.19527
4.5374
4.9702
5.71052
6.72337
7.65643
8.12985
8.09826
7.96346
7.71606
7.44168
6.84644
28.6818
29.9449
30.1319
30.0253
5.03903
5.37994
5.48848
5.80092
6.47269
7.31976
7.96721
8.08756
8.02766
7.84624
7.5793
6.95071
27.0553
28.3183
29.2243
31.5008
5.61205
5.90793
5.92982
6.03035
6.29644
6.84606
7.52722
8.02982
8.11519
8.03998
7.82004
7.14849
24.19
24.2892
24.2637
27.8006
6.00247
5.45381
5.61691
5.796
6.02307
6.37344
6.94731
7.59411
8.02668
8.11103
8.04621
7.54649
20.5492
18.3129
15.6741
14.8361
4.12421
5.17583
5.80901
6.18558
1.39331
2.15203
3.11189
3.89768
4.47767
5.01289
5.61428
6.30703
6.99313
7.50429
7.66907
7.4501
17.331
13.6527
9.89893
5.4059
4.6531
5.53736
6.1131
5.68966
2.41226
1.37464
1.62236
2.23863
2.96443
3.62935
4.297
5.04777
5.81568
6.50019
7.04487
7.09342
14.7398
11.1348
8.08936
5.67469
5.07379
5.63957
6.12243
5.82257
3.42689
1.72466
1.39563
1.51303
1.93948
2.55703
3.22589
3.96664
4.73759
5.46297
6.13231
6.56106
12.8946
10.0238
8.06429
6.29568
5.78206
5.93941
6.21096
5.98633
4.18572
2.44107
1.57212
1.53567
1.62702
1.93684
2.45038
3.08405
3.79059
4.50622
5.18916
5.88405
11.5641
9.28256
8.14884
6.92642
6.73543
6.58592
6.46307
6.20814
4.73697
3.20121
2.07753
1.67375
1.6636
1.74108
1.97888
2.39813
2.9925
3.67908
4.35637
5.19497
10.6299
8.7305
8.22695
7.39676
7.62186
7.39758
6.98316
6.55474
5.25322
3.86757
2.73718
2.04708
1.7856
1.7822
1.82879