/*--------------------------------*- C++ -*----------------------------------*\
  =========                 |
  \\      /  F ield         | OpenFOAM: The Open Source CFD Toolbox
   \\    /   O peration     | Website:  https://openfoam.org
    \\  /    A nd           | Version:  9
     \\/     M anipulation  |
\*---------------------------------------------------------------------------*/
FoamFile
{
    format      ascii;
    class       volScalarField;
    location    "0.0035";
    object      rhoE;
}
// * * * * * * * * * * * * * * * * * * * * * * * * * * * * * * * * * * * * * //

dimensions      [1 -1 -2 0 0 0 0];

internalField   nonuniform List<scalar> 
9720
(
8.23218e+07
8.95114e+07
9.38492e+07
9.6268e+07
9.81193e+07
9.55532e+07
9.06573e+07
8.20636e+07
7.21475e+07
6.19547e+07
5.36385e+07
4.76093e+07
4.37603e+07
4.11493e+07
3.95141e+07
3.85249e+07
3.78741e+07
3.75154e+07
3.72146e+07
3.64949e+07
8.9176e+07
9.55203e+07
9.9472e+07
9.71573e+07
9.84339e+07
9.75814e+07
9.24654e+07
8.09311e+07
6.32109e+07
4.74789e+07
3.91277e+07
3.56704e+07
3.38438e+07
3.2786e+07
3.22253e+07
3.17888e+07
3.15618e+07
3.14129e+07
3.12456e+07
3.07108e+07
9.32501e+07
9.90587e+07
1.05423e+08
9.67676e+07
9.39224e+07
9.82158e+07
9.47363e+07
8.11592e+07
5.55069e+07
3.47732e+07
2.86752e+07
2.88723e+07
2.96848e+07
3.07816e+07
3.17549e+07
3.23026e+07
3.25548e+07
3.26863e+07
3.26786e+07
3.23703e+07
9.57646e+07
9.68267e+07
9.69193e+07
8.4955e+07
8.22718e+07
9.90354e+07
1.0327e+08
9.35655e+07
5.51151e+07
1.85725e+07
1.9963e+07
2.19177e+07
2.46868e+07
2.73868e+07
2.94936e+07
3.07624e+07
3.18025e+07
3.25964e+07
3.31107e+07
3.34416e+07
9.74407e+07
9.74281e+07
9.2597e+07
8.17518e+07
1.47783e+07
1.66971e+07
1.82288e+07
2.07055e+07
2.40349e+07
2.79525e+07
3.07377e+07
3.17525e+07
3.25098e+07
3.3028e+07
3.33039e+07
3.33855e+07
9.48379e+07
9.64093e+07
9.67501e+07
9.75548e+07
2.12015e+07
2.29504e+07
2.33093e+07
2.44077e+07
2.65283e+07
2.91959e+07
3.20964e+07
3.32972e+07
3.4082e+07
3.46691e+07
3.48372e+07
3.45505e+07
8.9634e+07
9.08704e+07
9.26372e+07
1.01405e+08
2.59802e+07
2.79937e+07
2.80017e+07
2.82834e+07
2.9129e+07
3.08865e+07
3.33011e+07
3.58857e+07
3.68509e+07
3.74769e+07
3.75084e+07
3.65545e+07
8.08802e+07
7.9149e+07
7.88274e+07
9.04113e+07
3.1079e+07
2.85566e+07
2.97354e+07
3.09277e+07
3.20824e+07
3.36955e+07
3.61129e+07
3.87688e+07
4.09599e+07
4.16107e+07
4.17883e+07
4.07797e+07
7.07854e+07
6.15006e+07
5.35451e+07
5.09316e+07
1.42111e+07
2.13308e+07
2.6071e+07
3.09554e+07
8.29701e+06
1.15438e+07
1.71897e+07
2.18116e+07
2.53103e+07
2.87703e+07
3.20732e+07
3.55803e+07
3.8982e+07
4.19456e+07
4.30515e+07
4.27832e+07
6.06022e+07
4.62428e+07
3.39117e+07
1.85193e+07
1.67759e+07
2.27907e+07
2.78673e+07
2.87105e+07
1.27685e+07
7.41462e+06
8.68655e+06
1.25898e+07
1.72766e+07
2.16219e+07
2.6017e+07
3.05572e+07
3.48245e+07
3.89768e+07
4.2279e+07
4.3301e+07
5.2368e+07
3.81752e+07
2.81842e+07
1.98216e+07
1.83536e+07
2.31787e+07
2.79106e+07
2.97589e+07
1.87944e+07
9.1106e+06
7.6283e+06
8.4094e+06
1.1297e+07
1.54325e+07
1.99439e+07
2.49515e+07
2.97177e+07
3.4565e+07
3.87112e+07
4.21569e+07
4.6468e+07
3.47687e+07
2.82472e+07
2.17088e+07
2.07596e+07
2.43089e+07
2.82345e+07
3.09457e+07
2.30818e+07
1.371e+07
8.71242e+06
8.55639e+06
9.13127e+06
1.13298e+07
1.5031e+07
1.96497e+07
2.432e+07
2.94267e+07
3.38239e+07
3.91723e+07
4.27581e+07
3.3003e+07
2.90327e+07
2.43033e+07
2.38808e+07
2.64113e+07
2.91263e+07
3.21284e+07
2.62925e+07
1.84953e+07
1.21792e+07
9.48345e+06
9.30081e+06
1.00117e+07
1.19735e+07
1.54626e+07
1.9563e+07
2.45472e+07
2.9e+07
3.53734e+07
4.02815e+07
3.2019e+07
3.01158e+07
2.68694e+07
2.75771e+07
2.89636e+07
3.08687e+07
3.37965e+07
2.95533e+07
2.28109e+07
1.6557e+07
1.21506e+07
1.03552e+07
1.0437e+07
1.10325e+07
1.27923e+07
1.58499e+07
2.02824e+07
2.42952e+07
3.10371e+07
3.87597e+07
3.1537e+07
3.1104e+07
2.89851e+07
3.03025e+07
3.1718e+07
3.32101e+07
3.61988e+07
3.27417e+07
2.71458e+07
2.11598e+07
1.61472e+07
1.27978e+07
1.13182e+07
1.15366e+07
1.27092e+07
1.45532e+07
1.76116e+07
2.09584e+07
2.76829e+07
3.78676e+07
3.11851e+07
3.17059e+07
3.02615e+07
3.13435e+07
3.3051e+07
3.57268e+07
3.87766e+07
3.60957e+07
3.15443e+07
2.6161e+07
2.0913e+07
1.66473e+07
1.36423e+07
1.30056e+07
1.34035e+07
1.4507e+07
1.63132e+07
1.93392e+07
2.50685e+07
3.72959e+07
3.10297e+07
3.20229e+07
3.13506e+07
3.21221e+07
3.38588e+07
3.67117e+07
4.096e+07
3.95023e+07
3.57344e+07
3.08979e+07
2.56157e+07
2.09548e+07
1.71208e+07
1.53161e+07
1.47315e+07
1.51103e+07
1.68289e+07
1.90707e+07
2.24824e+07
3.70052e+07
3.09414e+07
3.22171e+07
3.22213e+07
3.26778e+07
3.44649e+07
3.73516e+07
4.16049e+07
4.24043e+07
3.98936e+07
3.57436e+07
3.07454e+07
2.60674e+07
2.18092e+07
1.87889e+07
1.68743e+07
1.71606e+07
1.80429e+07
1.86895e+07
2.11862e+07
3.67543e+07
3.082e+07
3.22665e+07
3.2806e+07
3.3011e+07
3.46648e+07
3.74143e+07
4.17916e+07
4.33802e+07
4.30545e+07
3.99328e+07
3.52348e+07
3.06252e+07
2.59839e+07
2.23808e+07
2.03141e+07
1.9801e+07
1.89946e+07
1.96278e+07
2.20966e+07
3.61027e+07
3.03515e+07
3.20339e+07
3.32171e+07
3.31706e+07
3.44188e+07
3.65458e+07
4.07092e+07
4.30545e+07
4.39558e+07
4.31808e+07
4.05503e+07
3.70917e+07
3.28794e+07
2.93587e+07
2.65692e+07
2.3853e+07
2.19255e+07
2.26238e+07
2.69544e+07
7.64677e+07
8.35603e+07
8.77613e+07
8.93832e+07
9.04058e+07
8.79581e+07
8.3357e+07
7.54497e+07
6.61065e+07
5.65109e+07
4.8694e+07
4.30953e+07
3.94756e+07
3.7081e+07
3.55487e+07
3.45861e+07
3.39665e+07
3.36595e+07
3.33757e+07
3.26864e+07
8.32735e+07
8.95246e+07
9.35544e+07
9e+07
9.04209e+07
9.04956e+07
8.58927e+07
7.50846e+07
5.84042e+07
4.35647e+07
3.54565e+07
3.22783e+07
3.06296e+07
2.97196e+07
2.92453e+07
2.88081e+07
2.85451e+07
2.83978e+07
2.82204e+07
2.76852e+07
8.73473e+07
9.31531e+07
9.81704e+07
8.84041e+07
8.6716e+07
9.22628e+07
8.92967e+07
7.63461e+07
5.21006e+07
3.21527e+07
2.59931e+07
2.60798e+07
2.67636e+07
2.79367e+07
2.89271e+07
2.95302e+07
2.98037e+07
2.99519e+07
2.99412e+07
2.96362e+07
8.92029e+07
8.99948e+07
8.84158e+07
7.82995e+07
7.93743e+07
9.53306e+07
9.89866e+07
8.87997e+07
5.29418e+07
1.73159e+07
1.84973e+07
2.00095e+07
2.22941e+07
2.47268e+07
2.68941e+07
2.8077e+07
2.91016e+07
2.99259e+07
3.04453e+07
3.07431e+07
9.01327e+07
8.97635e+07
8.49271e+07
7.59076e+07
1.33326e+07
1.60697e+07
1.73071e+07
1.92706e+07
2.2018e+07
2.53567e+07
2.8431e+07
2.94578e+07
3.02852e+07
3.0829e+07
3.10367e+07
3.09344e+07
8.75255e+07
8.96571e+07
9.0989e+07
9.40204e+07
2.08406e+07
2.27902e+07
2.28742e+07
2.3528e+07
2.49896e+07
2.72257e+07
2.98149e+07
3.13468e+07
3.20799e+07
3.26488e+07
3.27287e+07
3.22356e+07
8.23436e+07
8.4463e+07
8.76529e+07
9.74256e+07
2.61556e+07
2.78963e+07
2.74576e+07
2.74256e+07
2.7778e+07
2.90121e+07
3.09862e+07
3.33643e+07
3.47616e+07
3.53828e+07
3.54555e+07
3.44673e+07
7.40862e+07
7.33411e+07
7.43742e+07
8.64496e+07
3.09246e+07
2.80929e+07
2.88659e+07
2.96064e+07
3.04051e+07
3.15798e+07
3.3508e+07
3.58472e+07
3.8094e+07
3.93049e+07
3.95174e+07
3.87205e+07
6.44865e+07
5.64595e+07
4.99499e+07
5.01977e+07
1.26881e+07
2.04822e+07
2.57374e+07
3.03552e+07
7.75497e+06
1.09316e+07
1.60357e+07
2.03812e+07
2.34942e+07
2.6413e+07
2.92783e+07
3.24749e+07
3.56252e+07
3.87602e+07
4.04549e+07
4.04613e+07
5.48971e+07
4.19018e+07
3.07806e+07
1.68298e+07
1.58203e+07
2.23331e+07
2.77603e+07
2.80413e+07
1.19025e+07
6.58581e+06
7.66596e+06
1.11564e+07
1.54665e+07
1.93013e+07
2.30766e+07
2.72761e+07
3.13885e+07
3.54905e+07
3.90974e+07
4.06114e+07
4.72092e+07
3.39927e+07
2.46853e+07
1.78741e+07
1.69946e+07
2.24497e+07
2.73234e+07
2.87818e+07
1.7314e+07
7.97471e+06
6.43754e+06
7.13632e+06
9.50596e+06
1.30916e+07
1.71955e+07
2.19207e+07
2.64931e+07
3.11856e+07
3.5249e+07
3.90118e+07
4.18229e+07
3.10955e+07
2.51179e+07
1.9341e+07
1.88828e+07
2.31087e+07
2.72903e+07
2.9618e+07
2.14283e+07
1.21008e+07
7.32514e+06
7.24383e+06
7.64808e+06
9.56492e+06
1.2936e+07
1.71936e+07
2.1535e+07
2.62932e+07
3.03429e+07
3.57556e+07
3.84011e+07
2.96312e+07
2.58689e+07
2.15719e+07
2.15428e+07
2.45906e+07
2.76534e+07
3.05329e+07
2.43966e+07
1.66017e+07
1.02665e+07
7.89201e+06
7.81955e+06
8.57455e+06
1.03326e+07
1.34529e+07
1.71307e+07
2.16185e+07
2.56626e+07
3.20367e+07
3.61636e+07
2.88667e+07
2.71717e+07
2.40332e+07
2.49032e+07
2.67842e+07
2.89112e+07
3.17929e+07
2.72781e+07
2.04976e+07
1.41849e+07
1.03247e+07
8.97218e+06
8.92823e+06
9.38513e+06
1.07226e+07
1.32568e+07
1.72741e+07
2.12651e+07
2.80441e+07
3.47568e+07
2.85019e+07
2.82156e+07
2.63988e+07
2.79447e+07
2.93161e+07
3.08507e+07
3.37472e+07
3.01084e+07
2.43441e+07
1.85116e+07
1.40778e+07
1.12254e+07
9.67533e+06
9.667e+06
1.05265e+07
1.21488e+07
1.51339e+07
1.85834e+07
2.51509e+07
3.3897e+07
2.81621e+07
2.89083e+07
2.76352e+07
2.89882e+07
3.0956e+07
3.32108e+07
3.60133e+07
3.32131e+07
2.85059e+07
2.33496e+07
1.85835e+07
1.47478e+07
1.15818e+07
1.08414e+07
1.11673e+07
1.23551e+07
1.43965e+07
1.73292e+07
2.2754e+07
3.33665e+07
2.79786e+07
2.92615e+07
2.87303e+07
2.98216e+07
3.17272e+07
3.45905e+07
3.82182e+07
3.62941e+07
3.2515e+07
2.79378e+07
2.30534e+07
1.86939e+07
1.46149e+07
1.28768e+07
1.27882e+07
1.33099e+07
1.49489e+07
1.71348e+07
2.03754e+07
3.31379e+07
2.78988e+07
2.94758e+07
2.96249e+07
3.03896e+07
3.23292e+07
3.52392e+07
3.93157e+07
3.93551e+07
3.6599e+07
3.26453e+07
2.7906e+07
2.3358e+07
1.89444e+07
1.63594e+07
1.51424e+07
1.53631e+07
1.6231e+07
1.67606e+07
1.88405e+07
3.29128e+07
2.77759e+07
2.95174e+07
3.01854e+07
3.06355e+07
3.24257e+07
3.53181e+07
3.95085e+07
4.08477e+07
4.00943e+07
3.67595e+07
3.20857e+07
2.75295e+07
2.30988e+07
2.01058e+07
1.84358e+07
1.79515e+07
1.712e+07
1.74913e+07
1.96549e+07
3.23027e+07
2.73158e+07
2.9276e+07
3.05255e+07
3.05982e+07
3.19597e+07
3.43456e+07
3.8602e+07
4.07153e+07
4.12844e+07
4.02106e+07
3.73372e+07
3.38817e+07
2.99798e+07
2.69472e+07
2.43554e+07
2.1829e+07
1.9652e+07
2.02116e+07
2.35446e+07
7.5025e+07
8.20282e+07
8.61872e+07
8.75168e+07
8.72736e+07
8.49652e+07
8.02485e+07
7.26217e+07
6.35291e+07
5.41926e+07
4.66618e+07
4.13206e+07
3.79008e+07
3.56344e+07
3.4153e+07
3.31999e+07
3.25719e+07
3.22142e+07
3.18924e+07
3.11513e+07
8.19679e+07
8.77841e+07
9.14419e+07
8.74506e+07
8.61032e+07
8.67045e+07
8.21781e+07
7.1773e+07
5.57745e+07
4.15679e+07
3.37442e+07
3.08774e+07
2.95025e+07
2.87438e+07
2.83306e+07
2.79205e+07
2.76203e+07
2.74118e+07
2.71925e+07
2.66001e+07
8.59633e+07
9.1165e+07
9.38455e+07
8.28473e+07
8.18586e+07
8.7906e+07
8.52481e+07
7.26424e+07
4.92674e+07
3.06866e+07
2.45969e+07
2.49127e+07
2.56455e+07
2.69175e+07
2.79365e+07
2.86631e+07
2.90139e+07
2.91523e+07
2.91066e+07
2.87132e+07
8.70594e+07
8.674e+07
8.16355e+07
7.13705e+07
7.49223e+07
9.11121e+07
9.43709e+07
8.42719e+07
4.92274e+07
1.65967e+07
1.78688e+07
1.9431e+07
2.16289e+07
2.39914e+07
2.60952e+07
2.7229e+07
2.81972e+07
2.89401e+07
2.93589e+07
2.9482e+07
8.69288e+07
8.54462e+07
8.01011e+07
7.09349e+07
1.19761e+07
1.52687e+07
1.65705e+07
1.85396e+07
2.1245e+07
2.44012e+07
2.78649e+07
2.9237e+07
3.00393e+07
3.05538e+07
3.06267e+07
3.01955e+07
8.47149e+07
8.61826e+07
8.69255e+07
9.00728e+07
2.03785e+07
2.22149e+07
2.23523e+07
2.30412e+07
2.44691e+07
2.69297e+07
2.96734e+07
3.17969e+07
3.24175e+07
3.28586e+07
3.27814e+07
3.19147e+07
7.94191e+07
8.11691e+07
8.42232e+07
9.33546e+07
2.56762e+07
2.7764e+07
2.73551e+07
2.73719e+07
2.77654e+07
2.89721e+07
3.11456e+07
3.35137e+07
3.5249e+07
3.57124e+07
3.5768e+07
3.45827e+07
7.12629e+07
7.02419e+07
7.12675e+07
8.31923e+07
3.03542e+07
2.77483e+07
2.85967e+07
2.93865e+07
3.02789e+07
3.14245e+07
3.32164e+07
3.57022e+07
3.81209e+07
3.9695e+07
3.98318e+07
3.89935e+07
6.19783e+07
5.41756e+07
4.79415e+07
4.77181e+07
1.1666e+07
1.98951e+07
2.56922e+07
3.04226e+07
7.16778e+06
1.0749e+07
1.55913e+07
2.00598e+07
2.31139e+07
2.5773e+07
2.84923e+07
3.16088e+07
3.48493e+07
3.79851e+07
4.02744e+07
4.04107e+07
5.26523e+07
3.9964e+07
2.91632e+07
1.53818e+07
1.44514e+07
2.15892e+07
2.75324e+07
2.74411e+07
1.07416e+07
5.96483e+06
7.10893e+06
1.0516e+07
1.47204e+07
1.84714e+07
2.1921e+07
2.58858e+07
2.99942e+07
3.40202e+07
3.78398e+07
4.00881e+07
4.51987e+07
3.20787e+07
2.27954e+07
1.65174e+07
1.55801e+07
2.16942e+07
2.70333e+07
2.82448e+07
1.61322e+07
7.22263e+06
5.62245e+06
6.28172e+06
8.5892e+06
1.21669e+07
1.59834e+07
2.02884e+07
2.46471e+07
2.92949e+07
3.35097e+07
3.7904e+07
4.00613e+07
2.95739e+07
2.36015e+07
1.80829e+07
1.74841e+07
2.23339e+07
2.70276e+07
2.90885e+07
2.05804e+07
1.11021e+07
6.36213e+06
6.48196e+06
6.96577e+06
8.74836e+06
1.17998e+07
1.56081e+07
1.96263e+07
2.42837e+07
2.84515e+07
3.42512e+07
3.68227e+07
2.84485e+07
2.46127e+07
2.03248e+07
2.01348e+07
2.37351e+07
2.73446e+07
3.00394e+07
2.36085e+07
1.5497e+07
9.11794e+06
7.14671e+06
7.09987e+06
7.6658e+06
9.2213e+06
1.20675e+07
1.55509e+07
1.98833e+07
2.38529e+07
3.03657e+07
3.46845e+07
2.78257e+07
2.60412e+07
2.29404e+07
2.33476e+07
2.60539e+07
2.84486e+07
3.11925e+07
2.62794e+07
1.93283e+07
1.29821e+07
9.34205e+06
7.98237e+06
7.8584e+06
8.31044e+06
9.60206e+06
1.18516e+07
1.55626e+07
1.94292e+07
2.61831e+07
3.3302e+07
2.75156e+07
2.71544e+07
2.54755e+07
2.69147e+07
2.85399e+07
3.03928e+07
3.29107e+07
2.8953e+07
2.28831e+07
1.70111e+07
1.2731e+07
9.92902e+06
8.56774e+06
8.50575e+06
9.2127e+06
1.05418e+07
1.32922e+07
1.66135e+07
2.31356e+07
3.24384e+07
2.72003e+07
2.79662e+07
2.67602e+07
2.84456e+07
3.06574e+07
3.25958e+07
3.5259e+07
3.19527e+07
2.68298e+07
2.1501e+07
1.68277e+07
1.31047e+07
1.02497e+07
9.43085e+06
9.69659e+06
1.06674e+07
1.26181e+07
1.5347e+07
2.08337e+07
3.18937e+07
2.69824e+07
2.84031e+07
2.77968e+07
2.93052e+07
3.13653e+07
3.43761e+07
3.75972e+07
3.50257e+07
3.08291e+07
2.59438e+07
2.10076e+07
1.68255e+07
1.28888e+07
1.10569e+07
1.09899e+07
1.14954e+07
1.30064e+07
1.52862e+07
1.8898e+07
3.16211e+07
2.6851e+07
2.86006e+07
2.86148e+07
2.98892e+07
3.19552e+07
3.48995e+07
3.90962e+07
3.8078e+07
3.47458e+07
3.05415e+07
2.56957e+07
2.13388e+07
1.68787e+07
1.42251e+07
1.32133e+07
1.33772e+07
1.43758e+07
1.51516e+07
1.68736e+07
3.1366e+07
2.66888e+07
2.85973e+07
2.90777e+07
3.0044e+07
3.20261e+07
3.50438e+07
3.92556e+07
4.0215e+07
3.84577e+07
3.46527e+07
2.9832e+07
2.53643e+07
2.08819e+07
1.78608e+07
1.63016e+07
1.59755e+07
1.54567e+07
1.54171e+07
1.73465e+07
3.0723e+07
2.6188e+07
2.828e+07
2.92668e+07
2.97475e+07
3.13764e+07
3.40931e+07
3.84647e+07
4.02724e+07
4.04003e+07
3.87354e+07
3.54382e+07
3.17859e+07
2.76997e+07
2.46256e+07
2.21666e+07
2.00155e+07
1.75244e+07
1.77151e+07
1.99276e+07
7.26882e+07
7.96423e+07
8.37314e+07
8.46897e+07
8.36719e+07
8.16032e+07
7.69016e+07
6.92477e+07
6.04531e+07
5.14737e+07
4.42446e+07
3.92973e+07
3.61147e+07
3.4031e+07
3.26536e+07
3.17703e+07
3.11668e+07
3.07934e+07
3.04782e+07
2.97631e+07
7.95829e+07
8.52991e+07
8.86834e+07
8.43757e+07
8.2268e+07
8.3451e+07
7.90604e+07
6.86365e+07
5.31389e+07
3.94566e+07
3.16955e+07
2.93403e+07
2.82381e+07
2.76739e+07
2.73231e+07
2.69443e+07
2.66334e+07
2.63869e+07
2.61543e+07
2.5566e+07
8.34268e+07
8.85306e+07
8.98163e+07
7.82503e+07
7.83037e+07
8.48608e+07
8.2357e+07
6.97219e+07
4.67791e+07
2.88927e+07
2.26288e+07
2.34927e+07
2.45367e+07
2.59717e+07
2.69515e+07
2.76958e+07
2.8078e+07
2.82002e+07
2.81352e+07
2.77244e+07
8.37664e+07
8.32534e+07
7.69126e+07
6.70992e+07
7.03047e+07
8.75689e+07
9.03643e+07
8.00953e+07
4.49516e+07
1.50846e+07
1.64049e+07
1.81373e+07
2.05374e+07
2.33515e+07
2.53069e+07
2.63612e+07
2.72087e+07
2.78182e+07
2.81577e+07
2.82528e+07
8.28308e+07
8.11023e+07
7.67071e+07
6.90274e+07
1.1215e+07
1.45207e+07
1.57172e+07
1.75726e+07
2.01035e+07
2.31352e+07
2.66908e+07
2.86899e+07
2.94795e+07
3.00002e+07
3.00243e+07
2.95135e+07
8.09796e+07
8.25916e+07
8.36861e+07
8.66457e+07
2.02002e+07
2.20955e+07
2.21362e+07
2.26599e+07
2.38233e+07
2.59965e+07
2.87705e+07
3.13752e+07
3.19995e+07
3.24472e+07
3.23973e+07
3.14833e+07
7.60942e+07
7.80765e+07
8.12638e+07
8.9395e+07
2.62996e+07
2.78681e+07
2.73074e+07
2.72103e+07
2.73844e+07
2.82073e+07
3.00793e+07
3.25097e+07
3.45423e+07
3.49525e+07
3.5038e+07
3.39891e+07
6.83921e+07
6.76442e+07
6.87606e+07
7.90879e+07
3.08982e+07
2.68414e+07
2.77298e+07
2.85088e+07
2.94439e+07
3.04396e+07
3.19064e+07
3.41392e+07
3.67756e+07
3.86243e+07
3.87983e+07
3.80241e+07
5.95102e+07
5.22532e+07
4.62167e+07
4.53848e+07
1.0743e+07
1.90136e+07
2.54319e+07
2.98628e+07
6.40671e+06
9.57115e+06
1.4282e+07
1.87344e+07
2.18827e+07
2.43991e+07
2.69437e+07
2.9721e+07
3.28516e+07
3.58671e+07
3.86212e+07
3.89243e+07
5.05082e+07
3.85639e+07
2.82194e+07
1.46825e+07
1.37987e+07
2.12968e+07
2.70663e+07
2.64433e+07
1.01475e+07
5.29158e+06
6.3758e+06
9.48434e+06
1.34259e+07
1.71215e+07
2.04267e+07
2.39771e+07
2.78161e+07
3.16468e+07
3.53584e+07
3.81543e+07
4.32611e+07
3.07584e+07
2.18062e+07
1.57515e+07
1.49141e+07
2.13444e+07
2.65224e+07
2.72341e+07
1.52584e+07
6.5837e+06
4.90689e+06
5.4551e+06
7.55952e+06
1.10212e+07
1.46545e+07
1.85446e+07
2.25795e+07
2.69779e+07
3.09697e+07
3.55931e+07
3.83179e+07
2.83117e+07
2.25506e+07
1.7189e+07
1.66909e+07
2.18428e+07
2.64444e+07
2.79458e+07
1.9616e+07
1.02332e+07
5.52597e+06
5.62849e+06
6.19043e+06
7.89582e+06
1.06724e+07
1.40952e+07
1.77069e+07
2.20129e+07
2.59422e+07
3.16732e+07
3.51746e+07
2.72216e+07
2.34372e+07
1.92817e+07
1.91024e+07
2.29902e+07
2.6627e+07
2.88032e+07
2.25389e+07
1.44223e+07
8.00896e+06
6.29356e+06
6.37382e+06
6.84939e+06
8.22815e+06
1.06499e+07
1.37531e+07
1.77941e+07
2.15378e+07
2.7768e+07
3.31276e+07
2.66742e+07
2.48447e+07
2.19044e+07
2.2031e+07
2.50725e+07
2.74437e+07
2.97852e+07
2.48927e+07
1.80311e+07
1.17093e+07
8.3456e+06
7.09671e+06
6.94353e+06
7.2936e+06
8.47965e+06
1.04866e+07
1.37743e+07
1.7283e+07
2.36937e+07
3.1781e+07
2.63579e+07
2.59325e+07
2.41535e+07
2.54866e+07
2.75701e+07
2.92134e+07
3.1256e+07
2.7278e+07
2.1237e+07
1.55076e+07
1.14458e+07
8.79663e+06
7.52148e+06
7.40074e+06
8.0391e+06
9.1217e+06
1.15478e+07
1.46214e+07
2.07825e+07
3.09276e+07
2.60374e+07
2.6741e+07
2.53842e+07
2.75457e+07
3.00138e+07
3.14379e+07
3.34713e+07
2.99483e+07
2.47423e+07
1.9548e+07
1.5101e+07
1.15113e+07
8.94163e+06
8.17588e+06
8.48958e+06
9.23223e+06
1.09888e+07
1.34512e+07
1.85907e+07
3.03798e+07
2.57989e+07
2.72092e+07
2.63564e+07
2.84047e+07
3.07363e+07
3.34623e+07
3.60393e+07
3.29098e+07
2.8486e+07
2.36759e+07
1.88907e+07
1.48422e+07
1.12684e+07
9.48888e+06
9.45818e+06
9.86285e+06
1.12188e+07
1.32455e+07
1.70122e+07
3.00752e+07
2.56311e+07
2.74092e+07
2.71077e+07
2.90016e+07
3.12712e+07
3.39405e+07
3.78148e+07
3.58451e+07
3.21808e+07
2.80088e+07
2.32568e+07
1.90304e+07
1.48221e+07
1.22432e+07
1.14313e+07
1.14699e+07
1.22765e+07
1.33276e+07
1.50488e+07
2.98303e+07
2.54748e+07
2.74183e+07
2.75507e+07
2.91148e+07
3.1329e+07
3.41307e+07
3.80052e+07
3.84535e+07
3.5839e+07
3.19021e+07
2.71094e+07
2.2773e+07
1.84454e+07
1.55544e+07
1.41491e+07
1.37267e+07
1.35567e+07
1.34029e+07
1.48274e+07
2.92203e+07
2.50013e+07
2.71254e+07
2.77834e+07
2.87654e+07
3.06069e+07
3.32974e+07
3.73563e+07
3.87076e+07
3.83745e+07
3.6241e+07
3.26053e+07
2.88942e+07
2.4926e+07
2.19759e+07
1.96414e+07
1.78507e+07
1.55776e+07
1.5062e+07
1.64103e+07
7.15014e+07
7.8441e+07
8.24875e+07
8.2995e+07
8.20207e+07
8.0088e+07
7.53584e+07
6.76682e+07
5.88779e+07
5.00001e+07
4.28041e+07
3.80189e+07
3.50059e+07
3.3039e+07
3.17352e+07
3.09022e+07
3.03314e+07
2.9966e+07
2.96719e+07
2.90012e+07
7.82162e+07
8.37941e+07
8.69079e+07
8.24159e+07
8.05162e+07
8.20099e+07
7.76148e+07
6.71141e+07
5.16303e+07
3.81642e+07
3.03269e+07
2.81568e+07
2.72693e+07
2.68525e+07
2.65895e+07
2.62741e+07
2.59957e+07
2.57499e+07
2.55293e+07
2.49759e+07
8.2054e+07
8.68141e+07
8.73068e+07
7.4968e+07
7.71235e+07
8.36042e+07
8.10883e+07
6.82749e+07
4.52217e+07
2.76827e+07
2.13087e+07
2.22468e+07
2.35083e+07
2.5089e+07
2.62058e+07
2.70111e+07
2.74859e+07
2.76374e+07
2.75803e+07
2.71815e+07
8.22021e+07
8.14147e+07
7.41398e+07
6.40653e+07
6.85276e+07
8.57873e+07
8.84389e+07
7.81723e+07
4.40212e+07
1.41561e+07
1.53732e+07
1.70605e+07
1.94784e+07
2.26741e+07
2.4754e+07
2.57835e+07
2.66133e+07
2.71792e+07
2.75075e+07
2.76471e+07
8.06945e+07
7.85884e+07
7.41668e+07
6.63392e+07
1.05079e+07
1.35884e+07
1.4729e+07
1.65878e+07
1.90541e+07
2.21972e+07
2.57624e+07
2.82823e+07
2.91453e+07
2.97849e+07
2.98533e+07
2.93264e+07
7.90392e+07
8.0421e+07
8.15174e+07
8.41385e+07
1.91783e+07
2.15403e+07
2.16605e+07
2.21947e+07
2.33141e+07
2.53332e+07
2.81377e+07
3.10103e+07
3.19685e+07
3.23887e+07
3.23793e+07
3.14615e+07
7.43189e+07
7.62523e+07
7.95628e+07
8.68829e+07
2.53718e+07
2.71855e+07
2.68137e+07
2.67202e+07
2.68284e+07
2.75022e+07
2.91457e+07
3.16075e+07
3.3893e+07
3.45086e+07
3.46058e+07
3.37374e+07
6.68767e+07
6.61272e+07
6.73013e+07
7.70065e+07
2.96566e+07
2.56734e+07
2.66842e+07
2.74025e+07
2.82796e+07
2.92202e+07
3.05994e+07
3.27341e+07
3.555e+07
3.76188e+07
3.81033e+07
3.74332e+07
5.82937e+07
5.11767e+07
4.50221e+07
4.35256e+07
1.03192e+07
1.87623e+07
2.48896e+07
2.88182e+07
5.98385e+06
8.71177e+06
1.32352e+07
1.76561e+07
2.07898e+07
2.31653e+07
2.56267e+07
2.82633e+07
3.13698e+07
3.44296e+07
3.74855e+07
3.80891e+07
4.95032e+07
3.78866e+07
2.77232e+07
1.42467e+07
1.34984e+07
2.11416e+07
2.66251e+07
2.56105e+07
9.71407e+06
4.81509e+06
5.85278e+06
8.79071e+06
1.25107e+07
1.60542e+07
1.92592e+07
2.25795e+07
2.62738e+07
3.01445e+07
3.39215e+07
3.71238e+07
4.23717e+07
3.01784e+07
2.13483e+07
1.54258e+07
1.46334e+07
2.12477e+07
2.62721e+07
2.64358e+07
1.46207e+07
6.16619e+06
4.48798e+06
4.93336e+06
6.86407e+06
1.01779e+07
1.37537e+07
1.74237e+07
2.12808e+07
2.56115e+07
2.95919e+07
3.44693e+07
3.75297e+07
2.77914e+07
2.2106e+07
1.69052e+07
1.64148e+07
2.17708e+07
2.62133e+07
2.71266e+07
1.88703e+07
9.60036e+06
5.01027e+06
5.06812e+06
5.62778e+06
7.36338e+06
1.00389e+07
1.3215e+07
1.65646e+07
2.07291e+07
2.46446e+07
3.0497e+07
3.44671e+07
2.67543e+07
2.30183e+07
1.91042e+07
1.87773e+07
2.28772e+07
2.63894e+07
2.80017e+07
2.16807e+07
1.35121e+07
7.2906e+06
5.72171e+06
5.92376e+06
6.40785e+06
7.64639e+06
9.85747e+06
1.27271e+07
1.66448e+07
2.04006e+07
2.66023e+07
3.24629e+07
2.62529e+07
2.44073e+07
2.18948e+07
2.16802e+07
2.48717e+07
2.71262e+07
2.89584e+07
2.38824e+07
1.70249e+07
1.08542e+07
7.74938e+06
6.5821e+06
6.41479e+06
6.75263e+06
7.8652e+06
9.77672e+06
1.29785e+07
1.63369e+07
2.2547e+07
3.11189e+07
2.59187e+07
2.54627e+07
2.38221e+07
2.5037e+07
2.74885e+07
2.87797e+07
3.03669e+07
2.61739e+07
2.01703e+07
1.45651e+07
1.06851e+07
8.08061e+06
6.93529e+06
6.75934e+06
7.34861e+06
8.42709e+06
1.07557e+07
1.36381e+07
1.95793e+07
3.02504e+07
2.55696e+07
2.6256e+07
2.48679e+07
2.7309e+07
3.00961e+07
3.10784e+07
3.25059e+07
2.87111e+07
2.34558e+07
1.83319e+07
1.40338e+07
1.04792e+07
8.14302e+06
7.42607e+06
7.85647e+06
8.5591e+06
1.01666e+07
1.24352e+07
1.73626e+07
2.96795e+07
2.52899e+07
2.67013e+07
2.57419e+07
2.81484e+07
3.08918e+07
3.31996e+07
3.52065e+07
3.16616e+07
2.70115e+07
2.22041e+07
1.74785e+07
1.3496e+07
1.02512e+07
8.65441e+06
8.68877e+06
9.0088e+06
1.02417e+07
1.20527e+07
1.58051e+07
2.93372e+07
2.5071e+07
2.68535e+07
2.63813e+07
2.87658e+07
3.13328e+07
3.36994e+07
3.71408e+07
3.45785e+07
3.06661e+07
2.6368e+07
2.1622e+07
1.75152e+07
1.3664e+07
1.12288e+07
1.04563e+07
1.0396e+07
1.09947e+07
1.20761e+07
1.40112e+07
2.90818e+07
2.48961e+07
2.68391e+07
2.67902e+07
2.88632e+07
3.13518e+07
3.38293e+07
3.74604e+07
3.74217e+07
3.42732e+07
3.01663e+07
2.54002e+07
2.12214e+07
1.71158e+07
1.43016e+07
1.29156e+07
1.23661e+07
1.22116e+07
1.21909e+07
1.3257e+07
2.84812e+07
2.44259e+07
2.65364e+07
2.70481e+07
2.846e+07
3.05386e+07
3.30349e+07
3.68251e+07
3.78073e+07
3.71475e+07
3.47449e+07
3.09964e+07
2.72603e+07
2.33283e+07
2.04204e+07
1.80989e+07
1.63553e+07
1.43417e+07
1.34124e+07
1.45045e+07
7.15309e+07
7.85006e+07
8.25259e+07
8.29638e+07
8.19498e+07
7.9965e+07
7.52698e+07
6.76154e+07
5.88285e+07
4.99227e+07
4.27404e+07
3.79417e+07
3.49199e+07
3.29586e+07
3.16656e+07
3.08436e+07
3.02881e+07
2.99381e+07
2.96547e+07
2.89946e+07
7.82402e+07
8.38716e+07
8.69989e+07
8.22737e+07
8.0447e+07
8.1952e+07
7.75588e+07
6.70546e+07
5.16288e+07
3.81441e+07
3.03283e+07
2.80964e+07
2.71646e+07
2.67488e+07
2.65009e+07
2.62019e+07
2.59405e+07
2.57128e+07
2.55055e+07
2.49656e+07
8.20952e+07
8.68726e+07
8.73422e+07
7.44266e+07
7.74277e+07
8.36584e+07
8.10493e+07
6.81934e+07
4.52764e+07
2.78028e+07
2.13731e+07
2.22809e+07
2.34136e+07
2.4939e+07
2.61063e+07
2.69316e+07
2.74324e+07
2.76074e+07
2.75675e+07
2.71869e+07
8.22644e+07
8.15906e+07
7.42928e+07
6.3162e+07
6.89397e+07
8.53839e+07
8.77453e+07
7.74614e+07
4.34154e+07
1.42826e+07
1.55049e+07
1.71288e+07
1.94736e+07
2.2595e+07
2.4663e+07
2.5695e+07
2.65387e+07
2.71288e+07
2.74824e+07
2.76489e+07
8.06608e+07
7.85201e+07
7.38238e+07
6.41004e+07
1.01178e+07
1.36549e+07
1.47931e+07
1.66388e+07
1.90703e+07
2.21489e+07
2.56483e+07
2.82076e+07
2.90874e+07
2.9756e+07
2.98404e+07
2.93237e+07
7.90887e+07
8.03981e+07
8.14201e+07
8.36761e+07
1.88359e+07
2.16301e+07
2.17168e+07
2.22215e+07
2.33139e+07
2.53001e+07
2.80804e+07
3.09458e+07
3.19882e+07
3.24168e+07
3.24123e+07
3.14915e+07
7.43401e+07
7.61879e+07
7.94396e+07
8.60465e+07
2.53281e+07
2.72934e+07
2.68609e+07
2.67621e+07
2.68557e+07
2.75058e+07
2.91196e+07
3.15463e+07
3.38745e+07
3.45361e+07
3.46595e+07
3.38285e+07
6.68244e+07
6.60223e+07
6.71864e+07
7.63218e+07
2.91502e+07
2.58894e+07
2.68356e+07
2.75121e+07
2.83384e+07
2.92438e+07
3.05954e+07
3.27103e+07
3.5518e+07
3.76435e+07
3.81806e+07
3.75413e+07
5.82709e+07
5.11674e+07
4.50352e+07
4.36338e+07
1.02114e+07
1.89098e+07
2.48324e+07
2.84933e+07
5.71233e+06
9.00969e+06
1.36142e+07
1.7947e+07
2.09781e+07
2.32736e+07
2.56793e+07
2.8287e+07
3.1371e+07
3.44528e+07
3.75535e+07
3.81927e+07
4.95181e+07
3.79139e+07
2.77513e+07
1.42142e+07
1.35984e+07
2.12333e+07
2.67015e+07
2.54576e+07
9.41692e+06
4.78197e+06
5.8919e+06
8.9177e+06
1.26628e+07
1.61769e+07
1.93421e+07
2.26357e+07
2.63106e+07
3.01669e+07
3.39564e+07
3.71967e+07
4.24271e+07
3.02345e+07
2.14236e+07
1.54926e+07
1.47344e+07
2.13132e+07
2.63084e+07
2.63816e+07
1.42497e+07
6.05427e+06
4.50739e+06
4.96508e+06
6.92129e+06
1.02386e+07
1.38072e+07
1.74711e+07
2.13225e+07
2.56278e+07
2.95998e+07
3.45076e+07
3.76293e+07
2.79335e+07
2.22568e+07
1.71258e+07
1.65395e+07
2.18179e+07
2.62277e+07
2.70903e+07
1.85437e+07
9.3876e+06
4.99856e+06
5.11814e+06
5.65803e+06
7.39917e+06
1.00957e+07
1.32738e+07
1.66118e+07
2.07576e+07
2.46556e+07
3.05149e+07
3.45965e+07
2.69413e+07
2.32678e+07
1.94304e+07
1.89832e+07
2.29318e+07
2.63757e+07
2.79495e+07
2.14051e+07
1.32723e+07
7.19826e+06
5.72315e+06
5.9184e+06
6.42642e+06
7.70554e+06
9.91118e+06
1.2762e+07
1.66652e+07
2.04034e+07
2.6601e+07
3.26104e+07
2.64518e+07
2.46696e+07
2.22571e+07
2.19428e+07
2.49905e+07
2.71211e+07
2.88828e+07
2.36308e+07
1.6774e+07
1.06956e+07
7.65922e+06
6.54334e+06
6.41314e+06
6.7733e+06
7.86034e+06
9.75507e+06
1.29697e+07
1.63251e+07
2.25397e+07
3.12713e+07
2.61149e+07
2.56785e+07
2.4113e+07
2.53178e+07
2.77191e+07
2.88417e+07
3.02857e+07
2.59525e+07
1.99188e+07
1.43786e+07
1.05654e+07
8.00413e+06
6.89628e+06
6.73682e+06
7.33015e+06
8.41427e+06
1.07541e+07
1.36391e+07
1.95834e+07
3.04018e+07
2.57533e+07
2.64555e+07
2.5129e+07
2.75564e+07
3.03892e+07
3.1243e+07
3.24522e+07
2.85197e+07
2.32235e+07
1.81515e+07
1.3916e+07
1.03815e+07
8.09123e+06
7.39023e+06
7.8249e+06
8.54304e+06
1.01707e+07
1.24457e+07
1.73669e+07
2.98139e+07
2.54497e+07
2.68682e+07
2.59488e+07
2.83742e+07
3.11514e+07
3.33954e+07
3.52053e+07
3.15373e+07
2.68412e+07
2.2055e+07
1.73544e+07
1.33911e+07
1.01573e+07
8.58259e+06
8.64097e+06
8.98225e+06
1.02402e+07
1.20678e+07
1.58131e+07
2.94492e+07
2.52017e+07
2.69853e+07
2.65328e+07
2.89567e+07
3.15685e+07
3.38864e+07
3.71675e+07
3.45188e+07
3.05689e+07
2.62634e+07
2.15094e+07
1.74098e+07
1.35254e+07
1.11211e+07
1.04059e+07
1.0379e+07
1.09938e+07
1.20866e+07
1.40147e+07
2.91713e+07
2.50003e+07
2.69402e+07
2.68997e+07
2.9024e+07
3.15543e+07
3.39981e+07
3.7522e+07
3.73909e+07
3.4203e+07
3.00934e+07
2.53201e+07
2.11329e+07
1.69913e+07
1.42031e+07
1.28724e+07
1.2354e+07
1.22178e+07
1.2193e+07
1.32559e+07
2.85403e+07
2.44957e+07
2.6599e+07
2.71058e+07
2.85691e+07
3.06827e+07
3.31571e+07
3.68594e+07
3.7784e+07
3.70966e+07
3.46973e+07
3.09515e+07
2.72115e+07
2.32705e+07
2.038e+07
1.80763e+07
1.63652e+07
1.43657e+07
1.34083e+07
1.4498e+07
7.27368e+07
7.97933e+07
8.38321e+07
8.45041e+07
8.35954e+07
8.13708e+07
7.662e+07
6.89828e+07
6.01487e+07
5.11904e+07
4.40272e+07
3.91076e+07
3.59396e+07
3.38699e+07
3.252e+07
3.16668e+07
3.11009e+07
3.07591e+07
3.04664e+07
2.9763e+07
7.95008e+07
8.52936e+07
8.86979e+07
8.39592e+07
8.2271e+07
8.33938e+07
7.88559e+07
6.83278e+07
5.27065e+07
3.90823e+07
3.14724e+07
2.91267e+07
2.8008e+07
2.74472e+07
2.71244e+07
2.67857e+07
2.65199e+07
2.63161e+07
2.61154e+07
2.55502e+07
8.33356e+07
8.83867e+07
8.96161e+07
7.70774e+07
7.912e+07
8.50594e+07
8.22652e+07
6.93677e+07
4.62048e+07
2.85398e+07
2.24352e+07
2.33188e+07
2.42739e+07
2.56835e+07
2.67356e+07
2.75334e+07
2.79824e+07
2.81607e+07
2.81359e+07
2.77572e+07
8.38734e+07
8.33954e+07
7.67228e+07
6.45193e+07
7.03912e+07
8.66921e+07
8.90217e+07
7.87008e+07
4.40353e+07
1.49598e+07
1.63155e+07
1.80198e+07
2.03762e+07
2.31923e+07
2.51516e+07
2.62102e+07
2.70943e+07
2.77704e+07
2.81757e+07
2.83393e+07
8.26719e+07
8.07493e+07
7.57094e+07
6.51414e+07
1.05078e+07
1.44098e+07
1.56547e+07
1.75494e+07
2.00914e+07
2.31259e+07
2.65789e+07
2.86404e+07
2.94437e+07
2.99975e+07
3.00562e+07
2.958e+07
8.0918e+07
8.23056e+07
8.3245e+07
8.52419e+07
1.95626e+07
2.24474e+07
2.24972e+07
2.30032e+07
2.413e+07
2.62098e+07
2.88769e+07
3.1449e+07
3.21143e+07
3.25514e+07
3.24945e+07
3.15607e+07
7.59913e+07
7.78298e+07
8.09993e+07
8.75877e+07
2.60829e+07
2.80973e+07
2.75465e+07
2.74536e+07
2.76198e+07
2.84125e+07
3.02082e+07
3.25787e+07
3.46653e+07
3.51055e+07
3.52093e+07
3.41829e+07
6.83616e+07
6.74601e+07
6.84839e+07
7.74626e+07
3.00693e+07
2.70078e+07
2.78295e+07
2.85771e+07
2.95208e+07
3.05377e+07
3.20274e+07
3.42922e+07
3.70052e+07
3.88612e+07
3.90335e+07
3.82614e+07
5.94924e+07
5.20845e+07
4.58264e+07
4.36737e+07
1.0251e+07
1.87748e+07
2.53019e+07
2.93027e+07
6.09722e+06
9.92806e+06
1.47359e+07
1.91517e+07
2.224e+07
2.47421e+07
2.72715e+07
3.00289e+07
3.31409e+07
3.61645e+07