/*--------------------------------*- C++ -*----------------------------------*\
  =========                 |
  \\      /  F ield         | OpenFOAM: The Open Source CFD Toolbox
   \\    /   O peration     | Website:  https://openfoam.org
    \\  /    A nd           | Version:  9
     \\/     M anipulation  |
\*---------------------------------------------------------------------------*/
FoamFile
{
    format      ascii;
    class       volVectorField;
    location    "0.0035";
    object      rhoU;
}
// * * * * * * * * * * * * * * * * * * * * * * * * * * * * * * * * * * * * * //

dimensions      [1 -2 -1 0 0 0 0];

internalField   nonuniform List<vector> 
9720
(
(-24732.8 -24821.8 -4896.56)
(-21431.3 -29083.5 -5002.74)
(-18778.2 -31693.6 -4939.43)
(-15365.5 -34274.5 -6023.73)
(-10695.9 -37353.4 -6299.53)
(-3672.39 -37787.9 -6023.42)
(3807.33 -36476.1 -5990.78)
(11186.8 -32787.2 -5351.31)
(16955 -27493.7 -4549.04)
(19503.6 -21170.4 -3832.87)
(20006.8 -15917.2 -3369.66)
(19713.2 -12103 -2784.6)
(19341.5 -9596.02 -2677.33)
(19022 -7780.32 -2380.73)
(18812.5 -6495.17 -2261.32)
(18645.5 -5712.44 -2279.94)
(18564.6 -5008.9 -2190.14)
(18516.3 -4500.19 -2043.25)
(18416.4 -4106.72 -1998.79)
(17969.8 -3594.78 -1867.07)
(-28840.2 -21525.8 -4957.96)
(-25208.7 -25463.7 -4617.13)
(-22270.5 -28164.1 -4618.46)
(-19047.2 -30052.3 -5868.64)
(-13787 -34628.1 -6350.75)
(-5351.03 -36618.6 -6047.99)
(3691.54 -35363.5 -5989.6)
(12592.4 -30930.9 -5097.22)
(18639.3 -21821.5 -3816.3)
(18844.1 -12914.4 -2755.94)
(17799.2 -7796.81 -2397.91)
(17226 -5194.37 -1974.37)
(16828.1 -3745.15 -2004.74)
(16594.6 -2927.15 -1858.26)
(16474.3 -2515.31 -1809.79)
(16333.6 -2304.15 -1885.19)
(16262.6 -2111.93 -1895.78)
(16197.6 -1957.45 -1799.02)
(16084.2 -1822.15 -1785.67)
(15657.8 -1623.55 -1697.59)
(-31389.1 -18895.2 -4746.42)
(-27872.8 -22530.6 -4414.1)
(-25731.2 -25950 -4812.77)
(-23508 -27790.4 -5193.4)
(-16058.8 -32428.9 -5855.11)
(-6608.74 -36196.2 -5812.43)
(3545.9 -35166.7 -5608.44)
(13923.3 -30160.9 -4553.3)
(19142.4 -17367.9 -3102.56)
(15653.9 -7301.42 -1791.34)
(14112.6 -3863.92 -1606.48)
(14567.3 -2428.23 -1508.77)
(15116.6 -1455.57 -1531.37)
(15769.3 -914.106 -1366.59)
(16340.4 -650.489 -1338.33)
(16679.3 -568.123 -1400.4)
(16841.1 -510.823 -1461.63)
(16905.7 -467.298 -1456.84)
(16861.3 -441.239 -1538.08)
(16524.8 -421.624 -1538.37)
(-34116.3 -15366.8 -5640.2)
(-29967.9 -19079.3 -5302.56)
(-27850.1 -23567.4 -4588.3)
(-23432.3 -23347.7 -4865.22)
(-19094.2 -28127.7 -5398.03)
(-10485.7 -34628.2 -6189)
(847.157 -36375.1 -6560.4)
(12235.6 -32779.8 -5849.71)
(18930.4 -16916.5 -3312.52)
(9772.12 -2193.03 -1011.29)
(10619.4 -1289.64 -1169.9)
(11571.2 -604.85 -1336.46)
(12869.8 38.6847 -1587.55)
(14180.2 394.47 -1584.26)
(15261.3 722.32 -1534.05)
(15902.3 885.565 -1542.63)
(16424.4 943.939 -1546.91)
(16805.8 953.913 -1462.03)
(17015.7 931.836 -1492.41)
(16979.3 852.138 -1545.4)
(-37107.8 -10571.1 -5974.14)
(-34246.4 -13692 -5905.04)
(-31943.5 -16089.1 -5267.74)
(-28083 -18905.8 -4609.7)
(8066.52 -1438.84 -1160.48)
(9178.16 -442.79 -955.148)
(9934.51 -173.98 -1111.9)
(11132.5 111.088 -1296.83)
(12652.7 737.599 -1568.27)
(14405.9 1448.32 -1616.3)
(15721.3 1887.69 -1678.54)
(16222.1 2118.21 -1720.76)
(16623.5 2155.46 -1700.2)
(16898.2 2126.82 -1606.82)
(17016.9 2042.85 -1707.88)
(16903.7 1871.67 -1779.52)
(-37511 -3567.82 -5936.38)
(-36206.4 -5224.01 -5911.9)
(-35775.7 -6491.89 -5630.31)
(-34462.9 -10408.4 -5871.08)
(11455.4 280.822 -1186.74)
(12232.8 689.654 -1187.22)
(12398.1 696.04 -1236.69)
(12923 851.682 -1315.59)
(13925.4 1143.34 -1508.16)
(15094.2 1858.41 -1609.16)
(16337.7 2643.69 -1722.03)
(16858.1 3047.33 -1791.95)
(17213.3 3198.51 -1789.85)
(17481.2 3239.92 -1747.37)
(17534.4 3142.85 -1864.79)
(17256 2874.39 -1916.98)
(-36082.1 3926.77 -5943.56)
(-34825.5 3870.34 -5946.07)
(-34525.6 3771.26 -5574.84)
(-35873.5 1052.86 -6491.54)
(13591.8 1699.44 -1318.62)
(14393.1 2198.47 -1306.98)
(14388.7 2235.13 -1353.16)
(14514.4 2334.15 -1396.28)
(14901.2 2551.62 -1502.5)
(15713.9 2947.5 -1578.79)
(16739.9 3676.66 -1688.03)
(17817 4289.2 -1835.39)
(18222.6 4493.19 -1850.98)
(18470.7 4570.39 -1826.78)
(18462.9 4430.31 -1916.9)
(17913.6 3990.49 -1951.9)
(-32293.1 11230.9 -5408.92)
(-30235.9 12641.5 -5188.98)
(-29317.3 14003.9 -4711.03)
(-31785.2 12467.3 -5843.31)
(15612.7 3227.99 -1526.68)
(14111.1 3669.79 -1153.42)
(14655.7 3650.06 -1238.81)
(15209.3 3624.66 -1339.69)
(15755.3 3692.95 -1400.21)
(16503.7 3908.26 -1461.86)
(17615.5 4325.59 -1527.27)
(18801.8 4886.36 -1651.23)
(19742.4 5269.75 -1844.17)
(20012.8 5385.56 -1881.02)
(20047.9 5412.69 -1930.62)
(19486.5 5088.84 -1946.39)
(-26896.2 16812.3 -4693.51)
(-21097.8 18375.5 -4050.72)
(-16582.6 18719 -3437.3)
(-15210.6 18110.9 -3578.75)
(-1352.5 7774.41 -1119.57)
(288.273 11503.2 -1241.63)
(1705.2 13642.1 -1368.81)
(3259.63 15583.3 -1455.1)
(2798.76 3169.14 -363.174)
(5168.8 3027.45 -435.536)
(7874.37 3868.69 -727.34)
(10125.8 4403.12 -857.7)
(11827.7 4697.8 -995.324)
(13452.7 4950.88 -1138.12)
(15009.9 5278.09 -1267.35)
(16593.5 5845.82 -1400.78)
(18152 6305.71 -1532.49)
(19487.2 6571.73 -1672.39)
(19999 6560.15 -1792.34)
(19849.9 6227.53 -1843.13)
(-20617.3 19197.8 -4007.57)
(-12445.6 18469.4 -3025.43)
(-7015.3 15330.9 -2096.45)
(-2126.36 9721 -1210.75)
(-474.47 9194.24 -1050.48)
(664.558 12167 -1233.65)
(2192.95 14365.5 -1327.23)
(3721.17 14228.2 -1114.24)
(3180.29 5810.55 -482.405)
(2674.93 2788.73 -337.511)
(3631.78 2720.7 -285.713)
(5432.9 3469.72 -375.821)
(7545.29 4322.55 -608.412)
(9536.8 4951.12 -898.059)
(11545.4 5507.45 -1120.06)
(13599.7 6179.76 -1178.69)
(15553.7 6798.7 -1216.2)
(17413.4 7293.17 -1319.19)
(18921 7550.98 -1506.34)
(19399.5 7286.34 -1661.63)
(-15468.5 19610.7 -3527.79)
(-7506.74 17415.4 -2627.06)
(-3738.5 13873.3 -1880.83)
(-1270.19 10505.9 -1392.63)
(-196.613 9974.2 -1204.46)
(678.09 12343.9 -1281.19)
(2234 14376 -1362.56)
(3661.79 14718.8 -1212.53)
(4112.66 8636.6 -729.794)
(2751.28 3891.98 -336.025)
(2771.03 2850.4 -243.774)
(3362.06 2758.97 -281.275)
(4612.1 3381.13 -463.208)
(6378.72 4270.48 -660.325)
(8353.11 5115.84 -785.949)
(10541.8 5984.71 -837.519)
(12665.1 6785.44 -876.551)
(14769.1 7505.24 -973.811)
(16622.6 8035.44 -1177.78)
(18165.7 8102.59 -1470.07)
(-11756.1 19296.8 -2929.4)
(-4994.84 16822.1 -2163.72)
(-2339.3 14253.2 -1738.66)
(-606.456 11427.3 -1540.65)
(101.631 11134.1 -1381.43)
(837.323 12880.8 -1360.87)
(2335.98 14517.8 -1401.15)
(3619.71 15271.8 -1316.31)
(4571.81 10745.2 -825.21)
(3694.98 5934.1 -386.671)
(2791.83 3528.59 -316.106)
(3093.09 3152.14 -308.655)
(3545.41 3064.74 -345.629)
(4483.78 3537.86 -348.403)
(5974.14 4405.79 -377.176)
(7850.19 5403.63 -515.784)
(9844.14 6336.29 -641.134)
(11981.3 7247.65 -789.684)
(13891.7 7977.16 -1025.46)
(16204.6 8481.48 -1339.51)
(-9333.02 18940.2 -2805.64)
(-3607.38 16433.9 -2156.56)
(-1398.24 14790.4 -1703.82)
(4.0009 12654.4 -1727.69)
(721.748 12552.5 -1635.28)
(1133.6 13865.1 -1555.86)
(2547.19 14922 -1501.56)
(3692.26 15829.2 -1372.23)
(4808.25 12324 -937.177)
(4549.36 8100.36 -581.813)
(3587.25 4970.36 -476.381)
(3121.38 3705.67 -365.486)
(3350.75 3401.02 -300.152)
(3781.56 3393.41 -203.328)
(4551.78 3824.43 -256.96)
(5853.17 4639.89 -440.263)
(7509.62 5585.74 -567.15)
(9493.27 6659.71 -755.968)
(11353 7572.19 -920.111)
(14033.3 8466.55 -1141.25)
(-7583.98 18651.8 -2493.38)
(-2832.32 16226.4 -1983.88)
(-880.63 15440.7 -1506.16)
(366.486 13911.6 -1687.82)
(1388.44 14212.7 -1686.95)
(1819.52 14978.5 -1650.75)
(2930.17 15719.8 -1573.68)
(3910.96 16600.1 -1423.77)
(5029.08 13866 -1068.65)
(5151.12 10088.8 -857.104)
(4519.29 6846.4 -655.569)
(3753.08 4789.21 -357.17)
(3476.52 3915.47 -202.123)
(3707.84 3725.18 -156.671)
(4024.27 3720.58 -294.803)
(4692.19 4062.85 -469.689)
(5848.07 4858.49 -550.346)
(7494.17 5979.33 -717.333)
(9102.58 6927.66 -730.825)
(11845.7 8063.38 -840.857)
(-6346.83 18477.2 -2356.22)
(-2445.56 16139.8 -1911.97)
(-628.963 16020.6 -1455.08)
(697.042 15004.1 -1625.44)
(1817.36 15506.3 -1757.43)
(2547.7 16161.5 -1758.85)
(3618.79 16708.9 -1687.2)
(4313.63 17702 -1471.45)
(5350.11 15364.8 -1194.11)
(5692.1 12081.3 -1057.87)
(5373.18 8880.51 -745.205)
(4690.5 6408.86 -344.145)
(4065.59 4838.45 -231.212)
(3792.05 4132.2 -280.639)
(3980.22 4004.53 -464.114)
(4455.54 4207.09 -561.757)
(5169.71 4654.33 -553.674)
(6304 5413.65 -553.802)
(7598.32 6219.75 -411.292)
(10142.2 7617.73 -513.095)
(-5596.52 18345.7 -2359.79)
(-2249.26 16037.4 -1970.21)
(-551.61 16385.5 -1505.02)
(860.063 15651.7 -1622.31)
(2052.32 16021 -1800.63)
(2951.16 16750.3 -1836.91)
(4175.1 17766.3 -1832.91)
(4838.54 18840.8 -1617.39)
(5877.17 16883.6 -1320.7)
(6330.3 14084.1 -1094.93)
(6226.9 11086.2 -758.773)
(5710.96 8366.63 -443.561)
(4972.38 6284.05 -375.718)
(4310.63 4975.22 -426.513)
(4279.67 4559.28 -543.833)
(4537.01 4543.77 -515.161)
(5024.9 4767.11 -429.023)
(5708.53 5171.51 -299.658)
(6733.81 5958.58 -206.648)
(8747.13 7268.24 -404.465)
(-4916.48 18296.9 -2253.85)
(-2065.83 16001.1 -1960.73)
(-494.917 16579.1 -1544.58)
(924.398 16199.2 -1617.72)
(2078.05 16436.7 -1769.63)
(3116.27 17115.7 -1825.14)
(4376.99 18182.2 -1846.21)
(5184.28 19782.2 -1792.94)
(6296.24 18439.4 -1464.76)
(6898.56 16011.2 -1126.59)
(6990.12 13210.4 -776.433)
(6627.14 10392.2 -535.697)
(5948.38 8034.94 -478.498)
(5211.98 6289.86 -501.083)
(4883.33 5416.32 -522.836)
(4845.71 5081.95 -399.662)
(5075.64 5038.58 -257.819)
(5681.33 5375.64 -131.177)
(6389.13 5978.03 -207.123)
(7552.21 6640.47 -488.815)
(-4424.71 18278.3 -2097.96)
(-1918.35 15966.3 -1852.23)
(-451.999 16674.5 -1523.1)
(940.067 16619.2 -1523.67)
(2053.1 16731.4 -1669.04)
(3165.54 17392.4 -1772.77)
(4452.42 18437.8 -1817.46)
(5316.8 20040.7 -1821.83)
(6545.35 19739.1 -1610.05)
(7365.5 17870.6 -1235.86)
(7679.73 15319.2 -867.852)
(7510.39 12550.7 -666.433)
(7014.49 10084 -653.163)
(6373.14 8045.91 -649.8)
(5758.11 6688.99 -493.157)
(5369.7 5847.37 -238.561)
(5524.86 5734.71 -94.786)
(5867.71 5832.45 -141.106)
(6062.41 5940 -381.938)
(6837.27 6328.08 -598.9)
(-4041.01 18201.1 -2043.54)
(-1786.42 15875.6 -1826.24)
(-431.101 16657.5 -1588.04)
(918.269 16863.4 -1547.99)
(1979.48 16876.9 -1763.78)
(3074.92 17461 -1893.4)
(4320.46 18442.8 -1903.71)
(5354.43 20073.9 -1868.53)
(6525.05 20185.5 -1720.39)
(7586.82 19313.3 -1430.98)
(8186.29 17193.3 -1082.09)
(8224.15 14507 -912.277)
(7912.2 12002.7 -821.041)
(7328.64 9735.08 -645.126)
(6605.15 8090.51 -317.381)
(6258.37 7030.13 -112.494)
(6221.58 6580.85 -146.109)
(6049.64 6125.55 -349.589)
(6145.57 6118.79 -533.396)
(6911.72 6573.75 -583.971)
(-3541.49 17786.5 -1901.6)
(-1593.85 15482.6 -1726.44)
(-414.001 16358.6 -1572.74)
(842.741 16865 -1593.4)
(1824.53 16798.7 -1823.29)
(2821.58 17204.2 -1944.95)
(3908.13 17929.4 -1935.22)
(5021.41 19475.5 -1882.96)
(6197.9 20002.9 -1769.05)
(7319.4 19725.9 -1587.96)
(8204.03 18646.2 -1386.66)
(8672.52 16810.1 -1248.78)
(8763.5 14735.2 -1058.11)
(8441.92 12557.1 -756.488)
(8011.85 10752.7 -410.788)
(7665.84 9250.97 -302.701)
(7020.47 7976.61 -418.009)
(6544.24 7053.52 -549.442)
(6765.15 7027.2 -571.323)
(8239.71 8191.57 -610.548)
(-23363.8 -23458.1 -3190.02)
(-20383 -27643.6 -3176.19)
(-17877.5 -30228.7 -2991.1)
(-14663.6 -32642 -3613.42)
(-10183 -35352.8 -3793.36)
(-3476.52 -35728.7 -3673.01)
(3535.12 -34433.9 -3686.54)
(10401 -30934.4 -3249.31)
(15740.9 -25830.3 -2703.2)
(18046.9 -19812.2 -2236.5)
(18441.9 -14825.3 -1954.66)
(18107.2 -11240.2 -1562.3)
(17705 -8891.89 -1554.98)
(17380.8 -7205.08 -1385.64)
(17154.1 -6004.12 -1345.56)
(16962.8 -5280.61 -1388.17)
(16864.8 -4632.89 -1344.04)
(16817.2 -4164.94 -1262.71)
(16716.6 -3797.08 -1246.77)
(16283.8 -3319.59 -1176.01)
(-27393.1 -20504.5 -3176.73)
(-24060.8 -24374.9 -2701.36)
(-21348.5 -27109.7 -2505.09)
(-18453.6 -28916.1 -3090.91)
(-13041.8 -33081 -3647.88)
(-5041.39 -35119.7 -3679.26)
(3452.33 -33880.2 -3705.4)
(11802.9 -29525.5 -3096.32)
(17410.1 -20743.9 -2212.92)
(17478.3 -12257.3 -1556.53)
(16351.3 -7361.09 -1331.83)
(15803.8 -4905.6 -1025.34)
(15443.9 -3540.35 -1126.35)
(15244.3 -2756.55 -1085.84)
(15138.6 -2380.52 -1103.01)
(14986 -2182.84 -1187.67)
(14887.3 -1999.5 -1217.07)
(14812 -1852.19 -1166.77)
(14691.8 -1721.37 -1169.79)
(14272.7 -1530.2 -1124.59)
(-29938.2 -18028.3 -2924.65)
(-26714.6 -21660.2 -2414.45)
(-24651.2 -25051.2 -2357.81)
(-22632.6 -26567.3 -2546.02)
(-15029.7 -31424.5 -3479.83)
(-6176.05 -35196.5 -3858.04)
(3392.75 -34178.8 -3731.71)
(13310.5 -29125 -2952.75)
(18136.7 -16761 -1831.46)
(14597.3 -7025.93 -990.756)
(12949.6 -3711.83 -898.065)
(13339.2 -2381.21 -753.395)
(13816.3 -1464.33 -759.543)
(14491.1 -922.227 -668.947)
(15054 -679.058 -703.054)
(15410.2 -593.277 -814.491)
(15572.4 -534.488 -910.393)
(15635.3 -491.48 -941.89)
(15587.4 -473.016 -1036.4)
(15260.7 -452.495 -1063.42)
(-32490.3 -14660.7 -3382.05)
(-28718.2 -18457.2 -2762.64)
(-26350.7 -22740.1 -2223.19)
(-22659.5 -23030.1 -2944.18)
(-18207.8 -28181.7 -3783.19)
(-9878.33 -34507.6 -4508.84)
(936.443 -36089.3 -4661.74)
(11860.2 -32122.2 -3899.7)
(18270.9 -16750.8 -1785.6)
(9188.2 -2092.97 -467.452)
(9943.87 -1275.3 -626.296)
(10718 -676.416 -707.526)
(11808.8 -93.7221 -889)
(12990.6 253.816 -893.17)
(14095.2 562.61 -895.138)
(14687.6 727.018 -944.63)
(15192.9 789.682 -992.45)
(15577.2 811.305 -967.265)
(15787.9 786.608 -1021.26)
(15750.2 712.756 -1076.22)
(-35153.2 -10075.9 -3549.44)
(-32642.2 -13018.1 -3343.98)
(-30596.5 -15185.8 -3182.12)
(-26910.4 -18150.8 -3364.61)
(7358.21 -1425.19 -470.676)
(8860.74 -442.956 -673.326)
(9485.37 -187.077 -759.725)
(10460.5 72.2686 -829.034)
(11770.7 535.675 -918.782)
(13291.2 1207.48 -867.127)
(14732.1 1644.31 -976.787)
(15223.4 1884.01 -1086.76)
(15638.6 1933.53 -1160.8)
(15905.9 1919.97 -1154.72)
(15987.4 1839.27 -1269.91)
(15800.4 1662.82 -1328.12)
(-35546 -3433.87 -3532.37)
(-34816.5 -5051.6 -3504.25)
(-34842.4 -6199.12 -3660.28)
(-34387.1 -9973.65 -4163.12)
(11235.2 202.667 -953.682)
(12109.4 619.868 -937.342)
(12155 607.308 -938.582)
(12479.4 734.863 -940.058)
(13205.8 961.155 -961.929)
(14253.3 1511.42 -897.12)
(15369.8 2286.22 -990.326)
(16044.3 2697.56 -1143.86)
(16357.3 2874.49 -1226.17)
(16596.6 2945.15 -1254.74)
(16599.4 2863.73 -1399.97)
(16232.2 2589.23 -1461.14)
(-34047.6 3579.51 -3621.43)
(-33398.6 3495.98 -3678.42)
(-33663.9 3374.16 -3751.64)
(-35619.6 967.905 -4594.65)
(13603.1 1593.47 -1064.39)
(14271.7 2069.32 -1030.87)
(14073.8 2059.36 -1008.86)
(14068.4 2116.75 -983.925)
(14245 2275.16 -990.682)
(14852.4 2575.81 -927.837)
(15749.4 3181.03 -868.934)
(16748.1 3839.52 -1044.94)
(17344.1 4077.94 -1168.53)
(17578.3 4185.05 -1209.19)
(17575.7 4086.76 -1350.69)
(17010.3 3654.89 -1452.2)
(-30413.9 10329.5 -3321.11)
(-28923.2 11699.3 -3262.19)
(-28486.7 13153.4 -3243.57)
(-31377.9 11798.9 -4093.62)
(15469.7 3008.63 -1164.05)
(13808.6 3474.28 -867.525)
(14175.9 3403.45 -905.496)
(14526.2 3347.99 -913.814)
(14921.9 3358.21 -894.33)
(15491.3 3492.71 -880.202)
(16410 3813.75 -840.882)
(17494 4334.23 -806.646)
(18498.9 4714.22 -1024.67)
(19019.6 4875.97 -1156.38)
(19074.3 4910.32 -1267.43)
(18607.6 4646.95 -1376.97)
(-25205.5 15481 -2857.21)
(-20049.5 17011.6 -2499.35)
(-16037.4 17553.6 -2263.81)
(-15633 17639.5 -2188.67)
(-1318.51 7009.53 -554.594)
(155.447 11084.5 -1008.5)
(1527.11 13455.2 -1129.68)
(2958.81 15261.9 -1120.69)
(2554.71 2946.67 -185.658)
(4864.83 2773.13 -287.19)
(7349.26 3494.87 -476.984)
(9456.35 3991.91 -556.512)
(10988.6 4233.16 -631.703)
(12372.8 4422.27 -702.972)
(13741.7 4668.64 -694.289)
(15217.4 5148.3 -685.373)
(16689.3 5597.93 -741.861)
(18115.5 5910.14 -883.13)
(18879.2 5993.4 -1086.68)
(18848 5712.2 -1242.37)
(-19233 17630.1 -2403.21)
(-11754.9 16928.1 -1811.64)
(-6703.37 14053.3 -1292.24)
(-2009.81 8944.07 -656.53)
(-489.615 8734.99 -736.657)
(524.946 11924.1 -937.297)
(1961.61 14257.8 -1013.37)
(3452.27 13822.4 -803.312)
(2860.85 5375.22 -280.407)
(2340.84 2440.72 -206.718)
(3198.25 2361.81 -153.899)
(4828.17 3012.54 -212.671)
(6768.85 3785.94 -347.336)
(8536.79 4334.57 -499.189)
(10289.7 4793.57 -611.082)
(12209.3 5383.06 -587.174)
(14104.7 5980.41 -556.537)
(15950.2 6491.66 -617.795)
(17574.1 6848.48 -804.561)
(18255.6 6678.16 -1048.43)
(-14352.6 17953.5 -2101.87)
(-7016.13 15754.2 -1497.96)
(-3535.12 12348.7 -1038.15)
(-1258.03 9623.17 -737.537)
(-222.54 9332.55 -777.302)
(523.356 11983.2 -916.389)
(1963.18 14060.8 -966.264)
(3345.94 14191.8 -832.643)
(3664.8 7951.25 -409.547)
(2370.22 3397.86 -169.68)
(2324.99 2390.86 -134.432)
(2841.82 2311.47 -133.354)
(3899.09 2797.37 -196.945)
(5451.77 3566.11 -306.521)
(7262 4344.89 -410.424)
(9323.77 5169.22 -419.132)
(11360.2 5935.7 -387.838)
(13398.7 6633.78 -404.168)
(15203.7 7194.16 -537.758)
(16870.4 7375.16 -848.543)
(-10886.3 17631.3 -1702.02)
(-4692.62 15281.7 -1175.86)
(-2299.98 12887.4 -878.476)
(-700.658 10383.8 -745.731)
(49.0137 10270 -807.648)
(649.208 12307.8 -896.29)
(2042.55 14053.5 -913.619)
(3290.39 14591.4 -831.539)
(4113.13 9973.49 -446.702)
(3201.31 5252.65 -171.568)
(2322.79 2962.84 -147.131)
(2604.27 2650.56 -105.739)
(2982.51 2548.58 -97.5817)
(3829.31 2952.36 -121.829)
(5193.91 3752.03 -156.693)
(6916.05 4663.8 -222.317)
(8762.3 5523.16 -262.945)
(10758.6 6362.44 -298.984)
(12528.7 7054.23 -433.178)
(14864.4 7641.42 -741.187)
(-8631.57 17269.6 -1678.8)
(-3396.02 14985.2 -1258.88)
(-1408.79 13390.4 -874.383)
(-147.225 11459.7 -891.166)
(519.438 11531.2 -885.2)
(887.019 13036.2 -910.359)
(2209.55 14233.6 -903.653)
(3310.52 15041.7 -807.286)
(4320.97 11450.9 -508.418)
(4004.17 7291.46 -269.478)
(2985.4 4212.76 -181.623)
(2590.46 3101.12 -108.117)
(2831.27 2865.75 -101.121)
(3264.65 2899.67 -62.8953)
(3958.64 3279.27 -90.8663)
(5110.03 3999.15 -176.579)
(6592.3 4843.08 -214.389)
(8400.87 5793.74 -293.279)
(10121.1 6622.09 -393.239)
(12796 7578.63 -620.42)
(-7011.68 16988 -1491.63)
(-2655.94 14842.1 -1198.85)
(-886.581 14125.3 -783.954)
(236.166 12653.1 -899.144)
(1155.12 13062.2 -871.435)
(1457.42 14046.6 -868.698)
(2516.08 14844 -844.324)
(3453.66 15649.2 -787.453)
(4498.14 12820 -581.195)
(4548.25 9097.69 -410.578)
(3830.08 5910.91 -266.836)
(3168.5 4112.6 -111.597)
(3014.43 3412.82 -63.6622)
(3185.7 3195.33 -4.72243)
(3437.69 3164.9 -75.6764)
(3962.16 3397.14 -173.556)
(4951.42 4032.46 -201.933)
(6470.95 5045.44 -314.871)
(8062.98 6011.48 -333.272)
(10786.4 7238.8 -452.177)
(-5858.03 16801.7 -1431.35)
(-2306.31 14781.3 -1192.26)
(-656.348 14707.4 -805.037)
(544.839 13846.4 -933.473)
(1573.6 14487.7 -1006.41)
(2205.59 15130.6 -986.863)
(3113.63 15710.2 -821.599)
(3777.88 16575.6 -739.018)
(4737.99 14170.3 -585.133)
(5003.39 10885.5 -517.413)
(4641.01 7827.49 -341.153)
(4060.7 5635.89 -111.121)
(3555.59 4270.65 -68.2319)
(3253.84 3536.79 -70.0069)
(3361 3372.37 -185.97)
(3735.48 3495.84 -263.925)
(4386.35 3887.52 -266.474)
(5489.35 4652.3 -281.015)
(6800.65 5502.43 -158.517)
(9282.29 6876.96 -227.309)
(-5165.08 16648.5 -1456.36)
(-2124.39 14671 -1258)
(-575.937 15102.5 -905.18)
(708.288 14464.3 -994.799)
(1799.3 14992 -1128.41)
(2624.58 15861.2 -1147.43)
(3741.05 16698.5 -1009.54)
(4273.25 17619.1 -732.891)
(5193.06 15603.1 -582.114)
(5566.91 12794.2 -480.765)
(5462.16 9951.47 -327.57)
(5014.36 7479.39 -151.137)
(4376.26 5585.09 -123.541)
(3664.68 4241.08 -139.892)
(3590.8 3839.8 -249.212)
(3823.12 3818.63 -248.044)
(4324.5 4082.43 -204.975)
(5083.09 4576.97 -116.645)
(6082.69 5332.56 -2.87495)
(7999.78 6564.8 -148.151)
(-4539.6 16586.9 -1398.25)
(-1948.92 14610.1 -1270.09)
(-515.022 15303 -980.804)
(777.653 15002.2 -1042.38)
(1837.13 15414 -1198.31)
(2805.2 16195.6 -1222.75)
(3985.67 17288.5 -1128.45)
(4640.97 18596.6 -956.949)
(5612.9 17039.6 -651.508)
(6120.27 14649.5 -453.369)
(6201.95 12007.6 -290.619)
(5879.66 9399.18 -171.47)
(5268.51 7185.86 -139.742)
(4439.81 5413.4 -153.676)
(4118.16 4614.76 -236.823)
(4236.92 4449.3 -187.518)
(4504.34 4468.19 -102.513)
(5086.64 4791.94 22.7998)
(5779.59 5363.47 -2.41743)
(6891.19 6006.04 -247.789)
(-4088.07 16573.4 -1310.41)
(-1805.89 14567.8 -1211.46)
(-474.139 15398 -998.019)
(801.193 15420.2 -1015.45)
(1832.41 15694.5 -1187.93)
(2877.73 16453.3 -1242.56)
(4097.13 17535.4 -1165.61)
(4811.48 19063.8 -1072.02)
(5910.91 18427 -804.84)
(6607.61 16485 -525.546)
(6876.22 14059.6 -305.193)
(6709.09 11445.4 -193.307)
(6228.85 9075.67 -204.68)
(5513.01 7063.31 -253.898)
(5025.13 5884.9 -231.933)
(4838.08 5286.41 -73.7632)
(4968.89 5169.58 50.6141)
(5297.63 5255.14 48.283)
(5473.92 5337.55 -155.185)
(6125.77 5642.84 -370.112)
(-3729.42 16499.5 -1287.31)
(-1678.19 14474.5 -1205.29)
(-456.47 15375.7 -1076.43)
(781.334 15650.6 -1063)
(1767.96 15793.7 -1297.49)
(2797.49 16466.8 -1391.49)
(3995.78 17538.7 -1300.61)
(4862.96 19103.4 -1170.62)
(5972.76 19100 -998.479)
(6927.21 18062.3 -720.956)
(7412.1 15893.4 -444.145)
(7393.39 13277 -332.813)
(7052.34 10861.2 -303.207)
(6485.95 8739.2 -253.998)
(5935.35 7320.55 -76.6251)
(5680.56 6421.24 77.4533)
(5642.53 5996.46 51.8697)
(5474.4 5544.09 -130.858)
(5520.07 5487.81 -340.11)
(6173.53 5862.03 -354.686)
(-3264.28 16103.8 -1208.44)
(-1493.24 14092.8 -1150.68)
(-435.98 15081.9 -1088.58)
(715.128 15633.8 -1108.53)
(1612.58 15636.5 -1346.55)
(2531.8 16114.3 -1463.5)
(3574.91 16980.1 -1409.22)
(4594.59 18584.4 -1284.18)
(5688.33 19003.8 -1145.93)
(6718.49 18599.3 -963.541)
(7517.76 17428.8 -767.529)
(7898.82 15553.4 -657.365)
(7938.02 13545.6 -538.194)
(7668.02 11528 -366.796)
(7322.66 9929.98 -131.008)
(7004.06 8534.45 -53.9763)
(6425.63 7338.66 -182.556)
(5891.13 6357.39 -331.571)
(6066.16 6299.03 -342.149)
(7221.05 7172.16 -268.394)
(-23261.4 -23156.5 -2328.43)
(-20480.7 -27260.1 -2324.97)
(-18048 -29958.8 -2214.09)
(-14932.7 -32504.7 -2628.23)
(-10140.3 -34805.3 -2746.95)
(-3505.95 -35222.8 -2722.77)
(3362.68 -33777 -2690.8)
(10049.9 -30335.5 -2414.87)
(15206 -25249 -1979.82)
(17384.4 -19332 -1600.36)
(17752.1 -14463.6 -1363.79)
(17420.1 -10994.8 -1070.38)
(17042.6 -8734.17 -1080.64)
(16732.2 -7116.99 -973.399)
(16510.2 -5942.41 -948.575)
(16317.7 -5222.74 -967.983)
(16204.4 -4603.87 -941.911)
(16129.9 -4139.67 -892.403)
(16016.2 -3768.5 -879.967)
(15566.4 -3299.99 -835.306)
(-27353.6 -20322.9 -2328.79)
(-24119.2 -23998.3 -1980.72)
(-21588.5 -26698.5 -1845.58)
(-19050.1 -28717.9 -2102.81)
(-12766.7 -32388 -2529.1)
(-4950.01 -34437.6 -2644.4)
(3297.97 -33083.8 -2654.69)
(11452.5 -28765.6 -2294.38)
(16789.6 -20121.7 -1567.87)
(16778.5 -11898.3 -1061.99)
(15647.5 -7177.68 -865.455)
(15180.8 -4840.19 -635.508)
(14922.7 -3544.62 -743.32)
(14781.3 -2776.98 -741.448)
(14698 -2411.95 -766.833)
(14560.5 -2206.93 -821.661)
(14444.5 -2024.28 -844.293)
(14338.6 -1872.47 -817.099)
(14202.7 -1735.92 -820.682)
(13764.6 -1545.66 -795.036)
(-29913.6 -17895.6 -2210.85)
(-26597.4 -21491 -1873.28)
(-24403.2 -24534.1 -1720.82)
(-22327.7 -25487.7 -1541.67)
(-14432.1 -30559.6 -2259.11)
(-5906.78 -34248.4 -2646.12)
(3322.24 -33270.9 -2629.74)
(12948.3 -28187.2 -2203.24)
(17348.4 -15974.8 -1220.37)
(14007.5 -6756.84 -638.421)
(12316.1 -3582.26 -538.273)
(12790.1 -2370.31 -395.733)
(13291.1 -1548.6 -431.65)
(14004.3 -1030.85 -402.842)
(14572.1 -795.047 -459.03)
(14986.2 -693.569 -563.817)
(15186.7 -624.067 -644.98)
(15245.9 -571.437 -676.992)
(15187.4 -540.243 -746.524)
(14832.9 -514.581 -771.861)
(-32242.4 -14769.5 -2589.67)
(-28347.2 -18760.1 -2206.13)
(-25043.4 -22045.4 -1732.89)
(-21705.5 -21905.9 -2056.68)
(-17515.2 -27055.9 -2331.84)
(-9389.7 -33810.9 -3125.55)
(946.074 -35138.7 -3293.49)
(11524.3 -31139.7 -2727.68)
(17253.6 -15740.2 -1186.94)
(8835.9 -2022.8 -242.374)
(9635.72 -1264.16 -371.459)
(10441.9 -676.799 -389.224)
(11492.3 -57.441 -495.274)
(12635.9 233.252 -544.083)
(13716.8 441.737 -585.16)
(14288 575.298 -655.638)
(14768.2 630.197 -724.763)
(15114.6 654.547 -735.576)
(15282.9 628.38 -797.084)
(15183.9 556.372 -840.579)
(-34557 -10136 -2675.91)
(-32012.1 -12769.8 -2509.03)
(-29897 -14422.3 -2356.02)
(-25666.9 -17233.9 -2552.96)
(6658.17 -1456.09 -324.591)
(8452.9 -495.029 -488.1)
(9115.5 -244.68 -516.502)
(10099.1 32.8737 -557.879)
(11412 423.945 -652.993)
(12874 1067.55 -615.448)
(14486.5 1506.72 -714.408)
(15147.4 1734 -824.039)
(15535.8 1788.08 -901.888)
(15784.1 1768.17 -919.556)
(15806.8 1668.47 -1011.21)
(15483.7 1488.33 -1041.66)
(-35109.2 -3618.22 -2577.7)
(-34270.1 -5101.95 -2483.93)
(-33962.9 -6030.8 -2475.8)
(-33400.9 -9407.21 -2941.25)
(10995.4 205.077 -773.727)
(11813.2 550.236 -663.192)
(11879.5 538.688 -648.542)
(12214.7 630.46 -652.444)
(12917.4 835.555 -687.083)
(14112 1234.12 -662.917)
(15334.6 1949.83 -751.377)
(16285.4 2412.63 -926.946)
(16541.4 2598.73 -1005.08)
(16713 2696.15 -1023.96)
(16641.8 2642.31 -1100.39)
(16112.2 2386.75 -1123.29)
(-33456.1 3204.87 -2591.11)
(-32726.9 3064.19 -2539.29)
(-32919.8 3047.88 -2512.9)
(-34799.5 869.143 -3167.55)
(13337.4 1558.56 -852.628)
(14167.7 1907.16 -687.132)
(13974.6 1903.16 -642.326)
(13987.3 1937.49 -630.925)
(14177.7 2047.93 -649.879)
(14762.3 2299.94 -651.379)
(15792.5 2771.34 -611.417)
(16831.5 3430.77 -746.998)
(17563.3 3799 -935.14)
(17731.1 3901.38 -973.546)
(17717.5 3862.87 -1046.92)
(17074.3 3472.57 -1095.89)
(-29821.1 9743.6 -2346.4)
(-28250.5 11046.3 -2219.78)
(-27769.8 12489.3 -2156.9)
(-30868.9 11224.6 -2828.85)
(15148.5 2867.9 -845.721)
(13575.8 3288.54 -587.613)
(13983 3208.87 -583.222)
(14346.3 3165.97 -550.442)
(14776.1 3145.75 -565.023)
(15313.1 3249.61 -586.479)
(16150.9 3501.1 -609.336)
(17303.7 3968.78 -583.262)
(18425.5 4367.15 -720.445)
(19117.8 4588.01 -916.371)
(19154.1 4613.45 -1014.55)
(18697.3 4412.99 -1068.55)
(-24725.2 14784.4 -2030.89)
(-19692.6 16275.9 -1699.16)
(-15785.3 16812.4 -1481.74)
(-15476.9 16661.2 -1709.44)
(-1434.67 6499.88 -480.258)
(51.1042 10775.4 -741.657)
(1417.86 13375.8 -779.935)
(2748.52 15201.4 -751.597)
(2587.94 2459.31 -98.3331)
(4784.87 2590.56 -165.938)
(7152.29 3261.24 -237.994)
(9260.51 3785.95 -320.063)
(10759.5 4009.07 -391.518)
(12009.9 4173.13 -463.683)
(13293.2 4339.43 -482.478)
(14733.8 4723.79 -480.327)
(16227 5196.2 -513.613)
(17665.9 5542.88 -642.506)
(18701.6 5697.62 -859.725)
(18747.7 5466.23 -990.583)
(-18870.8 16876.2 -1716.47)
(-11560 16144.1 -1238.46)
(-6579.01 13332.2 -837.567)
(-2017 8227.6 -382.415)
(-539.876 8041.86 -500.592)
(473.642 11523 -663.363)
(1838.72 14082 -647.89)
(3258.63 13449.7 -498.915)
(2567.46 4830.49 -125.688)
(2123.44 2147.08 -141.832)
(2958.07 2126.38 -90.6754)
(4544.53 2760 -140.32)
(6438.66 3502.91 -226.727)
(8161.49 4036.13 -265.526)
(9750.72 4432.3 -351.168)
(11551.7 4897.43 -398.317)
(13414.8 5477.92 -409.854)
(15227.7 6005.38 -469.963)
(16946 6424.06 -630.482)
(17951.6 6382.03 -829.964)
(-14075.1 17207.1 -1505.33)
(-6902.2 14914.8 -1045.62)
(-3468.57 11458.3 -715.359)
(-1343.49 8953.75 -520.758)
(-307.765 8620.94 -545.08)
(445.049 11574 -667.735)
(1816.38 13845.7 -643.168)
(3150.03 13848.7 -528.385)
(3353.85 7381.69 -222.718)
(2137.85 3039.89 -80.4907)
(2033.82 2059.86 -107.614)
(2505.16 1997.98 -93.9766)
(3529.84 2468.94 -82.5128)
(5059.28 3234.68 -128.405)
(6732.52 3949.07 -247.78)
(8608.66 4643.47 -327.897)
(10543.8 5349.47 -334.474)
(12563.5 6046.3 -329.74)
(14427.5 6655.98 -407.064)
(16352.5 6987.63 -632.842)
(-10708.9 16912.6 -1222.59)
(-4698.96 14583.7 -821.894)
(-2372.02 12168.2 -588.095)
(-831.508 9779.59 -556.126)
(-48.8967 9576.22 -613.358)
(511.87 11885.7 -687.872)
(1847.94 13846.9 -654.715)
(3095.98 14235.8 -543.86)
(3849.43 9503.52 -308.327)
(2891.46 4795.84 -132.83)
(2003.55 2564.09 -102.44)
(2314.19 2337.18 -47.8723)
(2694.22 2275.54 5.92704)
(3490.05 2644.6 -43.7324)
(4742.97 3349.51 -122.272)
(6291.67 4136.3 -193.211)
(7999.3 4912.22 -221.672)
(9948.49 5734.47 -210.12)
(11752.9 6463.8 -280.486)
(14232.1 7172.73 -513.488)
(-8522.94 16584.8 -1219.34)
(-3461 14430.6 -904.243)
(-1579.43 12798 -625.002)
(-288.18 10873.3 -644.665)
(295.909 10870.2 -727.325)
(695.022 12578.5 -743.164)
(1950.37 14003.1 -694.387)
(3069.95 14693.2 -582.105)
(4044.65 10999.4 -400.555)
(3653.49 6777.93 -236.128)
(2605.39 3736.5 -101.616)
(2319.2 2772.82 -9.48148)
(2549.7 2561.83 -38.8385)
(2922.89 2557.06 -57.6272)
(3559.45 2883.26 -72.4548)
(4601.79 3540.84 -123.06)
(5986.16 4321.95 -141.73)
(7725.5 5220.49 -171.625)
(9408.18 6034.91 -242.399)
(12132.8 7057.67 -429.96)
(-6954.32 16314.7 -1096.6)
(-2711.63 14347.2 -873.159)
(-1042.88 13583.3 -574.875)
(74.1371 12136.2 -656.758)
(878.985 12371.1 -693.848)
(1069.64 13706.8 -748.591)
(2188.44 14543.8 -713.19)
(3158.38 15243.6 -610.437)
(4182.5 12262.8 -494.822)
(4174.04 8542.4 -302.812)
(3428.19 5385.62 -154.099)
(2816.13 3703.02 -51.639)
(2649.05 3035.34 -58.2434)
(2806.09 2816.66 -3.30604)
(3061.38 2794.13 -6.46521)
(3545.47 3027.84 -56.8539)
(4431.91 3555.91 -86.6056)
(5850.68 4456.77 -187.262)
(7395.28 5394.63 -230.014)
(10094 6681.26 -334.882)
(-5810.94 16126.7 -1052.38)
(-2353.07 14307.3 -869.559)
(-798.041 14192.5 -598.637)
(342.526 13408.7 -689.501)
(1309.37 14030.3 -787.759)
(1783.57 14804.3 -830.49)
(2616.99 15471.2 -695.528)
(3395.91 16055 -634.088)
(4335.96 13535.6 -517.607)
(4560.69 10185.9 -402.984)
(4166.31 7156.64 -266.557)
(3597 5088.54 -106.039)
(3096 3799.02 -67.0602)
(2874.97 3143.43 -11.9924)
(2973.14 2972.55 -64.0777)
(3280.92 3042.73 -130.98)
(3833.64 3336.69 -155.491)
(4850.33 4041.94 -197.591)
(6107.72 4885.74 -122.41)
(8579.91 6270.46 -168.141)
(-5116.18 15967 -1053.54)
(-2156.32 14210.1 -901.793)
(-692.812 14640.4 -673.192)
(509.44 14053.3 -749.578)
(1562.75 14769.8 -893.042)
(2247.28 15755.1 -989.485)
(3256.17 16430.8 -824.691)
(3824.76 17153.3 -611.97)
(4699.45 14929.3 -509.533)
(5017.75 11992.9 -415.972)
(4879.21 9124.03 -322.325)
(4429.42 6767.27 -174.558)
(3825.37 4973.38 -108.118)
(3222.01 3752.12 -52.4674)
(3110.14 3344.7 -127.214)
(3313.98 3308.92 -148.476)
(3752.23 3510.82 -135.099)
(4486.73 3999.57 -84.0452)
(5437.42 4707.98 18.4462)
(7386.9 5966.45 -67.4936)
(-4514.78 15887.6 -1014.39)
(-1977.93 14131.8 -907.857)
(-616.508 14881.3 -726.263)
(590.634 14560.9 -796.041)
(1643.77 15185.4 -951.542)
(2456.36 16054.9 -1052.46)
(3594.78 17194 -970.239)
(4200.19 18237.9 -756.414)
(5139.24 16357.3 -523.527)
(5573.06 13821.2 -395.486)
(5587.61 11107.1 -312.2)
(5227.39 8558.83 -199.075)
(4655.71 6461.8 -111.008)
(3860.03 4779.38 -53.9978)