/*--------------------------------*- C++ -*----------------------------------*\
  =========                 |
  \\      /  F ield         | OpenFOAM: The Open Source CFD Toolbox
   \\    /   O peration     | Website:  https://openfoam.org
    \\  /    A nd           | Version:  9
     \\/     M anipulation  |
\*---------------------------------------------------------------------------*/
FoamFile
{
    format      ascii;
    class       volScalarField;
    location    "0.0035";
    object      T;
}
// * * * * * * * * * * * * * * * * * * * * * * * * * * * * * * * * * * * * * //

dimensions      [0 0 0 1 0 0 0];

internalField   nonuniform List<scalar> 
9720
(
1360.13
1378.74
1389.03
1391.78
1390.83
1385.94
1375.74
1355.39
1327.64
1303.78
1285.52
1271.52
1258.77
1248.16
1238.85
1229.58
1220.78
1211.76
1202.38
1188.77
1378.2
1396.16
1406.36
1400.05
1396.05
1394.17
1384.77
1356.86
1308.7
1266.83
1241.29
1229.94
1221.58
1213.88
1206.05
1197.25
1188.37
1178.83
1169.06
1154.93
1387.98
1405.49
1419.15
1397.82
1387.49
1396.81
1392.19
1359.62
1294.06
1241.48
1217.71
1217.37
1218.87
1218.5
1214.72
1207.6
1198.64
1188.47
1178.03
1163.09
1390.93
1399.49
1398.05
1376
1359.63
1400.13
1409.39
1390.77
1297.09
1157.49
1163.72
1178.84
1194.32
1204.31
1205.06
1203.12
1198.43
1191.36
1182.93
1169.62
1390.11
1394.98
1385.6
1358.84
1119.9
1124.44
1136.6
1155.97
1180.87
1204.31
1211.76
1210.26
1205.85
1198.62
1189.65
1175.28
1385.05
1392.64
1394.55
1397.09
1136.83
1141.77
1145.55
1153.89
1171.18
1193.24
1207.13
1207.51
1205.36
1200.05
1192.27
1178.16
1374.13
1382.12
1388.63
1406.45
1151.44
1153.72
1154.04
1156.5
1163.31
1176.99
1193.35
1203.91
1204.46
1202.58
1197.04
1183.05
1353.17
1353.27
1354.59
1384.99
1162.13
1141.31
1145.31
1149.98
1155.89
1164.86
1179.19
1193.99
1202.24
1202.67
1201.01
1191.35
1325.01
1304.64
1288.86
1286.71
1118.08
1139.28
1152.35
1162.77
1059.48
1074.44
1093.07
1106.58
1117.53
1130.16
1145.72
1163.39
1179.25
1190.15
1192.7
1188.52
1301.04
1263.26
1238.06
1159
1128.13
1143.37
1155.57
1144.84
1080.05
1050.24
1055.82
1070.32
1085.05
1098.37
1113.65
1132.18
1151
1167.23
1179.04
1180.15
1282.68
1238.25
1215.71
1165.08
1140.26
1147.26
1155.94
1148.14
1100.71
1059.74
1041.04
1046.44
1061.32
1076.42
1090.62
1107.53
1125.73
1143.1
1158.34
1168.11
1268.76
1227.04
1215.19
1179.33
1158.76
1155.77
1158.59
1152.64
1113.38
1076.9
1049.73
1044.24
1049.55
1062.17
1076.39
1091.04
1106.52
1122.49
1136.99
1152.78
1256.16
1218.78
1216.74
1193.73
1181.89
1172.76
1165.58
1158.62
1123.48
1091.63
1066.99
1052.36
1048.56
1052.56
1062.54
1076.37
1091.67
1107.04
1119.64
1137.35
1245.9
1211.31
1216.34
1203.06
1203.69
1193.34
1178.85
1167.77
1135.53
1104.8
1082.55
1067
1055.11
1051.33
1052.92
1062.77
1079.22
1095.11
1104.78
1121.71
1236.89
1203.76
1212.63
1203.66
1210.72
1206.57
1194.28
1181.77
1150.53
1120.14
1097.16
1082.11
1067.77
1054.73
1054.25
1059.51
1069.7
1081.59
1090.35
1108.38
1227.87
1195.23
1205.65
1201.72
1209.25
1207.18
1204.24
1195.65
1167.46
1138.22
1114.02
1097.11
1082.61
1067.85
1061.53
1063.2
1066.82
1072.71
1082.7
1098.28
1219.31
1186.61
1196.9
1197.15
1204.84
1205.19
1204.77
1203.34
1182.74
1156.44
1131.85
1112.46
1097.85
1085.65
1074.55
1068.36
1067.75
1072.68
1079.2
1084.12
1210.5
1177.28
1186.96
1190.33
1197.63
1200.12
1202.87
1203.67
1192.98
1172.2
1148.92
1128.26
1113.06
1101.6
1087.6
1076.44
1074.9
1075.99
1069.89
1069.83
1201.27
1167.7
1176.77
1182.14
1188.77
1192.56
1197.4
1201.89
1194.92
1183.03
1163.85
1142.92
1126
1111.77
1097.16
1088.32
1084.07
1073.72
1063.13
1070.75
1187.84
1153.82
1162.14
1169.13
1174.69
1178.61
1183.64
1191.9
1190.38
1183.44
1172.48
1158.06
1143.6
1128.77
1115.39
1105.14
1091.64
1074.9
1074.08
1136.53
1348.91
1368.12
1378.33
1379.52
1376.91
1372.01
1361.9
1341.61
1313.36
1289.07
1270.76
1256.96
1244.13
1233.71
1224.54
1215.05
1206.15
1197.17
1187.7
1173.64
1367.66
1386.35
1397.07
1386.15
1380.87
1381.09
1372.39
1344.42
1296.14
1254.23
1227.88
1216.79
1208.66
1201.16
1193.5
1184.54
1175.49
1165.94
1156.09
1141.49
1377.69
1396.27
1408.12
1381.05
1372.49
1385.6
1381.97
1349.08
1284.01
1231.06
1205.4
1204.3
1206.12
1206.29
1203.09
1196.26
1187.58
1177.71
1167.39
1152.09
1379.55
1386.72
1381.48
1357.95
1352.63
1392.35
1400.99
1381.06
1290.58
1151.27
1154.5
1166.43
1181.25
1191.52
1193.09
1191.42
1187.36
1181.05
1172.97
1159.33
1377.24
1380.85
1369.84
1344.91
1113.26
1120.35
1130.2
1145.72
1167.33
1189.69
1200.75
1200.06
1196.55
1190.03
1181.11
1165.81
1371.6
1379.99
1383.47
1389.28
1130.47
1136.05
1138.76
1144.87
1158.13
1178.77
1194.96
1197.57
1195.97
1191.4
1183.76
1168.89
1360.23
1369.89
1379.16
1398.57
1146.09
1146.95
1144.86
1145.67
1149.87
1161.01
1177.19
1189.77
1193.45
1192.22
1187.56
1173.91
1338.92
1340.59
1344.75
1376.8
1154.2
1132.06
1134.28
1137
1141.3
1148.55
1161.1
1176.12
1187.16
1190.44
1189.24
1180.83
1309.88
1291.06
1278.04
1284.49
1112.22
1132.95
1148.96
1156.73
1071.62
1070.32
1082.1
1092.65
1101.73
1112.23
1125.97
1143.09
1159.99
1173.21
1179.13
1176.21
1285.42
1249.05
1225.32
1148.7
1119.84
1137.56
1150.02
1134.96
1074.06
1047.94
1049.86
1058.72
1069.71
1079.84
1092.68
1110.59
1130.27
1147.98
1162.35
1166.14
1267.21
1222.89
1199.46
1151.49
1129.6
1139.99
1148.06
1137.54
1089.55
1053.31
1031.74
1034.64
1045.16
1058.01
1071.52
1087.96
1105.98
1123.58
1139.49
1152.06
1253.66
1212.4
1199.76
1162.93
1145.32
1146.16
1148.83
1140.73
1100.66
1066.36
1038.29
1031.08
1034.85
1047.4
1061.18
1074.2
1088.32
1103.46
1117.43
1135.4
1241.09
1204.74
1202.25
1177.47
1166.79
1159.76
1153.11
1145.49
1109.51
1078.73
1052.94
1037.89
1037.12
1042.36
1050.59
1061.58
1074.67
1088.57
1100.68
1120.4
1231.04
1197.82
1203.1
1188.78
1189.18
1179.85
1164.33
1153.11
1119.73
1089.2
1067.17
1053.8
1045.53
1038.98
1038.22
1044.73
1059.66
1076.5
1087.99
1107.15
1222.24
1190.73
1200.63
1191.95
1200.48
1195.68
1180.12
1165.73
1133.1
1102.19
1081.23
1069.25
1057.1
1041.57
1036.9
1041.24
1050.98
1065.28
1076.22
1095.4
1213.09
1182.23
1194.41
1190.55
1199.75
1198.37
1192.46
1180.3
1149.56
1119.64
1097.72
1083.37
1070.35
1052.68
1043.54
1045.87
1052.16
1060.39
1070.03
1085.3
1204.53
1173.52
1186.04
1186.9
1196.19
1196.85
1195.54
1190.83
1165.78
1138.38
1115.35
1097.94
1084.27
1069.65
1057.77
1054.4
1055.37
1060.51
1066.68
1071.7
1195.84
1164.26
1176.47
1180.92
1189.61
1192.44
1194.3
1193.22
1178.4
1155.41
1132.45
1112.97
1098.21
1086.26
1074.09
1065.64
1063.32
1064
1058.13
1056.28
1186.58
1154.64
1166.36
1172.97
1180.66
1184.81
1189.52
1191.91
1183.2
1168.81
1147.94
1126.89
1110.42
1097.76
1085.68
1077.74
1072.95
1062.91
1050.09
1055.95
1172.74
1140.28
1151.22
1159.31
1165.46
1169.84
1175.68
1183.04
1179.71
1171.05
1158.69
1143.33
1129.13
1116.37
1104.7
1094.34
1081.02
1063.34
1059.91
1110.91
1345.53
1365.06
1374.77
1374.59
1369.69
1364.93
1354.81
1334.33
1305.94
1281.75
1263.99
1250.82
1238.69
1228.61
1219.74
1210.44
1201.45
1192.24
1182.53
1167.75
1364.84
1383.75
1393.83
1379.07
1371.34
1373.27
1364.94
1336.54
1288.58
1247.43
1221.37
1211.61
1204.8
1198.08
1190.75
1181.92
1172.7
1162.93
1152.83
1137.45
1374.52
1393.49
1401.5
1368.88
1362.04
1377.8
1374.69
1340.93
1276.69
1226.02
1199.87
1200.16
1201.73
1202.7
1200.15
1193.98
1185.73
1176.11
1165.79
1149.78
1374.5
1378.74
1366.79
1339.64
1344.02
1385.04
1393.68
1372.88
1280.61
1148.13
1151.65
1164.09
1179.84
1190.22
1191.09
1189.31
1185.14
1178.77
1170.59
1156.08
1369.93
1371.05
1358.85
1334.67
1099.93
1115.2
1125.68
1140.28
1160.56
1182.42
1197.71
1198.07
1195.56
1189.5
1180.52
1164.02
1364.76
1372.51
1376.13
1383.53
1125.81
1129.96
1132.33
1137.91
1149.3
1169.68
1190.11
1196.56
1195.17
1190.94
1183.44
1167.6
1353.56
1363.36
1373.13
1392.15
1139.39
1140.25
1138.1
1138.7
1142.14
1151.52
1168.46
1183.99
1190.54
1189.68
1185.8
1172.51
1332.11
1333.73
1338.57
1371.01
1146.71
1123.69
1126.81
1129.5
1133.41
1139.57
1150.22
1165.64
1179.49
1185.66
1184.9
1177.4
1302.81
1284.46
1272.03
1275.21
1095.43
1123.83
1141.17
1148.35
1076.63
1066.65
1076.29
1086.08
1094.31
1102.77
1114.32
1130.2
1147.67
1162.55
1171.94
1170.4
1278.27
1242.39
1219.17
1137.68
1107.91
1128.43
1141.11
1123.89
1066.59
1048.75
1049.13
1055.51
1064.34
1072.34
1081.93
1097.05
1116.04
1134.36
1150.8
1158.35
1260.43
1215.6
1190.89
1140.78
1118.08
1130.54
1138.75
1127.11
1078.76
1051.08
1029.47
1031.16
1040.86
1052.69
1062.96
1075.7
1091.82
1109.33
1126.33
1142.3
1247.32
1206.23
1192.65
1153.18
1133.7
1136.24
1139.25
1130.11
1089.64
1060.06
1033.69
1027.9
1032.1
1043.91
1055.04
1064.44
1075.9
1090.33
1104.7
1124.75
1235.34
1200.02
1196.15
1170.34
1155
1148.04
1142.63
1134.5
1098.24
1069.68
1046.13
1034.2
1033.77
1039
1046.53
1054.77
1065.01
1077.45
1089.05
1109.76
1225.45
1193.91
1198.7
1184.33
1178.36
1168.56
1152.16
1141.14
1107.06
1078.07
1058.73
1048.38
1041.39
1035.49
1034.9
1039.51
1050.75
1065.54
1077.2
1097.3
1216.87
1187.28
1197.04
1189.13
1195.83
1188.57
1168.87
1152.05
1118.89
1088.39
1069.76
1060.97
1051.09
1038.06
1027.67
1029.76
1037.93
1052.8
1064.74
1085.48
1207.89
1179.06
1191.88
1187.93
1196.87
1195.33
1184.08
1167.5
1134.59
1103.93
1083.54
1072.02
1061.22
1045.61
1031.7
1032.63
1038.38
1047.36
1057.52
1075.19
1199.27
1170.3
1184.17
1184.57
1194.65
1194.21
1190.76
1181.26
1151.71
1122.66
1100.16
1084.49
1072.73
1058.69
1043.77
1040.22
1041.65
1047.19
1054.89
1063.13
1190.39
1160.78
1174.76
1178.83
1189.01
1190.41
1190
1187.06
1166.3
1140.45
1117.28
1098.8
1085.71
1074.02
1060.98
1052.43
1049.51
1051.96
1050.04
1045.5
1180.92
1150.88
1164.53
1170.79
1180.12
1183.29
1186.27
1186.28
1175.06
1156.33
1133.63
1112.77
1097.43
1085.77
1073.82
1065.35
1060.84
1053.59
1037.18
1038.89
1166.44
1135.79
1148.59
1156.14
1163.63
1167.91
1173.41
1178.77
1173.16
1162.61
1148.12
1131.64
1117.33
1105.35
1094.2
1083.97
1071.47
1052.91
1041.86
1074.46
1341.56
1361.46
1371.05
1369.62
1363.27
1358.81
1348.64
1327.53
1298.82
1274.61
1257.15
1244.57
1232.88
1223.24
1214.7
1205.67
1196.67
1187.3
1177.46
1162.37
1361.18
1380.74
1390.4
1373.1
1363.85
1367.3
1359.33
1330.09
1281.43
1240.37
1213.54
1205.37
1200.05
1194.37
1187.46
1178.79
1169.47
1159.53
1149.26
1133.52
1370.76
1390.38
1395.7
1359.87
1354.52
1372.43
1369.74
1334.94
1269.08
1218.57
1190.16
1192.83
1197.24
1198.96
1196.83
1191.12
1183.04
1173.42
1163.04
1146.67
1368.95
1372
1356.58
1328.74
1334.67
1379.36
1387.46
1365.46
1269.96
1136.85
1140.5
1154.29
1174.98
1189.82
1189.91
1187.58
1182.59
1175.61
1167.15
1152.27
1362.61
1362.55
1351.56
1331.73
1097.76
1105.42
1116.47
1131.23
1151.64
1174.46
1193.6
1195.79
1193.82
1188.33
1179.49
1162.47
1358.05
1365.94
1370.3
1377.78
1119.7
1122.85
1125.26
1130.68
1140.39
1158.84
1182.91
1193.97
1193.09
1189.28
1182.2
1166.29
1347.37
1357.64
1367.84
1385.86
1133.65
1133.45
1130.94
1131.22
1133.79
1141.01
1156.59
1175.22
1185.09
1184.92
1181.9
1169.78
1326.16
1328.31
1333.26
1363.84
1140.68
1114.33
1117.6
1120.41
1124.17
1129.74
1138.64
1153
1169.38
1178.49
1178.58
1172.46
1297.05
1279.56
1267.63
1270.55
1090.31
1115.87
1133.11
1138.94
1071.14
1059.63
1067.93
1076.92
1084.92
1092.56
1102.63
1116.91
1134.19
1150.35
1162.82
1162.94
1272.5
1237.98
1215.92
1134.51
1101.86
1121.58
1132.51
1113.01
1057.16
1045.75
1042.73
1047.8
1055.6
1063.31
1071.58
1084.2
1101.87
1120.72
1138.44
1149.41
1254.55
1210.57
1186.44
1136.31
1112.25
1123.67
1129.85
1116.85
1068.13
1045.98
1022.44
1022.95
1031.85
1044.24
1053.24
1063.72
1078.61
1096.4
1113.83
1132.11
1241.5
1200.88
1187.41
1147.45
1126.67
1128.84
1130.07
1119.73
1078.84
1052.38
1025.68
1018.17
1023.55
1035.86
1046.03
1054.03
1064.17
1078.08
1092.39
1113.6
1229.7
1194.82
1189.96
1165.17
1146.17
1138.53
1132.61
1123.51
1087.37
1060.31
1036.07
1024.66
1024.95
1030.46
1038.61
1044.75
1053
1064.93
1076.49
1097.9
1219.74
1189
1192.62
1179.94
1168.55
1156.92
1140.09
1129.25
1095.37
1067.32
1047.46
1038.13
1031.93
1027.26
1027.65
1030.98
1039.7
1052.43
1063.76
1085.07
1211.1
1182.32
1191.2
1183.3
1188.11
1179.64
1155.74
1138.52
1105.81
1075.47
1056.45
1049.11
1041.27
1029.93
1015.51
1015.7
1022.48
1037.31
1050.83
1073.52
1202.19
1174.11
1186.4
1181.99
1191.36
1190.06
1173.5
1153.25
1120.13
1088.6
1068
1058.29
1049.04
1035.08
1017.03
1016.3
1020.69
1031.2
1043.14
1062.86
1193.47
1165.3
1179.05
1178.42
1189.73
1189.33
1183.07
1169.42
1137.1
1106.41
1083.82
1069.56
1058.43
1044.96
1026.67
1021.9
1023.79
1030.19
1038.77
1051.06
1184.42
1155.77
1169.9
1172.53
1184.75
1185.95
1182.98
1177.99
1152.82
1124.85
1101.66
1083.85
1070.77
1058.39
1043.53
1034.97
1031.92
1034.32
1035.22
1033.41
1174.91
1145.89
1159.86
1164.66
1176.3
1179.38
1180.22
1178
1164.59
1142.39
1118.94
1098
1082.36
1070.13
1057.87
1049.26
1043.34
1037.97
1020.85
1015.99
1160.26
1130.69
1143.92
1150.28
1159.71
1164.29
1168.59
1171.91
1164.36
1152.42
1136.28
1118.35
1103.2
1091.18
1080.49
1070.11
1057.73
1038.94
1018.66
1033.65
1339.13
1359.14
1368.83
1366.7
1360.07
1355.8
1345.45
1323.9
1294.62
1270.27
1252.59
1240.03
1228.7
1219.26
1210.95
1202.21
1193.39
1184.06
1174.31
1159.28
1358.62
1378.12
1387.44
1369.46
1360.01
1364.25
1356.42
1326.59
1276.76
1235.31
1207.5
1199.35
1194.91
1190.15
1183.85
1175.69
1166.65
1156.84
1146.68
1131.06
1368.05
1387.18
1390.69
1354.23
1351.53
1369.76
1367.28
1331.82
1263.91
1212.47
1182.45
1185.24
1190.82
1193.88
1192.55
1187.89
1180.44
1171.05
1160.83
1144.59
1365.5
1367.66
1350.2
1320.62
1331.08
1376.35
1383.93
1361.59
1264.97
1129.42
1131.84
1145.02
1167.48
1186.87
1187.7
1185.42
1180.2
1172.87
1164.42
1149.8
1358.31
1357
1345.85
1325.68
1085.63
1097.53
1108.09
1122.9
1143.38
1167.25
1188.26
1192.73
1191.18
1186.52
1178.29
1161.53
1354.12
1361.65
1366.14
1372.71
1110.41
1117.85
1120.66
1126.05
1134.89
1151.34
1175.98
1190.57
1190.43
1187.41
1180.85
1165.39
1343.62
1353.91
1364.49
1381.2
1126.12
1127.73
1125.76
1125.86
1127.91
1133.96
1147.9
1167.49
1180.12
1180.76
1178.62
1167.72
1322.52
1324.61
1329.77
1359.33
1132.51
1106.47
1110.58
1113.17
1116.46
1121.71
1130.15
1143.99
1161.58
1172.92
1174.06
1169.1
1293.66
1276.03
1263.79
1264.9
1085.37
1110.29
1125.99
1130.59
1064.48
1053.97
1060.52
1069.05
1077.11
1084.67
1094.54
1108.4
1125.72
1142.77
1157.14
1159.06
1269.47
1235.25
1213.41
1130.66
1097.05
1116.86
1127.21
1106.34
1053.57
1039.94
1035.4
1040.2
1047.76
1055.67
1063.94
1075.76
1093.02
1112.59
1131.55
1145
1251.61
1207.79
1183.67
1133.2
1107.87
1119.66
1125.23
1110.57
1062.91
1040.08
1013.87
1014.05
1022.72
1035.69
1045.48
1055.55
1070.07
1088.59
1107.09
1127.5
1238.56
1198.24
1184.95
1145.46
1122.66
1125.09
1125.45
1113.52
1072.61
1045.49
1016.91
1008.22
1013.9
1027.75
1038.4
1046.1
1056.23
1070.74
1085.88
1108.69
1226.9
1192.52
1187.63
1165.11
1142.47
1134.2
1127.77
1117.18
1080.59
1052.57
1026.92
1014.82
1015.77
1021.8
1030.77
1037.29
1045.13
1057.23
1069.65
1092.44
1216.95
1186.96
1189.86
1181.11
1164.64
1151.14
1134.31
1122.66
1088.23
1059.75
1038.76
1029.32
1022.62
1018.4
1021
1024.84
1032.17
1044.53
1056.33
1078.72
1208.21
1180.18
1188.44
1181.99
1184.44
1174.94
1148.75
1131.37
1098.32
1067.85
1047.93
1040.09
1032.26
1021.91
1007.35
1006.43
1013.08
1028.28
1042.68
1066.66
1199.29
1171.84
1183.71
1180.06
1188.65
1187.67
1167.58
1145.46
1112.15
1080.09
1058.67
1048.52
1039.3
1026.07
1006.75
1005.14
1008.7
1020.22
1033.74
1055.37
1190.48
1162.85
1176.39
1175.62
1187.15
1187.23
1178.93
1162.5
1128.96
1097.27
1073.89
1059.32
1047.76
1034.15
1014.69
1009.34
1011.26
1018.21
1027.67
1042.76
1181.27
1153.22
1167.24
1169.01
1182.53
1184.14
1179.14
1172.73
1145.27
1116.15
1092.21
1074.03
1060.38
1047.61
1031.75
1022.64
1019.38
1021.82
1023.68
1024.85
1171.71
1143.3
1157.27
1161.11
1174.42
1177.81
1176.79
1173.34
1158.64
1134.51
1110.34
1089
1072.83
1059.98
1047.16
1037.86
1030.85
1025.46
1010.08
1001.2
1157.02
1128.09
1141.44
1147.08
1158.03
1162.79
1165.82
1168.1
1159.55
1146.79
1129.88
1111.25
1095.24
1082.33
1071.31
1060.38
1047.31
1028.53
1003.19
1010.43
1339.04
1359.1
1368.88
1366.64
1359.84
1355.56
1345.28
1323.8
1294.52
1270.03
1252.21
1239.58
1228.35
1218.93
1210.62
1201.91
1193.15
1183.88
1174.17
1159.18
1358.47
1377.98
1387.46
1369.21
1359.7
1364.1
1356.3
1326.48
1276.81
1235.31
1207.22
1198.76
1194.2
1189.48
1183.26
1175.2
1166.26
1156.54
1146.45
1130.89
1367.87
1386.83
1390.28
1353.52
1352.01
1369.81
1367.2
1331.58
1264.28
1213.17
1182.61
1185
1189.74
1192.86
1191.69
1187.27
1180.02
1170.78
1160.64
1144.47
1365.55
1367.83
1350.26
1318.2
1333.04
1375.86
1382.89
1360.41
1264.24
1130.61
1132.91
1145.54
1167.18
1185.98
1186.91
1184.72
1179.68
1172.55
1164.25
1149.74
1358.45
1357.1
1345.17
1320.2
1081.31
1097.82
1108.44
1123.17
1143.32
1166.59
1187.28
1192.09
1190.64
1186.13
1178.04
1161.35
1354.23
1361.64
1365.93
1371.58
1109.6
1118.78
1121.08
1126.11
1134.66
1150.79
1175.17
1190
1189.96
1187.12
1180.7
1165.36
1343.6
1353.75
1364.26
1379.94
1124.46
1128.05
1125.79
1125.84
1127.8
1133.7
1147.45
1166.82
1179.66
1180.48
1178.44
1167.74
1322.44
1324.4
1329.47
1357.98
1128.85
1106.67
1110.75
1113.31
1116.48
1121.61
1129.95
1143.67
1161.17
1172.66
1174
1169.12
1293.63
1275.97
1263.65
1263.93
1079.84
1107.6
1123.29
1127.67
1068.5
1054.32
1060.53
1068.79
1076.78
1084.45
1094.41
1108.31
1125.57
1142.65
1157.13
1159.19
1269.49
1235.24
1213.28
1128.84
1096.01
1116.45
1126.7
1105.19
1054.16
1038.73
1035.48
1040.23
1047.47
1055.19
1063.51
1075.49
1092.87
1112.46
1131.52
1145.16
1251.81
1207.83
1183.55
1132.41
1107.08
1118.92
1124.64
1109.78
1062.09
1038.61
1013.87
1014.47
1022.73
1035.07
1044.7
1054.97
1069.74
1088.36
1106.97
1127.62
1238.95
1198.93
1185.56
1146.22
1122.4
1124.21
1124.79
1112.81
1071.32
1044
1016.21
1008.35
1014.05
1027.36
1037.88
1045.63
1055.8
1070.43
1085.7
1108.72
1227.39
1193.63
1189.18
1167.17
1143.12
1133.45
1127.03
1116.43
1079.31
1051.27
1025.71
1014.57
1015.66
1021.8
1030.76
1037.02
1044.71
1056.9
1069.41
1092.32
1217.59
1188.21
1191.41
1183.33
1165.97
1150.92
1133.61
1121.83
1086.96
1058.46
1037.61
1028.41
1022.35
1018.63
1021.13
1024.55
1031.69
1044.19
1056.01
1078.48
1208.92
1181.4
1189.84
1183.74
1185.84
1175.53
1148.38
1130.53
1097.01
1066.48
1046.97
1039.52
1031.95
1021.77
1007.16
1006.04
1012.59
1027.92
1042.44
1066.44
1199.96
1172.94
1184.92
1181.57
1189.77
1188.64
1167.76
1144.74
1110.91
1078.76
1057.88
1048.22
1039.09
1025.88
1006.47
1004.82
1008.44
1020.04
1033.62
1055.13
1191.05
1163.78
1177.38
1176.76
1188.2
1188.19
1179.4
1162.05
1127.98
1096.24
1073.32
1059.09
1047.6
1033.84
1014.07
1009
1010.91
1018.09
1027.63
1042.51
1181.72
1153.95
1168.01
1169.82
1183.42
1185.01
1179.63
1172.53
1144.62
1115.52
1091.86
1073.88
1060.25
1047.09
1030.86
1022.11
1019.14
1021.72
1023.57
1024.61
1172.04
1143.86
1157.86
1161.68
1175.15
1178.53
1177.28
1173.29
1158.24
1134.08
1110.09
1088.91
1072.75
1059.53
1046.38
1037.27
1030.52
1025.29
1009.95
1000.9
1157.21
1128.47
1141.85
1147.41
1158.55
1163.26
1166.17
1168.07
1159.3
1146.44
1129.63
1111.16
1095.24
1082.27
1071.15
1060.17
1047.21
1028.5
1002.98
1010.1
1341.34
1361.38
1371.22
1369.56
1363.1
1358.41
1348.15
1327.02
1298.1
1273.87
1256.31
1243.75
1232.32
1222.74
1214.26
1205.32
1196.44
1187.17
1177.4
1162.33
1360.74
1380.27
1390.28
1372.64
1363.65
1367.07
1358.97
1329.49
1280.2
1239
1211.97
1203.71
1198.48
1192.98
1186.28
1177.87
1168.78
1159.05
1148.92
1133.28
1370.08
1389.28
1394.56
1358.78
1355.89
1372.61
1369.59
1334.26
1267.31
1216.73
1188.38
1190.98
1194.84
1196.98
1195.26
1190.06
1182.33
1172.95
1162.73
1146.48
1368.76
1371.83
1355.92
1322.07
1336.14
1378.31
1385.18
1362.8
1265.82
1135.44
1139.25
1152.92
1173.36
1188.58
1188.8
1186.5
1181.7
1175
1166.84
1152.2
1362.53
1362.06
1349.36
1322.24
1086.17
1104.83
1115.99
1130.85
1151.08
1173.58
1192.37
1194.73
1192.88
1187.63
1179.03
1162.16
1357.99
1365.51
1369.38
1374.36
1114.36
1125.27
1127.38
1132.32
1141.26
1158.66
1182.16
1193.2
1192.38
1188.72
1181.82
1166.13
1347.1
1357.1
1367.27
1382.67
1129.28
1133.91
1131.34
1131.59
1134.03
1140.97
1156.12
1174.44
1184.61
1184.55
1181.69
1169.79
1325.85
1327.54
1332.23
1360.32
1133.89
1113.62
1117.08
1119.85
1123.69
1129.41
1138.4
1152.83
1169.41
1178.54
1178.65
1172.6
1296.86
1278.83
1266.31
1265.74
1084.01
1110.6
1127.01
1132.17
1071.48
1059.5
1067.15
1076.17
1084.55
1092.71
1103.18
1117.56
1134.78
1150.9
1163.37
1163.51
1272.62
1237.81
1215.62
1134.32
1101.41
1122.25
1133.09
1112.88
1059.73
1043.42
1043.01
1048.1
1055.79
1063.45
1071.89
1084.84
1102.66
1121.44
1139.17
1150.19
1255.07
1210.85
1186.74
1137.4
1112.65
1124.71
1130.5
1116.74
1067.91
1043.5
1021.51
1022.65
1031.95
1044.22
1053.35
1064.22
1079.4
1097.2
1114.57
1132.87
1242.4
1202.29
1189.02
1150.52
1127.84
1130.03
1130.71
1119.86
1077.64
1049.59
1023.3
1018.79
1024.45
1036.8
1046.83
1054.75
1064.91
1078.82
1093.02
1114.18
1230.83
1196.78
1192.63
1170.36
1148.49
1139.64
1133.24
1123.82
1086.28
1058.07
1033.57
1024.78
1025.96
1031.91
1039.79
1045.64
1053.8
1065.65
1077.06
1098.3
1221.09
1191.09
1194.93
1185.26
1171.54
1158.11
1140.56
1129.51
1094.49
1065.92
1046.32
1037.92
1032.57
1028.35
1028.54
1031.68
1040.33
1052.87
1064.07
1085.22
1212.52
1184.27
1193.18
1186.03
1190.76
1181.72
1156.27
1138.63
1104.95
1074.42
1055.94
1048.9
1041.26
1029.95
1015.04
1015.3
1022.31
1037.26
1050.88
1073.56
1203.53
1175.8
1187.99
1184.11
1193.08
1191.83
1174.57
1153.32
1119.26
1087.52
1067.4
1057.84
1048.51
1034.14
1016.14
1015.61
1020.01
1030.69
1042.63
1062.59
1194.6
1166.65
1180.24
1179.67
1191.18
1190.81
1183.91
1169.81
1136.4
1105.41
1083.02
1068.86
1057.67
1043.95
1025.34
1020.95
1022.96
1029.49
1038.09
1050.6
1185.32
1156.85
1170.77
1173.05
1185.76
1187.03
1183.6
1178.13
1152.31
1124.14
1100.94
1083.24
1070.1
1057.37
1041.93
1033.8
1031
1033.54
1034.49
1032.88
1175.57
1146.7
1160.46
1164.8
1176.94
1180.07
1180.55
1178.05
1164.15
1141.83
1118.49
1097.71
1081.87
1069.06
1056.37
1047.93
1042.09
1036.91
1020.05
1015.24
1160.63
1131.16
1144.22
1150.15
1159.97
1164.41
1168.5
1171.75
1163.87
1151.82
1135.82
1118.1
1102.91
1090.58
1079.62
1069.1
1056.67
1037.96
1017.7
1032.6
1345.47
1365.3
1375.16
1374.75
1369.57
1364.39
1354.05
1333.36
1304.76
1280.86
1263.44
1250.56
1238.64
1228.68
1219.87
1210.61
1201.64
1192.44
1182.71
1167.87
1364.62
1383.81
1394.23
1378.79
1371.23
1372.91
1364.25
1335.4
1286.51
1245.36
1219.53
1210.62
1204.31
1197.83
1190.63
1181.87
1172.7
1162.94
1152.84
1137.4
1374.09
1393.01
1401.35
1368.28
1362.74
1377.85
1374.21
1339.82
1273.68
1222.52
1196.38
1198.35
1201.12
1202.55
1200.18
1194.14
1185.86
1176.19
1165.84
1149.72
1374.21
1378.55
1366.1
1331.14
1341.56
1382.64
1389.59
1367.75
1273.35
1144.52
1148.27
1161.4
1178.73
1190.74
1191.63
1189.75
1185.51
1179.14
1170.9
1156.23
1369.64
1370.36
1357.05
1328.42
1094.32
1114.01
1124.91
1139.89
1160.46
1182.8
1198.27
1198.53
1195.88
1189.69
1180.57
1163.95
1364.5
1371.89
1375.08
1379.38
1123.8
1132.53
1134.57
1139.6
1150.14
1170.19
1190.89
1196.9
1195.43
1191.11
1183.54
1167.7
1353.24
1362.73
1372.43
1388.17
1137.04
1140.94
1138.52
1139.01
1142.23
1151.33
1168.32
1184.1
1190.77
1189.92
1186.05
1172.85
1331.86
1333.16
1337.8
1366.39
1140.97
1122.4
1125.87
1128.62
1132.69
1139.02
1149.77
1165.56
1179.94
1186.14
1185.39
1177.95
1302.77
1284.23
1271.76
1272.74
1090.22
1120.77
1137.21
1142.34
1072.69
1065.02
1074.82
1085.04
1093.64
1102.4
1114.13
1130.08
1147.79
1162.99
1172.65
1171.14
1278.49
1242.73
1219.85
1140.55
1111.36
1131.45
1142.33
1123.96
1065.47
1047.8
1048.16
1054.89
1063.94
1072
1081.73
1097.1
1116.45
1135.03
1151.62
1159.33
1260.87
1216.41
1192.38
1143.84
1121.86
1133.38
1139.85
1127.53
1078.03
1049.65
1028.05
1029.67
1039.9
1052.23
1062.95
1076.15
1092.66
1110.29
1127.2
1143.3
1247.91
1207.49
1194.61
1156.66
1137.22
1138.69
1140.29
1130.65
1089.12
1058.47
1031.35
1027.61
1032.08
1044.2
1055.52
1064.99
1076.54
1091.02
1105.4
1125.67
1235.98
1201.36
1198.19
1174.33
1158.4
1149.92
1143.58
1134.9
1097.78
1068.41
1043.82
1033.25
1034.11
1040.05
1047.32
1055.06
1065.17
1077.83
1089.61
1110.58
1226.21
1195.16
1200.15
1187.7
1181.35
1170.44
1152.95
1141.31
1106.44
1076.94
1057.22
1047.55
1041.85
1035.98
1035.06
1039.5
1050.6
1065.61
1077.5
1097.91
1217.63
1188.3
1198.08
1190.08
1197.54
1190.93
1169.87
1152.13
1118.09
1087.1
1068.62
1060.44
1051.15
1037.94
1026.83
1028.86
1037.04
1052.29
1064.61
1085.77
1208.58
1179.83
1192.42
1188.43
1197.94
1196.84
1185.32
1167.7
1133.8
1102.57
1082.36
1071.31
1060.76
1044.91
1030.54
1031.43
1037.25
1046.56
1057.01
1075.04
1199.81
1170.86
1184.35
1184.5
1195.35
1195.39
1191.46
1181.63
1151.09
1121.5
1098.97
1083.54
1071.86
1057.41
1041.98
1038.66
1040.22
1046.08
1053.97
1062.63
1190.78
1161.18
1174.74
1178.26
1189.2
1191.15
1190.45
1187.16
1165.82
1139.52
1116.18
1097.73
1084.52
1072.34
1058.73
1050.35
1047.74
1050.52
1048.89
1044.83
1181.18
1151.14
1164.37
1169.96
1179.97
1183.56
1186.41
1186.27
1174.61
1155.5
1132.52
1111.55
1096.03
1083.96
1071.45
1062.88
1058.6
1051.78
1035.86
1037.9
1166.53
1135.88
1148.3
1155.19
1163.13
1167.54
1173.06
1178.56
1172.65
1161.78
1147.04
1130.44
1115.97
1103.76
1092.4
1082.1
1069.66
1051.09
1040.33
1072.84
1348.85
1368.22
1378.51
1379.64
1376.71
1371.38
1361.08
1340.7
1312.55
1288.51
1270.58
1257.1
1244.45
1234.13
1224.98
1215.47
1206.53
1197.5
1187.98
1173.86
1367.64
1386.51
1397.41
1386.25
1380.82
1380.65
1371.52
1343.34
1295.12
1253.48
1227.56
1217.16
1209.26
1201.76
1194.04
1185.01
1175.91
1166.28
1156.37
1141.69
1377.61
1396.34
1408.31
1381.79
1373.28
1385.55
1381.15
1347.9
1283.07
1230.66
1205.11
1205.14
1207.08
1207.14
1203.77
1196.78
1187.96
1178
1167.6
1152.22
1379.3
1386.25
1380.1
1344.56
1348.65
1388.48
1396.19
1375.29
1284.15
1152.58
1155.83
1167.69
1182.32
1192.53
1194.02
1192.29
1188.09
1181.64
1173.42
1159.59
1376.87
1380.1
1368.24
1336.72
1101.96
1120.55
1130.66
1146.33
1168.09
1190.91
1201.52
1200.63
1196.85
1190.11
1181.01
1165.63
1371.34
1379.42
1382.58
1385.12
1128.85
1136.17
1138.21
1144.08
1157.6
1178.8
1195.3
1197.75
1196.11
1191.48
1183.74
1168.85
1359.8
1369.19
1378.31
1394.59
1142.13
1146.18
1144.03
1144.9
1149.21
1160.62
1177.27
1190.09
1193.63
1192.38
1187.68
1174.06
1338.45
1339.73
1343.7
1372.53
1148.26
1131.49
1133.72
1136.42
1140.74
1148.11
1160.94
1176.38
1187.65
1190.83
1189.61
1181.21
1309.37
1290.46
1277.61
1279.67
1103.76
1128.75
1144.14
1150.47
1075.6
1070.86
1082.39
1092.85
1101.81
1112.2
1125.95
1143.24
1160.37
1173.71
1179.7
1176.81
1284.89
1248.45
1224.9
1148.14
1119.47
1138
1149.32
1134.29
1074.68
1047.86
1049.72
1058.66
1069.87
1080.07
1092.89
1110.96
1130.89
1148.76
1163.2
1167.03
1266.72
1222.41
1199.25
1151.64
1130.27
1140.27
1147.41
1136.72
1088.42
1052.58
1030.5
1033.34
1044.57
1058.22
1072.07
1088.66
1106.86
1124.6
1140.56
1153.15
1253.24
1212.17
1199.94
1163.75
1146.82
1146.5
1148.27
1139.7
1098.75
1064.33
1036.14
1030.23
1034.45
1047.74
1061.88
1075
1089.22
1104.5
1118.55
1136.57
1240.8
1204.66
1202.53
1178.64
1168.64
1160.22
1152.69
1144.32
1107.45
1076.11
1050.26
1036.63
1036.95
1042.64
1051.32
1062.39
1075.42
1089.36
1101.57
1121.49
1230.92
1197.86
1203.26
1189.75
1190.77
1180.8
1164.12
1152.02
1117.83
1086.56
1064.56
1052.4
1045.25
1038.95
1038.12
1044.84
1059.83
1076.72
1088.45
1108.08
1222.2
1190.82
1200.67
1191.89
1201.22
1196.76
1180.25
1164.93
1131.48
1099.81
1078.89
1067.83
1056.57
1041.12
1035.86
1040.03
1049.81
1064.58
1076.08
1096.07
1213.09
1182.35
1194.35
1190.34
1200.3
1198.91
1192.65
1179.76
1148.31
1117.66
1095.71
1081.9
1069.36
1051.4
1041.89
1044.17
1050.66
1059.3
1069.53
1085.7
1204.5
1173.64
1185.95
1186.5
1196.48
1197.22
1195.61
1190.48
1164.79
1136.78
1113.56
1096.34
1082.78
1067.69
1055.27
1052.24
1053.51
1059.28
1066.02
1071.88
1195.78
1164.36
1176.35
1180.38
1189.63
1192.48
1194.27
1193.03
1177.69
1154.15
1130.84
1111.3
1096.42
1083.97
1071.34
1063.12
1061.23
1062.39
1057.33
1055.96
1186.49
1154.7
1166.22
1172.34
1180.46
1184.57
1189.34
1191.7
1182.68
1167.87
1146.55
1125.27
1108.54
1095.45
1083
1075.13
1070.6
1060.82
1048.79
1055.3
1172.62
1140.29
1151.06
1158.61
1165
1169.33
1175.28
1182.8
1179.24
1170.29
1157.64
1142.03
1127.5
1114.4
1102.51
1092.12
1078.71
1061.05
1058.05
1109.37
1360.13
1378.86
1389.08
1391.58
1390.39
1385.44
1375.38
1355.19
1327.66
1303.78
1285.62
1271.77
1259.11
1248.51
1239.15
1229.86
1221.03
1211.98
1202.57
1188.94
1378.28
1396.39
1406.74
1399.76
1395.65
1393.88
1384.39
1356.7
1309.3
1267.61
1242.07
1230.88
1222.51
1214.65
1206.65
1197.76
1188.81
1179.22
1169.39
1155.23
1388.1
1405.68
1419.58
1398.33
1388.41
1396.99
1391.74
1359.23
1295.58
1243.5
1219.5
1218.58
1219.87
1219.27
1215.22
1207.94
1198.89
1188.67
1178.21
1163.29
1390.98
1399.39
1396.82
1364.98
1358.62
1395.84
1403.63
1383.75
1294.09
1162.51
1167.96
1181.63
1195.68
1204.93
1205.48
1203.46
1198.63
1191.48
1183.03
1169.76
1389.94
1394.43
1383.64
1347.85
1116.87
1126.01
1138.94
1158.22
1182.51
1205.02
1211.4
1209.79
1205.31
1198.07
1189.14
1174.97
1384.56
1391.67
1393.14
1391.59
1131.94
1140.63
1144.88
1153.57
1171.12
1192.74
1206.43
1206.82
1204.68
1199.36
1191.61
1177.7
1373.13
1380.7
1387.14
1400.54
1145.32
1151.64
1152.27
1155.19
1162.42
1176.45
1192.87
1203.37
1203.84
1201.91
1196.33
1182.48
1351.96
1351.48
1352.5
1378.68
1153.9
1139.39
1143.61
1148.52
1154.64
1163.94
1178.63
1193.4
1201.72
1202.15
1200.47
1190.86
1323.51
1302.17
1285.48
1279.76
1112.79
1134.76
1149.68
1157.75
1066.6
1073.84
1091.94
1105.35
1116.37
1129.18
1144.98
1162.93
1178.91
1189.81
1192.37
1188.22
1299.48
1260.69
1234.76
1156.74
1128.72
1144.42
1156.78
1145.86
1081.07
1050.19
1055.18
1069.08
1083.76
1097.23
1112.71
1131.55
1150.67
1167.04
1178.88
1180.05
1281.26
1235.97
1212.72
1163.21
1140.92
1148.36
1157.02
1148.97
1101.39
1059.88
1040.65
1045.71
1060.28
1075.31
1089.61
1106.76
1125.25
1142.85
1158.18
1168.07
1267.55
1225.34
1213.42
1177.98
1159.21
1156.71
1159.44
1153.18
1113.77
1077.14
1049.61
1043.75
1048.94
1061.43
1075.57
1090.23
1105.84
1122
1136.64
1152.68
1255.2
1217.52
1215.51
1192.95
1182.01
1173.26
1166.14
1158.86
1123.6
1091.73
1066.87
1051.87
1047.99
1052.18
1062.1
1075.62
1090.74
1106.19
1118.99
1137.15
1245.17
1210.43
1215.42
1202.56
1203.37
1193.74
1179.23
1167.77
1135.35
1104.45
1082.02
1066.43
1054.71
1050.46
1051.91
1061.52
1077.79
1093.86
1103.86
1121.42
1236.37
1203.18
1212.09
1203.11
1210.44