/*--------------------------------*- C++ -*----------------------------------*\
  =========                 |
  \\      /  F ield         | OpenFOAM: The Open Source CFD Toolbox
   \\    /   O peration     | Website:  https://openfoam.org
    \\  /    A nd           | Version:  9
     \\/     M anipulation  |
\*---------------------------------------------------------------------------*/
FoamFile
{
    format      ascii;
    class       volVectorField;
    location    "0.0035";
    object      U;
}
// * * * * * * * * * * * * * * * * * * * * * * * * * * * * * * * * * * * * * //

dimensions      [0 1 -1 0 0 0 0];

internalField   nonuniform List<vector> 
9720
(
(-1023.86 -1027.54 -202.702)
(-791.056 -1073.51 -184.657)
(-654.85 -1105.25 -172.252)
(-524.213 -1169.31 -205.506)
(-363.275 -1268.67 -213.958)
(-127.116 -1307.99 -208.495)
(138.831 -1330.07 -218.448)
(454.309 -1331.53 -217.324)
(806.292 -1307.46 -216.329)
(1096.3 -1189.99 -215.445)
(1320.54 -1050.61 -222.413)
(1488.92 -914.131 -210.318)
(1632.55 -809.969 -225.985)
(1752.1 -716.64 -219.288)
(1866.66 -644.479 -224.379)
(1982.28 -607.313 -242.39)
(2090.27 -563.976 -246.598)
(2205.84 -536.106 -243.412)
(2312.28 -515.619 -250.958)
(2498.95 -499.904 -259.642)
(-1066.95 -796.354 -183.421)
(-839.403 -847.894 -153.742)
(-704.931 -891.481 -146.189)
(-618.874 -976.447 -190.682)
(-451.419 -1133.81 -207.939)
(-176.138 -1205.36 -199.08)
(127.508 -1221.47 -206.883)
(503.728 -1237.32 -203.902)
(981.192 -1148.71 -200.894)
(1330.9 -912.108 -194.645)
(1548.17 -678.168 -208.571)
(1669.02 -503.281 -191.296)
(1764.96 -392.797 -210.26)
(1857.81 -327.702 -208.037)
(1951.57 -297.967 -214.39)
(2045.96 -288.619 -236.141)
(2143.02 -278.3 -249.817)
(2248.55 -271.733 -249.74)
(2346.95 -265.882 -260.56)
(2522.11 -261.515 -273.442)
(-1099.56 -661.9 -166.268)
(-885.548 -715.82 -140.241)
(-765.973 -772.486 -143.268)
(-778.262 -920.037 -171.934)
(-549.629 -1109.91 -200.397)
(-214.801 -1176.47 -188.919)
(118.004 -1170.31 -186.643)
(551.796 -1195.31 -180.452)
(1159.7 -1052.2 -187.962)
(1517.05 -707.598 -173.603)
(1693.86 -463.765 -192.817)
(1760.87 -293.519 -182.377)
(1812.36 -174.511 -183.599)
(1881.86 -109.087 -163.084)
(1966.78 -78.2948 -161.086)
(2059.39 -70.1459 -172.907)
(2157.35 -65.4362 -187.235)
(2264.87 -62.6044 -195.174)
(2363.92 -61.861 -215.636)
(2542.12 -64.861 -236.657)
(-1167.84 -526.02 -193.07)
(-975.595 -621.121 -172.623)
(-919.811 -778.367 -151.539)
(-872.6 -869.45 -181.177)
(-758.651 -1117.57 -214.475)
(-333.933 -1102.79 -197.098)
(25.6813 -1102.7 -198.876)
(412.368 -1104.75 -197.148)
(1138 -1016.93 -199.131)
(1790.53 -401.825 -185.297)
(1859.62 -225.837 -204.868)
(1822.25 -95.2528 -210.469)
(1834.4 5.51394 -226.282)
(1892.06 52.6338 -211.387)
(1969.51 93.217 -197.973)
(2057.85 114.597 -199.624)
(2153.19 123.748 -202.795)
(2260.98 128.336 -196.696)
(2362.24 129.364 -207.187)
(2547.47 127.85 -231.863)
(-1265.38 -360.478 -203.719)
(-1128.51 -451.185 -194.586)
(-1104.96 -556.542 -182.217)
(-1119.12 -753.403 -183.698)
(1752.24 -312.55 -252.086)
(2022.43 -97.5699 -210.469)
(2011.45 -35.2259 -225.127)
(1965.15 19.6095 -228.921)
(1890.64 110.217 -234.341)
(1879.54 188.963 -210.879)
(1926.79 231.353 -205.72)
(1996.32 260.669 -211.76)
(2082.1 269.973 -212.951)
(2187.29 275.294 -207.986)
(2287 274.551 -229.531)
(2474.61 274.002 -260.513)
(-1305.31 -124.153 -206.575)
(-1202.78 -173.542 -196.394)
(-1177.8 -213.725 -185.36)
(-1115.22 -336.817 -189.988)
(2147.61 52.6473 -222.485)
(2253.58 127.051 -218.715)
(2245.39 126.058 -223.973)
(2222.18 146.451 -226.223)
(2149.15 176.455 -232.759)
(2054.78 252.986 -219.055)
(2041.78 330.392 -215.209)
(2078.89 375.787 -220.978)
(2139.35 397.525 -222.45)
(2224.5 412.282 -222.355)
(2312.47 414.487 -245.933)
(2487.55 414.358 -276.342)
(-1327.48 144.468 -218.667)
(-1220.74 135.667 -208.427)
(-1171.75 127.991 -189.202)
(-1104.93 32.4289 -199.945)
(2301.22 287.731 -223.256)
(2410.73 368.226 -218.909)
(2406.66 373.851 -226.331)
(2393.14 384.855 -230.218)
(2359.02 403.949 -237.862)
(2292.72 430.052 -230.351)
(2221.26 487.868 -223.99)
(2216.77 533.656 -228.356)
(2244.44 553.419 -227.982)
(2296.6 568.269 -227.137)
(2361.14 566.574 -245.144)
(2511.63 559.496 -273.671)
(-1327.14 461.552 -222.288)
(-1233.12 515.562 -211.623)
(-1194.19 570.425 -191.896)
(-1105.63 433.666 -203.255)
(2455.34 507.651 -240.094)
(2566.81 667.536 -209.808)
(2592.69 645.722 -219.155)
(2611.47 622.363 -230.029)
(2606.14 610.864 -231.613)
(2584.29 611.99 -228.911)
(2535.34 622.57 -219.816)
(2475.77 643.421 -217.429)
(2462.92 657.417 -230.066)
(2472.87 665.463 -232.427)
(2497.85 674.389 -240.544)
(2593.02 677.16 -259.002)
(-1298.4 811.609 -226.578)
(-1136.12 989.522 -218.132)
(-1036.97 1170.57 -214.947)
(-981.872 1169.09 -231.015)
(-306.945 1764.37 -254.083)
(53.6931 2142.55 -231.264)
(286.153 2289.31 -229.703)
(509.091 2433.82 -227.258)
(1938.17 2194.66 -251.501)
(2403.36 1407.69 -202.513)
(2533.38 1244.65 -234.003)
(2600.24 1130.69 -220.252)
(2642.63 1049.62 -222.383)
(2685.08 988.164 -227.161)
(2677.45 941.502 -226.07)
(2639.19 929.778 -222.794)
(2607.28 905.725 -220.121)
(2611.62 880.723 -224.129)
(2626.69 861.617 -235.408)
(2689 843.621 -249.683)
(-1178.78 1097.62 -229.131)
(-897.918 1332.52 -218.277)
(-695.188 1519.23 -207.75)
(-390.059 1783.22 -222.1)
(-103.224 2000.27 -228.538)
(121.289 2220.6 -225.154)
(362.719 2376.08 -219.527)
(661.924 2530.93 -198.201)
(1329.48 2429.03 -201.664)
(1953.3 2036.4 -246.459)
(2246.76 1683.13 -176.753)
(2432.98 1553.82 -168.301)
(2551.88 1461.92 -205.77)
(2636.75 1368.89 -248.297)
(2698.88 1287.43 -261.828)
(2711.94 1232.32 -235.045)
(2698.21 1179.42 -210.983)
(2707.98 1134.17 -205.149)
(2720.87 1085.84 -216.614)
(2778.9 1043.74 -238.021)
(-1040.13 1318.67 -237.217)
(-665.376 1543.65 -232.855)
(-454.937 1688.24 -228.878)
(-222.577 1840.95 -244.032)
(-39.2016 1988.7 -240.15)
(121.642 2214.35 -229.83)
(368.957 2374.27 -225.033)
(636.535 2558.59 -210.776)
(1212.75 2546.77 -215.203)
(1606.17 2272.11 -196.169)
(1996.92 2054.12 -175.674)
(2235.5 1834.5 -187.026)
(2391.39 1753.13 -240.175)
(2512.69 1682.22 -260.114)
(2614.29 1601.11 -245.979)
(2690.35 1527.35 -213.743)
(2713.68 1453.87 -187.813)
(2751.15 1398.06 -181.399)
(2764.59 1336.41 -195.882)
(2836.5 1265.19 -229.546)
(-904.892 1485.31 -225.482)
(-493.563 1662.27 -213.807)
(-287.754 1753.27 -213.871)
(-96.0892 1810.59 -244.106)
(17.7433 1943.85 -241.177)
(142.541 2192.75 -231.667)
(380.25 2363.2 -228.078)
(611.505 2579.98 -222.374)
(1104.98 2597.05 -199.448)
(1529.98 2457.13 -160.109)
(1791.81 2264.66 -202.878)
(2035.66 2074.53 -203.136)
(2210.68 1910.97 -215.511)
(2354.72 1857.95 -182.969)
(2484.69 1832.4 -156.871)
(2598.62 1788.75 -170.738)
(2657.11 1710.28 -173.053)
(2727.71 1650.02 -179.782)
(2753.25 1581.02 -203.241)
(2849.55 1491.45 -235.55)
(-802.523 1628.62 -241.25)
(-386.147 1759.14 -230.845)
(-170.781 1806.49 -208.104)
(0.57826 1828.97 -249.707)
(107.895 1876.48 -244.459)
(173.672 2124.18 -238.362)
(398.166 2332.54 -234.717)
(600.773 2575.6 -223.278)
(1026.75 2631.65 -200.123)
(1439.02 2562.25 -184.035)
(1747.5 2421.28 -232.066)
(1893.83 2248.33 -221.75)
(2056.42 2087.28 -184.209)
(2229.31 2000.49 -119.866)
(2368.89 1990.35 -133.729)
(2516.83 1995.12 -189.31)
(2591.93 1927.91 -195.751)
(2673.17 1875.28 -212.87)
(2709.3 1807.04 -219.576)
(2830.7 1707.81 -230.204)
(-710.824 1748.18 -233.697)
(-323.346 1852.46 -226.486)
(-107.036 1876.73 -183.066)
(49.703 1886.7 -228.903)
(182.9 1872.24 -222.222)
(247.98 2041.4 -224.979)
(423.623 2272.66 -227.512)
(602.118 2555.7 -219.198)
(967.327 2667.08 -205.552)
(1347.31 2638.79 -224.181)
(1672.02 2532.99 -242.544)
(1866.9 2382.3 -177.667)
(1998.5 2250.83 -116.192)
(2148.6 2158.65 -90.7871)
(2283.82 2111.48 -167.305)
(2425.35 2100.05 -242.778)
(2490.11 2068.75 -234.338)
(2567.03 2048.14 -245.713)
(2619.09 1993.3 -210.281)
(2786.97 1897.09 -197.83)
(-639.957 1863.07 -237.581)
(-294.993 1946.85 -230.629)
(-77.0421 1962.37 -178.233)
(91.2764 1964.76 -212.849)
(225.207 1921.53 -217.78)
(320.677 2034.23 -221.386)
(478.975 2211.55 -223.314)
(611.836 2510.82 -208.707)
(925.534 2658.01 -206.574)
(1267.5 2690.23 -235.563)
(1584.83 2619.32 -219.799)
(1830.63 2501.27 -134.314)
(2003.83 2384.75 -113.959)
(2110.81 2300.15 -156.215)
(2237.93 2251.6 -260.953)
(2355.19 2223.85 -296.943)
(2433.7 2191.08 -260.648)
(2526.9 2170.01 -221.986)
(2603.14 2130.85 -140.906)
(2762.59 2074.97 -139.76)
(-603.762 1979.16 -254.578)
(-286.406 2042.1 -250.873)
(-69.2056 2055.75 -188.821)
(112.871 2054.07 -212.905)
(255.275 1992.75 -223.968)
(365.215 2072.9 -227.322)
(519.988 2212.71 -228.28)
(632.078 2461.25 -211.286)
(912.463 2621.28 -205.047)
(1212.37 2697.36 -209.7)
(1507.86 2684.56 -183.739)
(1776.8 2603.03 -138.001)
(1999.79 2527.32 -151.106)
(2117.98 2444.52 -209.562)
(2227.17 2372.69 -283.015)
(2314.8 2318.24 -262.837)
(2393.07 2270.29 -204.319)
(2489.64 2255.43 -130.689)
(2569.27 2273.49 -78.8464)
(2720.16 2260.26 -125.78)
(-560.916 2087.48 -257.14)
(-276.257 2139.78 -262.202)
(-64.3165 2154.52 -200.724)
(122.699 2150.18 -214.727)
(262.928 2079.67 -223.905)
(388.548 2134.05 -227.565)
(539.767 2242.21 -227.674)
(643.524 2455.56 -222.558)
(887.045 2597.83 -206.363)
(1157.66 2686.86 -189.054)
(1432.69 2707.6 -159.137)
(1694.93 2657.87 -137.007)
(1926.69 2602.53 -154.987)
(2080.03 2510.19 -199.975)
(2203.77 2444.3 -235.948)
(2282.33 2393.6 -188.241)
(2382.75 2365.35 -121.033)
(2509.83 2374.79 -57.9499)
(2566.12 2401 -83.1885)
(2734.94 2404.76 -177.018)
(-533.377 2203.36 -252.899)
(-269.825 2245.73 -260.525)
(-61.3315 2262.56 -206.669)
(127.758 2258.6 -207.071)
(268.183 2185.52 -218.016)
(403.922 2219.27 -226.205)
(554.407 2295.84 -226.307)
(654.742 2467.92 -224.35)
(864.19 2606.17 -212.577)
(1113.11 2700.69 -186.769)
(1376.59 2745.95 -155.562)
(1632.81 2728.6 -144.887)
(1868.56 2686.25 -173.993)
(2050 2588.06 -209.016)
(2184.75 2537.94 -187.114)
(2282.57 2485.61 -101.408)
(2400.71 2491.9 -41.1873)
(2500.33 2485.3 -60.1275)
(2560.35 2508.65 -161.304)
(2758.03 2552.63 -241.585)
(-512.911 2310.2 -259.379)
(-263.829 2344.61 -269.711)
(-61.132 2362.1 -225.191)
(128.535 2360.45 -216.68)
(268.096 2285.77 -238.881)
(406.155 2306.35 -250.092)
(553.126 2361.13 -243.722)
(665.552 2495.18 -232.258)
(847.937 2623.13 -223.566)
(1066.9 2715.93 -201.232)
(1315.15 2762.16 -173.84)
(1562.62 2756.38 -173.336)
(1795.2 2723.3 -186.286)
(1987.36 2639.94 -174.944)
(2134.86 2614.95 -102.581)
(2287.6 2569.7 -41.1195)
(2420.75 2560.54 -56.8496)
(2522.47 2554.12 -145.765)
(2653.66 2642.09 -230.32)
(2799.74 2662.84 -236.55)
(-497.289 2497.55 -267.019)
(-259.472 2520.51 -281.057)
(-64.3051 2540.92 -244.288)
(127.255 2546.65 -240.606)
(268.752 2474.43 -268.569)
(406.823 2480.55 -280.429)
(547.437 2511.48 -271.079)
(668.539 2592.93 -250.693)
(832.51 2686.81 -237.621)
(1029.67 2774.97 -223.388)
(1247.58 2835.52 -210.869)
(1473.12 2855.37 -212.119)
(1692.1 2845.15 -204.304)
(1885.17 2804.13 -168.932)
(2068.37 2775.97 -106.051)
(2261.52 2729.15 -89.3004)
(2414.5 2743.34 -143.763)
(2560.41 2759.67 -214.968)
(2681.61 2785.48 -226.464)
(2664.12 2648.55 -197.407)
(-1031.56 -1035.72 -140.846)
(-799.306 -1084.02 -124.552)
(-661.31 -1118.2 -110.645)
(-535.106 -1191.17 -131.861)
(-372.439 -1293.02 -138.741)
(-129.682 -1332.76 -137.012)
(139.032 -1354.24 -144.987)
(455.86 -1355.8 -142.412)
(810.511 -1330.02 -139.19)
(1103.08 -1210.98 -136.702)
(1328.47 -1067.95 -140.805)
(1495.6 -928.409 -129.042)
(1638.67 -822.98 -143.92)
(1756.89 -728.308 -140.064)
(1870.35 -654.645 -146.71)
(1985.63 -618.14 -162.497)
(2092.16 -574.732 -166.735)
(2206.01 -546.34 -165.638)
(2311.42 -525.027 -172.392)
(2496.28 -508.887 -180.281)
(-1076.39 -805.709 -124.827)
(-848.755 -859.833 -95.2917)
(-714.281 -907.041 -83.8159)
(-645.686 -1011.76 -108.15)
(-463.055 -1174.55 -129.519)
(-178.405 -1242.82 -130.202)
(127.869 -1254.87 -137.243)
(506.752 -1267.66 -132.939)
(988.263 -1177.5 -125.614)
(1339.7 -939.517 -119.307)
(1562.76 -703.528 -127.289)
(1680.36 -521.592 -109.02)
(1773.05 -406.453 -129.312)
(1863.86 -337.032 -132.761)
(1956.77 -307.698 -142.572)
(2051.33 -298.795 -162.573)
(2147.41 -288.417 -175.556)
(2251.14 -281.497 -177.328)
(2348.32 -275.141 -186.977)
(2521.3 -270.311 -198.661)
(-1110.77 -668.886 -108.51)
(-896.857 -727.172 -81.0575)
(-785.46 -798.207 -75.1269)
(-823.297 -966.428 -92.6156)
(-558.684 -1168.11 -129.352)
(-213.958 -1219.32 -133.655)
(119.783 -1206.7 -131.75)
(560.666 -1226.81 -124.376)
(1172.93 -1083.97 -118.444)
(1525.81 -734.4 -103.561)
(1714.36 -491.399 -118.893)
(1781.13 -317.954 -100.598)
(1823.07 -193.22 -100.222)
(1887.67 -120.133 -87.1401)
(1969.61 -88.8456 -91.9851)
(2061.61 -79.3699 -108.964)
(2159.69 -74.1264 -126.26)
(2266.88 -71.2571 -136.56)
(2365.67 -71.7888 -157.293)
(2543.08 -75.4046 -177.211)
(-1184.83 -534.636 -123.334)
(-1001.36 -643.574 -96.329)
(-955.951 -824.967 -80.653)
(-930.526 -945.748 -120.905)
(-754.438 -1167.71 -156.756)
(-328.02 -1145.86 -149.72)
(29.7098 -1144.98 -147.9)
(421.468 -1141.5 -138.581)
(1148.83 -1053.25 -112.275)
(1788.86 -407.481 -91.0085)
(1886.53 -241.948 -118.82)
(1863.7 -117.619 -123.028)
(1857.6 -14.7431 -139.846)
(1905.54 37.2312 -131.016)
(1976.87 78.9071 -125.545)
(2061.22 102.028 -132.568)
(2154.04 111.961 -140.709)
(2260 117.707 -140.334)
(2360.62 117.614 -152.7)
(2544.87 115.165 -173.893)
(-1284.88 -368.282 -129.735)
(-1161.39 -463.175 -118.977)
(-1155.3 -573.403 -120.154)
(-1161.75 -783.586 -145.253)
(1762.84 -341.44 -112.762)
(2063.61 -103.162 -156.813)
(2055.36 -40.5372 -164.623)
(2020.67 13.9602 -160.146)
(1950.33 88.7579 -152.236)
(1916.43 174.105 -125.03)
(1951.77 217.846 -129.409)
(2013.02 249.127 -143.704)
(2093.37 258.821 -155.383)
(2194.12 264.847 -159.287)
(2292.47 263.737 -182.095)
(2476.52 260.625 -208.166)
(-1330.25 -128.507 -132.194)
(-1241.29 -180.101 -124.934)
(-1222.87 -217.572 -128.466)
(-1160.84 -336.691 -140.539)
(2247.41 40.54 -190.768)
(2344.68 120.021 -181.492)
(2328.48 116.339 -179.8)
(2303.46 135.642 -173.517)
(2238.39 162.917 -163.048)
(2134.75 226.369 -134.364)
(2091.47 311.101 -134.76)
(2117.91 356.09 -150.994)
(2169.54 381.257 -162.633)
(2246.93 398.729 -169.873)
(2330.57 402.069 -196.556)
(2499.22 398.657 -224.967)
(-1352.17 142.157 -143.822)
(-1254.87 131.353 -138.208)
(-1207.94 121.073 -134.618)
(-1145.29 31.1215 -147.734)
(2415.7 282.976 -189.02)
(2513 364.371 -181.519)
(2506.29 366.736 -179.66)
(2491.32 374.846 -174.239)
(2458.97 392.739 -171.012)
(2395.94 415.522 -149.676)
(2310.08 466.586 -127.453)
(2277.79 522.187 -142.115)
(2296.52 539.958 -154.725)
(2339.62 557.017 -160.94)
(2396.78 557.307 -184.192)
(2537.46 545.207 -216.627)
(-1353.89 459.824 -147.841)
(-1268.7 513.186 -143.094)
(-1230.26 568.058 -140.081)
(-1142.21 429.501 -149.015)
(2568.39 499.514 -193.264)
(2668.65 671.437 -167.657)
(2691.12 646.104 -171.897)
(2708.39 624.227 -170.379)
(2704.34 608.616 -162.081)
(2682.19 604.733 -152.399)
(2634.46 612.258 -134.995)
(2566.18 635.784 -118.326)
(2533.9 645.734 -140.356)
(2540.36 651.26 -154.451)
(2559.72 658.951 -170.086)
(2642.45 659.912 -195.543)
(-1325.41 814.059 -150.244)
(-1173.35 995.567 -146.269)
(-1077.07 1178.89 -152.036)
(-1026.99 1158.8 -143.782)
(-326.94 1738.09 -137.518)
(30.5908 2181.34 -198.465)
(267.051 2352.95 -197.55)
(488.723 2520.9 -185.111)
(1961.82 2262.82 -142.571)
(2508.66 1430.03 -148.096)
(2624.53 1248.07 -170.338)
(2694.08 1137.28 -158.548)
(2731.67 1052.33 -157.036)
(2771.58 990.617 -157.47)
(2771.21 941.501 -140.014)
(2735.42 925.439 -123.2)
(2690.51 902.451 -119.596)
(2684.94 875.954 -130.891)
(2694.87 855.517 -155.116)
(2751.81 833.981 -181.386)
(-1204.14 1103.78 -150.46)
(-932.496 1342.88 -143.715)
(-729.374 1529.09 -140.605)
(-400.115 1780.6 -130.703)
(-113.977 2033.41 -171.486)
(100.921 2292.42 -180.196)
(341.015 2478.64 -176.168)
(660.821 2645.83 -153.767)
(1356.35 2548.42 -132.942)
(2028.65 2115.22 -179.149)
(2314.97 1709.53 -111.396)
(2502.97 1561.73 -110.251)
(2633.93 1473.21 -135.157)
(2721.14 1381.66 -159.118)
(2779.93 1295.06 -165.094)
(2796.45 1232.95 -134.487)
(2777.96 1177.86 -109.612)
(2781.04 1131.87 -107.718)
(2789.43 1087.02 -127.703)
(2844.7 1040.63 -163.372)
(-1060.48 1326.55 -155.303)
(-694.621 1559.72 -148.303)
(-489.255 1709.04 -143.679)
(-244.5 1870.28 -143.341)
(-48.2789 2024.64 -168.631)
(99.6233 2281.06 -174.439)
(345.02 2471.12 -169.817)
(628.155 2664.33 -156.318)
(1218.88 2644.51 -136.211)
(1634.79 2343.57 -117.032)
(2044.6 2102.52 -118.22)
(2310.31 1879.15 -108.412)
(2473.22 1774.39 -124.923)
(2586.97 1692.19 -145.45)
(2678.01 1602.27 -151.352)
(2757.18 1528.62 -123.944)
(2783.53 1454.39 -95.0296)
(2823.59 1397.98 -85.1728)
(2834.31 1341.15 -100.25)
(2900.39 1267.95 -145.883)
(-921.52 1492.48 -144.075)
(-514.391 1675.13 -128.895)
(-317.051 1776.52 -121.097)
(-125.005 1852.58 -133.047)
(9.48589 1987.61 -156.309)
(119.144 2258.75 -164.488)
(356.909 2455.66 -159.643)
(604.562 2680.95 -152.783)
(1108.73 2688.45 -120.413)
(1536.5 2521.07 -82.3457)
(1826.69 2330.04 -115.707)
(2097.67 2134.95 -85.1698)
(2268.96 1938.85 -74.2358)
(2403.5 1853.07 -76.4669)
(2526.72 1825.27 -76.2274)
(2656.46 1791.37 -85.3921)
(2724.73 1717.48 -81.7655)
(2800.57 1656.21 -77.8287)
(2820.58 1588.11 -97.5209)
(2908.36 1495.12 -145.021)
(-817.552 1635.72 -159.01)
(-400.845 1768.76 -148.591)
(-191.328 1818.55 -118.75)
(-23.7824 1851.18 -143.958)
(86.4248 1918.58 -147.281)
(149.323 2194.55 -153.252)
(376.136 2423.01 -153.83)
(589.05 2676.41 -143.643)
(1025.11 2716.62 -120.618)
(1445.29 2631.82 -97.2668)
(1762.09 2486.52 -107.2)
(1914.76 2292.22 -79.9155)
(2076.25 2101.54 -74.1547)
(2249.05 1997.61 -43.3292)
(2401.9 1989.7 -55.133)
(2572.34 2013.14 -88.8883)
(2654.97 1950.49 -86.3424)
(2740.19 1889.8 -95.6616)
(2768.87 1811.63 -107.58)
(2882.15 1707 -139.743)
(-723.908 1753.9 -154.001)
(-332.833 1859.95 -150.236)
(-118.241 1883.85 -104.554)
(35.4321 1898.35 -134.899)
(167.692 1896.28 -126.509)
(217.659 2097.79 -129.736)
(400.244 2361.3 -134.31)
(585.755 2654.17 -133.555)
(965.962 2753.05 -124.81)
(1354.74 2709.83 -122.294)
(1677.16 2588.35 -116.845)
(1861.38 2416 -65.5589)
(1998.8 2262.97 -42.2131)
(2160.68 2167.22 -3.20296)
(2313.16 2129.61 -50.9214)
(2468.45 2116.44 -108.126)
(2541.09 2069.47 -103.633)
(2615.69 2039.47 -127.277)
(2659.8 1983.05 -109.939)
(2819.54 1892.2 -118.198)
(-651.12 1867.5 -159.094)
(-304.767 1953.27 -157.551)
(-87.7282 1965.8 -107.602)
(77.5621 1971.14 -132.887)
(210.316 1936.32 -134.51)
(300.896 2064.18 -134.632)
(452.103 2281.14 -119.297)
(594.206 2607.11 -116.237)
(919.771 2750.83 -113.59)
(1270.91 2765.03 -131.428)
(1584.67 2672.69 -116.487)
(1824.2 2531.83 -49.919)
(2003.99 2407.01 -38.4566)
(2132.54 2317.98 -45.882)
(2260.13 2267.78 -125.057)
(2380.69 2227.96 -168.204)
(2456.88 2177.47 -149.257)
(2545.01 2156.93 -130.286)
(2623.36 2122.57 -61.1482)
(2791.96 2068.48 -68.371)
(-615.215 1983.01 -173.468)
(-296.603 2048.34 -175.639)
(-78.4934 2058.29 -123.365)
(100.723 2056.91 -141.466)
(240.236 2001.67 -150.661)
(346.618 2094.72 -151.536)
(505.418 2255.97 -136.389)
(616.642 2542.49 -105.758)
(904.01 2716.2 -101.335)
(1209.22 2779.1 -104.43)
(1507.49 2746.49 -90.4054)
(1776.99 2650.56 -53.5599)
(2012.47 2568.37 -56.8117)
(2136.73 2472.81 -81.5655)
(2233.5 2388.38 -155.012)
(2318.9 2316.18 -150.451)
(2397.49 2263.29 -113.638)
(2494.21 2245.86 -57.2364)
(2584.62 2265.88 -1.22161)
(2747.19 2254.4 -50.8762)
(-571.893 2089.6 -176.149)
(-286.09 2144.68 -186.442)
(-72.5937 2157 -138.247)
(111.503 2151.07 -149.461)
(248.516 2085.11 -162.1)
(372.349 2149.72 -162.303)
(525.124 2277.81 -148.677)
(627.824 2515.72 -129.455)
(881.216 2675.19 -102.286)
(1153.76 2761.64 -85.4664)
(1431.23 2771 -67.0663)
(1697.03 2712.86 -49.491)
(1942.32 2649.18 -51.5183)
(2085.31 2542.59 -72.179)
(2194.11 2458.7 -126.177)
(2278.36 2392.57 -100.836)
(2377.48 2358.4 -54.1085)
(2510.21 2364.78 11.2515)
(2584.05 2398 -1.08083)
(2756.3 2402.27 -99.1094)
(-543.564 2203.66 -174.236)
(-278.749 2248.62 -186.995)
(-69.7287 2264.5 -146.773)
(117.321 2258.03 -148.695)
(255.483 2188.21 -165.628)
(390.052 2230.11 -168.419)
(542.965 2323.84 -154.471)
(636.911 2523.54 -141.906)
(856.869 2671.25 -116.673)
(1109.06 2766.95 -88.211)
(1374.43 2810.27 -61.0026)
(1634.17 2787.82 -47.0847)
(1877.88 2736.14 -61.7069)
(2044.41 2619.32 -94.1543)
(2174.6 2546.66 -100.367)
(2273.97 2484.69 -34.6697)
(2391.99 2488.61 24.3653)
(2510.18 2490.04 22.8779)
(2570.02 2506 -72.86)
(2767.35 2549.19 -167.2)
(-522.011 2309.46 -180.186)
(-272.019 2346.19 -195.366)
(-70.1756 2363.78 -165.485)
(117.799 2359.58 -160.265)
(256.152 2288.28 -187.988)
(393.361 2315.44 -195.661)
(542.942 2383.14 -176.725)
(647.653 2544.2 -155.905)
(838.745 2682.18 -140.215)
(1065.04 2777.03 -110.845)
(1316.7 2823.33 -78.8988)
(1565.54 2811.39 -70.4728)
(1796.94 2767.44 -77.2573)
(1978.59 2665.96 -77.4841)
(2128.32 2625.04 -27.4766)
(2280.76 2578.15 31.0978)
(2419.76 2571.53 22.2439)
(2525.19 2557.34 -60.3613)
(2649.84 2634.36 -163.266)
(2813.42 2671.46 -161.639)
(-505.783 2495.2 -187.241)
(-267.017 2520.04 -205.761)
(-73.4833 2542.01 -183.478)
(116.432 2545.38 -180.483)
(255.201 2474.56 -213.1)
(390.722 2486.85 -225.856)
(531.894 2526.4 -209.672)
(650.012 2629.19 -181.677)
(819.944 2739.3 -165.18)
(1023.09 2832.28 -146.727)
(1246.91 2890.78 -127.304)
(1474.18 2902.76 -122.686)
(1689.97 2883.8 -114.579)
(1880.19 2826.66 -89.9378)
(2062.2 2796.47 -36.8945)
(2255.4 2748.21 -17.3811)
(2413.1 2755.98 -68.5576)
(2559.37 2761.93 -144.049)
(2691.42 2794.74 -151.804)
(2695.28 2677.04 -100.179)
(-1052.82 -1048.08 -105.386)
(-822.13 -1094.27 -93.3285)
(-684.015 -1135.43 -83.9134)
(-562.438 -1224.28 -98.9918)
(-386.768 -1327.54 -104.774)
(-136.356 -1369.91 -105.896)
(138.055 -1386.71 -110.471)
(460.618 -1390.38 -110.681)
(820.208 -1361.93 -106.791)
(1114.38 -1239.23 -102.587)
(1341.81 -1093.25 -103.083)
(1508.1 -951.846 -92.6659)
(1650.22 -845.719 -104.637)
(1766.26 -751.272 -102.752)
(1876.61 -675.434 -107.818)
(1989.72 -636.841 -118.032)
(2095.23 -595.281 -121.789)
(2207.11 -566.445 -122.111)
(2310.89 -543.736 -126.965)
(2494.28 -528.774 -133.845)
(-1098.52 -816.168 -93.5242)
(-872.115 -867.743 -71.6201)
(-743.932 -920.021 -63.5979)
(-695.777 -1048.88 -76.8022)
(-478.95 -1215.06 -94.8808)
(-183.702 -1278.03 -98.1377)
(127.977 -1283.82 -103.015)
(516.63 -1297.64 -103.501)
(1002.44 -1201.38 -93.611)
(1351.82 -958.631 -85.5632)
(1577.99 -723.842 -87.2779)
(1695.15 -540.475 -70.9634)
(1784.81 -423.949 -88.9037)
(1871.69 -351.636 -93.886)
(1962.12 -321.986 -102.369)
(2055.35 -311.531 -115.986)
(2150.22 -301.337 -125.683)
(2252.17 -294.11 -128.342)
(2347.9 -286.973 -135.67)
(2519.62 -282.934 -145.532)
(-1135.03 -679.026 -83.888)
(-917.978 -741.739 -64.6542)
(-819.843 -824.241 -57.8122)
(-875.794 -999.746 -60.4717)
(-571.347 -1209.82 -89.4355)
(-214.965 -1246.4 -96.3)
(122.919 -1230.98 -97.2971)
(574.604 -1250.86 -97.7727)
(1184.22 -1090.45 -83.3033)
(1529.2 -737.645 -69.6965)
(1714.62 -498.716 -74.9375)
(1791.04 -331.923 -55.4159)
(1840.35 -214.428 -59.7686)
(1901.53 -139.97 -54.6987)
(1978.32 -107.936 -62.3183)
(2066.82 -95.6535 -77.7587)
(2162.5 -88.8633 -91.8413)
(2266.74 -84.9605 -100.654)
(2363.48 -84.0733 -116.175)
(2537.86 -88.0435 -132.063)
(-1215.47 -556.778 -97.6246)
(-1037.73 -686.769 -80.7618)
(-991.69 -872.975 -68.6206)
(-994.344 -1003.52 -94.218)
(-768.213 -1186.67 -102.274)
(-326.757 -1176.6 -108.768)
(31.4533 -1168.23 -109.496)
(431.696 -1166.48 -102.178)
(1163.49 -1061.44 -80.0409)
(1782.88 -408.153 -48.9055)
(1893.47 -248.413 -72.9936)
(1880.28 -121.871 -70.0875)
(1864.79 -9.32062 -80.3652)
(1910.95 35.2751 -82.2827)
(1980.45 63.7786 -84.4863)
(2062.55 83.0475 -94.645)
(2152.85 91.8678 -105.653)
(2254.75 97.6431 -109.731)
(2351.41 96.6821 -122.639)
(2529.66 92.692 -140.041)
(-1319.05 -386.893 -102.14)
(-1206.19 -481.157 -94.5383)
(-1206.64 -582.083 -95.0892)
(-1186.42 -796.617 -118.008)
(1773.65 -387.884 -86.467)
(2073.6 -121.437 -119.737)
(2074.97 -55.6969 -117.572)
(2064.23 6.71934 -114.03)
(2018.54 74.9867 -115.5)
(1974.53 163.734 -94.393)
(1997.58 207.765 -98.5113)
(2049.95 234.668 -111.52)
(2121.21 244.139 -123.141)
(2212.38 247.836 -128.89)
(2303.67 243.161 -147.372)
(2475.89 237.989 -166.564)
(-1368.59 -141.041 -100.481)
(-1279.6 -190.499 -92.7462)
(-1249.8 -221.927 -91.1067)
(-1172.07 -330.108 -103.211)
(2283.63 42.5924 -160.695)
(2390.52 111.346 -134.204)
(2383.92 108.101 -130.145)
(2372.15 122.438 -126.707)
(2333.97 150.972 -124.145)
(2249.26 196.701 -105.659)
(2180.14 277.21 -106.824)
(2190.66 324.539 -124.69)
(2230.47 350.418 -135.527)
(2294.03 370.075 -140.55)
(2367.23 375.859 -156.527)
(2519.39 373.204 -175.643)
(-1384.23 132.6 -107.206)
(-1282.29 120.06 -99.4932)
(-1229.51 113.834 -93.8531)
(-1166.82 29.1421 -106.207)
(2471.1 288.764 -157.972)
(2590.71 348.744 -125.649)
(2590.56 352.801 -119.072)
(2583.1 357.805 -116.516)
(2565.48 370.575 -117.596)
(2523.88 393.215 -111.365)
(2449.16 429.79 -94.8206)
(2387.2 486.586 -105.947)
(2389.08 516.767 -127.204)
(2417.29 531.875 -132.723)
(2461.36 536.64 -145.441)
(2580.01 524.722 -165.594)
(-1385.17 452.584 -108.989)
(-1294.74 506.261 -101.734)
(-1249.72 562.053 -97.0667)
(-1169.45 425.237 -107.169)
(2637.96 499.416 -147.274)
(2756.31 667.676 -119.304)
(2776.58 637.178 -115.809)
(2796.76 617.192 -107.306)
(2801.72 596.469 -107.135)
(2792.33 592.561 -106.943)
(2762.47 598.833 -104.222)
(2705.15 620.451 -91.1831)
(2653 628.807 -103.734)
(2644.41 634.622 -126.754)
(2654.67 639.403 -140.612)
(2713.51 640.45 -155.077)
(-1359.7 813.025 -111.684)
(-1206.14 996.877 -104.071)
(-1107.35 1179.4 -103.945)
(-1073.95 1156.13 -118.619)
(-389.197 1763.29 -130.284)
(10.7322 2262.92 -155.753)
(260.777 2460.13 -143.448)
(477.471 2640.77 -130.567)
(2207.17 2097.47 -83.865)
(2616.81 1416.76 -90.7504)
(2705.17 1233.48 -90.0149)
(2786.61 1139.24 -96.3114)
(2821.58 1051.34 -102.672)
(2861.39 994.258 -110.474)
(2879.68 940.044 -104.518)
(2857.54 916.155 -93.1571)
(2814.48 901.25 -89.0832)
(2792 876.022 -101.545)
(2792.74 850.833 -128.384)
(2834.52 826.454 -149.769)
(-1238.31 1107.43 -112.635)
(-964.298 1346.68 -103.308)
(-752.903 1525.74 -95.8513)
(-435.853 1777.9 -82.6359)
(-138.673 2065.65 -128.583)
(97.3604 2368.63 -136.359)
(336.391 2576.28 -118.53)
(665.357 2746.19 -101.87)
(1380.8 2597.88 -67.5963)
(2121.07 2144.68 -141.673)
(2397.6 1723.49 -73.495)
(2575.2 1563.98 -79.5136)
(2703.07 1470.59 -95.1845)
(2793.25 1381.36 -90.8755)
(2860.7 1300.36 -103.027)
(2901.94 1230.3 -100.063)
(2891.74 1180.84 -88.3498)
(2882.35 1136.72 -88.9559)
(2879.3 1091.51 -107.125)
(2924.63 1039.74 -135.215)
(-1092.31 1335.37 -116.822)
(-727.188 1571.36 -110.162)
(-518.183 1711.8 -106.87)
(-284.215 1894.16 -110.166)
(-73.6307 2062.5 -130.406)
(90.8072 2361.55 -136.244)
(337.815 2575.07 -119.618)
(628.538 2763.29 -105.431)
(1235.07 2718.35 -82.017)
(1682.46 2392.36 -63.3453)
(2089.69 2116.45 -110.571)
(2364.02 1885.42 -88.682)
(2537.83 1775.08 -59.3239)
(2660.99 1701.32 -67.5362)
(2753.23 1614.95 -101.328)
(2847.23 1535.79 -108.449)
(2878.03 1460.19 -91.2984)
(2912.48 1401.66 -76.4407)
(2916.29 1345.4 -82.2815)
(2973.05 1270.42 -115.057)
(-951.56 1502.81 -108.636)
(-544.637 1690.34 -95.2624)
(-349.976 1795.34 -86.7697)
(-161.129 1895.08 -107.766)
(-10.4529 2047.15 -131.12)
(101.143 2348.56 -135.921)
(342.63 2567.38 -121.392)
(605.702 2785.12 -106.402)
(1129.09 2787.52 -90.4368)
(1556.92 2582.34 -71.5228)
(1848.41 2365.54 -94.5077)
(2155.71 2177.12 -44.5939)
(2343.13 1979.02 5.15468)
(2472.2 1873.32 -30.9782)
(2589.16 1828.48 -66.7477)
(2723.62 1790.57 -83.6397)
(2797.44 1717.86 -77.5212)
(2873.64 1656.41 -60.6935)
(2892.13 1590.6 -69.0213)
(2972.31 1497.99 -107.239)
(-846.08 1646.39 -121.045)
(-427.27 1781.5 -111.631)
(-227.221 1841.15 -89.9145)
(-49.6115 1871.88 -110.982)
(54.3121 1995.15 -133.495)
(127.461 2306.79 -136.29)
(354.754 2547.02 -126.302)
(582.951 2790.08 -110.535)
(1036.9 2819.86 -102.688)
(1459.64 2707.91 -94.3376)
(1776.18 2547.3 -69.275)
(1967.77 2352.65 -8.04473)
(2138.68 2148.85 -32.5776)
(2292.25 2005.35 -45.1936)
(2437.95 1974.81 -49.6259)
(2612.82 2010.43 -69.8713)
(2716.04 1960.95 -64.3055)
(2811.94 1900.16 -62.4682)
(2838.16 1820.55 -73.1243)
(2941.87 1711.28 -104.253)
(-751.501 1763.01 -118.501)
(-353.204 1868.79 -113.733)
(-145.894 1900.23 -80.4221)
(11.6747 1911.15 -103.423)
(138.658 1951.51 -109.453)
(172.962 2216.42 -121.048)
(376.243 2500.42 -122.614)
(575.383 2777.02 -111.207)
(974.971 2858.55 -115.347)
(1366.7 2797.04 -99.1496)
(1699.02 2669.12 -76.3716)
(1888.42 2483.15 -34.6277)
(2012.64 2306.13 -44.251)
(2161.46 2169.6 -2.54655)
(2321.83 2119.14 -4.90338)
(2494.71 2130.49 -40.0043)
(2594.64 2081.79 -50.7028)
(2683.77 2044.37 -85.899)
(2719.45 1983.76 -84.5825)
(2860.93 1893.66 -94.915)
(-675.181 1873.78 -122.278)
(-322.291 1959.61 -119.1)
(-111.104 1975.9 -83.3431)
(50.5859 1980.26 -101.829)
(184.455 1976.5 -110.974)
(258.67 2147.05 -120.445)
(409.605 2421.51 -108.862)
(580.252 2743.29 -108.345)
(919.481 2870.35 -109.763)
(1281.51 2862.14 -113.235)
(1606.78 2760.03 -102.8)
(1839.34 2602.04 -54.2236)
(1998.14 2451.85 -43.2801)
(2128.17 2326.89 -8.87722)
(2268.86 2268.41 -48.8989)
(2417.32 2241.82 -96.5033)
(2504.22 2179.61 -101.571)
(2589.6 2158 -105.494)
(2654.26 2123.22 -53.1962)
(2822.57 2062.82 -55.3141)
(-636.837 1987.49 -131.139)
(-311.552 2053.13 -130.294)
(-97.6752 2064.06 -94.9091)
(74.7683 2062.54 -110.012)
(215.066 2032.62 -122.901)
(308.091 2159.94 -135.653)
(467.905 2361.07 -118.506)
(598.506 2684.18 -95.7622)
(895.61 2845.19 -97.1054)
(1210.49 2893.17 -100.349)
(1522.14 2846.37 -100.554)
(1787.57 2731.05 -70.446)
(2018.68 2624.49 -57.0549)
(2151.49 2505.46 -35.0349)
(2253.36 2423.3 -92.1692)
(2350.2 2346.61 -105.296)
(2427.73 2271.53 -87.4104)
(2515.61 2242.47 -47.1223)
(2601.22 2252.26 8.82452)
(2771.45 2238.52 -25.3226)
(-594.854 2093.3 -133.653)
(-300.669 2148.2 -138.005)
(-89.4715 2159.67 -105.4)
(87.3358 2153.09 -117.709)
(228.125 2107.45 -132.056)
(336.928 2202.17 -144.361)
(494.709 2366.22 -133.523)
(606.357 2632.9 -109.199)
(879.489 2799.25 -89.5921)
(1160.18 2877.24 -82.3307)
(1444.06 2870.52 -80.6847)