/*--------------------------------*- C++ -*----------------------------------*\
  =========                 |
  \\      /  F ield         | OpenFOAM: The Open Source CFD Toolbox
   \\    /   O peration     | Website:  https://openfoam.org
    \\  /    A nd           | Version:  9
     \\/     M anipulation  |
\*---------------------------------------------------------------------------*/
FoamFile
{
    format      ascii;
    class       volScalarField;
    location    "0.003";
    object      alpha.C4;
}
// * * * * * * * * * * * * * * * * * * * * * * * * * * * * * * * * * * * * * //

dimensions      [0 0 0 0 0 0 0];

internalField   nonuniform List<scalar> 
9720
(
0.995382
0.997547
0.997962
0.998391
0.9987
0.998883
0.999017
0.999114
0.999148
0.999095
0.998949
0.998713
0.99838
0.997921
0.997308
0.996466
0.995323
0.993676
0.991824
0.985578
0.997502
0.999019
0.999265
0.99949
0.999602
0.999653
0.999701
0.999742
0.999756
0.999744
0.999708
0.999631
0.999506
0.999322
0.999071
0.998711
0.99819
0.997382
0.996405
0.992484
0.997909
0.999248
0.999454
0.999628
0.999707
0.999735
0.99977
0.999803
0.999816
0.999801
0.999766
0.999707
0.99962
0.999499
0.999335
0.999102
0.998762
0.998209
0.997514
0.994454
0.998362
0.999477
0.999621
0.999453
0.999547
0.999567
0.999624
0.999674
0.999733
0.999831
0.999797
0.99974
0.999655
0.999536
0.999374
0.999148
0.998828
0.998318
0.997689
0.994907
0.998707
0.999611
0.999715
0.999553
0.999684
0.999738
0.999689
0.999623
0.999535
0.999409
0.999235
0.998988
0.998637
0.998082
0.997401
0.994453
0.998913
0.999673
0.99975
0.999588
0.999289
0.999174
0.999104
0.999012
0.998901
0.998757
0.99857
0.998299
0.997904
0.997269
0.996478
0.993219
0.999053
0.999723
0.999788
0.999654
0.998457
0.997572
0.997463
0.997318
0.997146
0.996955
0.996733
0.996418
0.995954
0.995202
0.994261
0.990622
0.999145
0.999762
0.999819
0.999702
0.996386
0.994034
0.99393
0.993771
0.993559
0.99329
0.992972
0.99257
0.99202
0.991162
0.990082
0.985995
0.99917
0.999776
0.999833
0.999759
0.999717
0.999348
0.998558
0.99657
0.989188
0.987358
0.987249
0.987187
0.987089
0.98689
0.986558
0.986062
0.985378
0.984381
0.983159
0.97871
0.999115
0.999764
0.999821
0.999852
0.999782
0.999345
0.998101
0.995109
0.988043
0.98316
0.980598
0.979231
0.978517
0.977978
0.977389
0.976624
0.975651
0.97437
0.972929
0.968169
0.998968
0.99973
0.999788
0.99982
0.999736
0.999263
0.99797
0.99502
0.988248
0.981006
0.975274
0.971179
0.968525
0.966761
0.965383
0.964054
0.96259
0.96082
0.959013
0.953916
0.998733
0.999654
0.999731
0.999764
0.999673
0.999163
0.997793
0.994817
0.988444
0.980125
0.971581
0.963908
0.957849
0.953525
0.950532
0.948165
0.94593
0.943487
0.941216
0.935694
0.998403
0.999531
0.999647
0.999682
0.999586
0.999048
0.997579
0.994517
0.988383
0.979707
0.969369
0.95832
0.948004
0.939596
0.933546
0.929096
0.925511
0.922142
0.919325
0.913139
0.997948
0.999351
0.999529
0.999565
0.999461
0.998905
0.997338
0.994132
0.988127
0.979265
0.967906
0.954489
0.940212
0.92685
0.91603
0.907535
0.901284
0.896253
0.892601
0.885528
0.99734
0.999104
0.999371
0.999409
0.99929
0.998717
0.997063
0.993689
0.987669
0.978655
0.966656
0.95177
0.934594
0.916608
0.899847
0.884805
0.873486
0.86511
0.860114
0.852151
0.996506
0.998753
0.999146
0.999192
0.99905
0.998444
0.996701
0.993169
0.987029
0.977804
0.965296
0.949352
0.930063
0.908154
0.885043
0.861909
0.843297
0.82938
0.822282
0.812961
0.995374
0.998243
0.99882
0.998886
0.998711
0.998049
0.996201
0.992524
0.986225
0.976731
0.963712
0.946874
0.92607
0.901437
0.87344
0.843232
0.816068
0.794319
0.783464
0.766838
0.993745
0.997454
0.998288
0.998399
0.998177
0.997419
0.995446
0.991603
0.985123
0.975348
0.961809
0.94417
0.922266
0.895851
0.864553
0.829002
0.794027
0.764469
0.745327
0.697107
0.991916
0.996499
0.997618
0.997797
0.997523
0.996642
0.994533
0.990495
0.983826
0.973819
0.959901
0.941747
0.919229
0.891924
0.859222
0.821481
0.782605
0.744731
0.701974
0.569246
0.985745
0.992651
0.994637
0.9951
0.994661
0.993444
0.99094
0.986427
0.979275
0.968885
0.954617
0.93607
0.91295
0.884779
0.851005
0.81144
0.764942
0.696065
0.570306
0.303049
0.997249
0.998704
0.998922
0.999167
0.999343
0.999441
0.99951
0.999555
0.999564
0.99953
0.999435
0.999277
0.999053
0.998735
0.998307
0.997698
0.996845
0.99559
0.994156
0.989114
0.998685
0.99963
0.999742
0.999847
0.999891
0.999908
0.999923
0.999934
0.999936
0.999928
0.99991
0.999872
0.999808
0.999706
0.99956
0.999335
0.998984
0.998411
0.997694
0.994618
0.998896
0.999735
0.999842
0.999932
0.999955
0.999961
0.999966
0.999972
0.999971
0.999959
0.999937
0.999904
0.999858
0.999792
0.999699
0.999556
0.999329
0.998933
0.998414
0.995973
0.999148
0.99984
0.99993
0.999991
0.999999
0.999999
0.999999
0.999999
0.999999
0.999982
0.999954
0.999918
0.99987
0.999801
0.999704
0.999559
0.999336
0.99896
0.998477
0.99621
0.999339
0.999892
0.999955
0.999999
0.99999
0.999839
0.999797
0.999745
0.999682
0.999603
0.999496
0.999332
0.999081
0.998663
0.998128
0.995693
0.99945
0.999913
0.999963
0.999999
0.999569
0.9989
0.998887
0.998849
0.998794
0.998723
0.998615
0.998426
0.998115
0.99759
0.996935
0.994199
0.999523
0.999929
0.999969
0.999999
0.997933
0.99634
0.996363
0.996343
0.996289
0.996223
0.996123
0.995938
0.995605
0.995013
0.994239
0.991116
0.999569
0.99994
0.999975
0.999999
0.994011
0.990965
0.99118
0.991323
0.991312
0.991256
0.991137
0.990925
0.990569
0.989951
0.989107
0.985724
0.999577
0.999943
0.999974
0.999999
0.999995
0.999754
0.998754
0.996132
0.984973
0.982458
0.982597
0.982812
0.983057
0.983151
0.983082
0.98286
0.982438
0.981741
0.980829
0.977291
0.999543
0.999937
0.999965
0.999986
0.999897
0.999249
0.997343
0.993245
0.983969
0.978027
0.975182
0.973648
0.973089
0.972803
0.972474
0.971977
0.971253
0.970248
0.969115
0.965386
0.999451
0.999921
0.999947
0.999963
0.999859
0.999217
0.997306
0.993347
0.984792
0.976212
0.969898
0.96544
0.962577
0.960815
0.959511
0.958312
0.957007
0.955447
0.953892
0.949803
0.999296
0.999886
0.999918
0.999932
0.99981
0.99916
0.997225
0.993296
0.985379
0.975743
0.966502
0.958452
0.952038
0.947421
0.944223
0.941814
0.939629
0.937326
0.935222
0.930565
0.999077
0.999825
0.999876
0.999889
0.999748
0.999077
0.997104
0.99316
0.985806
0.975886
0.964753
0.953246
0.942549
0.933798
0.927494
0.922953
0.919283
0.915881
0.913064
0.907506
0.998767
0.999729
0.999816
0.999827
0.999669
0.998973
0.996961
0.992951
0.985792
0.975867
0.963787
0.949849
0.935186
0.921696
0.910931
0.902562
0.896121
0.890745
0.8868
0.879981
0.998347
0.999591
0.999732
0.99974
0.999567
0.998837
0.996788
0.992674
0.985622
0.97566
0.962943
0.947518
0.930067
0.912309
0.896186
0.881806
0.870351
0.861323
0.855607
0.847393
0.997751
0.999378
0.999602
0.99961
0.999415
0.998633
0.996541
0.992316
0.985232
0.975136
0.961925
0.94551
0.926169
0.904843
0.88292
0.860885
0.84229
0.827652
0.819529
0.809667
0.996914
0.999045
0.999395
0.999411
0.999187
0.998323
0.996164
0.991834
0.984627
0.974283
0.960594
0.943385
0.922701
0.898801
0.87216
0.843286
0.816578
0.794049
0.781975
0.76615
0.995684
0.9985
0.999033
0.999071
0.998805
0.997823
0.995542
0.991101
0.983745
0.973091
0.958881
0.940949
0.919241
0.893557
0.863542
0.829396
0.795035
0.764683
0.745652
0.705023
0.994278
0.997815
0.998552
0.998629
0.998312
0.997207
0.994754
0.990178
0.982688
0.971782
0.957148
0.93867
0.916304
0.889651
0.858096
0.821563
0.78321
0.746055
0.7087
0.60054
0.989327
0.994837
0.996221
0.996482
0.995992
0.994572
0.991678
0.986691
0.9789
0.967694
0.952672
0.933681
0.91056
0.882856
0.849977
0.811507
0.766995
0.705428
0.601253
0.363054
0.998556
0.999458
0.999552
0.999658
0.999735
0.999775
0.999798
0.99981
0.999807
0.999784
0.999724
0.99962
0.999465
0.99924
0.99892
0.998456
0.997793
0.996786
0.995613
0.991359
0.999462
0.999962
0.999978
0.99999
0.999994
0.999995
0.999996
0.999997
0.999997
0.999996
0.999993
0.999984
0.999961
0.999912
0.999826
0.999675
0.99942
0.998975
0.998399
0.995817
0.999551
0.999978
0.999991
0.999998
0.999999
0.999999
0.999999
0.999999
0.999999
0.999998
0.999996
0.99999
0.999979
0.999956
0.999911
0.999822
0.999655
0.999335
0.998893
0.996767
0.999654
0.99999
0.999998
1
1
1
1
1
1
0.999994
0.999985
0.999974
0.999957
0.999928
0.999877
0.999783
0.999615
0.999299
0.998869
0.996827
0.999732
0.999994
0.999999
1
0.999989
0.999806
0.999762
0.99972
0.999684
0.999643
0.999578
0.999463
0.999266
0.998908
0.99843
0.996219
0.999774
0.999996
0.999999
1
0.99937
0.998622
0.998568
0.998502
0.99844
0.998395
0.998336
0.998218
0.997994
0.997579
0.997017
0.994549
0.999798
0.999997
0.999999
1
0.997425
0.99554
0.995473
0.995376
0.995254
0.995155
0.99508
0.994974
0.994765
0.99435
0.993749
0.991085
0.999811
0.999997
0.999999
1
0.992931
0.989553
0.989617
0.989575
0.989463
0.989311
0.989147
0.98896
0.988717
0.988309
0.987717
0.985012
0.999809
0.999997
0.999999
1
0.999992
0.999502
0.997802
0.993878
0.981073
0.979621
0.979815
0.980065
0.980329
0.980312
0.980197
0.979961
0.979609
0.979102
0.978467
0.975757
0.999786
0.999997
0.999999
0.999996
0.999842
0.998823
0.996036
0.990538
0.980244
0.974222
0.971566
0.970177
0.969661
0.969325
0.968956
0.968454
0.96777
0.966905
0.966009
0.963102
0.999728
0.999995
0.999997
0.999989
0.999808
0.998789
0.99601
0.990741
0.980817
0.972069
0.965978
0.961588
0.958726
0.957017
0.955799
0.954619
0.953304
0.9518
0.950376
0.94694
0.999626
0.999987
0.999992
0.99998
0.999774
0.99874
0.995951
0.990751
0.981426
0.971213
0.962119
0.954257
0.948072
0.943803
0.940873
0.938433
0.936084
0.933656
0.931496
0.927261
0.999474
0.999965
0.999983
0.999968
0.999743
0.998682
0.995861
0.990705
0.981953
0.971323
0.960042
0.948842
0.938833
0.930844
0.924903
0.920151
0.916083
0.912313
0.90927
0.904056
0.999254
0.99992
0.999964
0.999945
0.999707
0.998627
0.995774
0.990601
0.982271
0.971492
0.959092
0.945512
0.93186
0.919395
0.909051
0.900465
0.893532
0.887666
0.883463
0.876978
0.998941
0.99984
0.999925
0.999902
0.999651
0.998559
0.995696
0.990453
0.982223
0.971411
0.958397
0.943343
0.926924
0.910262
0.8949
0.880906
0.869218
0.859636
0.853528
0.845326
0.998487
0.999699
0.999846
0.999822
0.999552
0.998443
0.995583
0.990259
0.982025
0.971101
0.957578
0.941459
0.922998
0.902833
0.882286
0.861578
0.843279
0.828088
0.819073
0.808621
0.997838
0.999461
0.999698
0.999675
0.999381
0.998236
0.995378
0.99
0.981668
0.970503
0.956478
0.939469
0.919489
0.896735
0.871791
0.844777
0.819054
0.796282
0.782647
0.767362
0.99685
0.999043
0.999408
0.999393
0.999062
0.997859
0.994973
0.989573
0.981142
0.969657
0.955068
0.937242
0.916066
0.891404
0.863044
0.830825
0.797835
0.766936
0.74735
0.71707
0.995698
0.998495
0.999004
0.999004
0.998626
0.997342
0.99439
0.988976
0.980497
0.968764
0.953689
0.935191
0.913197
0.887442
0.857348
0.822475
0.785166
0.748516
0.718125
0.647388
0.991509
0.995995
0.996985
0.997079
0.996522
0.994973
0.991797
0.986272
0.977756
0.965832
0.950288
0.931073
0.908144
0.881149
0.849422
0.812375
0.770275
0.718702
0.647726
0.466271
0.998837
0.999594
0.999663
0.999741
0.999799
0.999827
0.999842
0.999849
0.999846
0.999825
0.999773
0.99968
0.99954
0.999333
0.999032
0.998593
0.997965
0.997005
0.995883
0.991784
0.999599
0.999997
0.999999
1
1
1
1
1
1
1
0.999999
0.999994
0.999977
0.999937
0.999861
0.999721
0.999481
0.999055
0.998499
0.995998
0.999665
0.999999
1
1
1
1
1
1
1
1
0.999999
0.999997
0.999992
0.999976
0.999939
0.999857
0.999699
0.999387
0.998954
0.99687
0.99974
1
1
1
1
1
1
1
1
0.999991
0.99998
0.999967
0.999953
0.99993
0.999886
0.999799
0.999638
0.999327
0.998901
0.996885
0.999797
1
1
1
0.999991
0.999703
0.999648
0.999597
0.999562
0.999528
0.999474
0.99937
0.999182
0.998834
0.998368
0.996221
0.999827
1
1
1
0.999097
0.998025
0.997981
0.997922
0.997863
0.997831
0.997802
0.997727
0.997554
0.997202
0.9967
0.994388
0.999842
1
1
1
0.99639
0.994214
0.994171
0.994094
0.993989
0.993894
0.993856
0.993812
0.993698
0.993413
0.992947
0.990615
0.999849
1
1
1
0.991199
0.987916
0.987922
0.987874
0.987752
0.987587
0.987419
0.987248
0.987082
0.986816
0.986405
0.984166
0.999846
1
1
1
0.999992
0.999259
0.996805
0.991784
0.978645
0.977779
0.978043
0.978332
0.978598
0.978568
0.978417
0.978128
0.97776
0.977321
0.976843
0.974627
0.999825
1
1
0.999994
0.999768
0.998335
0.994797
0.988299
0.977638
0.972101
0.969845
0.968765
0.968321
0.967953
0.967493
0.966887
0.966108
0.965212
0.9644
0.961883
0.999774
0.999999
0.999999
0.999985
0.999721
0.998298
0.994789
0.988617
0.978144
0.969707
0.964279
0.960449
0.95779
0.956089
0.954826
0.953563
0.952128
0.950514
0.94906
0.945806
0.999682
0.999995
0.999998
0.999976
0.999678
0.998246
0.994753
0.988796
0.978824
0.968657
0.960243
0.953047
0.947233
0.943242
0.940522
0.938102
0.9356
0.932927
0.93056
0.926253
0.999543
0.999978
0.999993
0.999965
0.999651
0.998196
0.994685
0.98878
0.979422
0.968764
0.957907
0.94728
0.937928
0.930711
0.925347
0.920702
0.916332
0.912065
0.908599
0.903151
0.999338
0.99994
0.999979
0.999946
0.999623
0.998164
0.994614
0.988708
0.979862
0.968971
0.956807
0.943751
0.931065
0.919862
0.910464
0.901981
0.894416
0.887758
0.88301
0.876286
0.999042
0.999867
0.999946
0.999909
0.999576
0.998133
0.994586
0.988605
0.979848
0.968896
0.956061
0.941567
0.926264
0.911083
0.896808
0.883005
0.870646
0.860195
0.853469
0.845034
0.998612
0.999736
0.999873
0.999834
0.999485
0.998062
0.994547
0.988484
0.979706
0.968596
0.95521
0.939635
0.922214
0.903367
0.883907
0.863777
0.845178
0.829225
0.819484
0.808963
0.997996
0.999509
0.999731
0.99969
0.999319
0.997905
0.994442
0.988355
0.979457
0.968037
0.954095
0.937546
0.918355
0.896528
0.872561
0.846408
0.820838
0.797686
0.783489
0.769122
0.997053
0.999106
0.999445
0.999408
0.999004
0.997581
0.994179
0.988124
0.979134
0.967338
0.952763
0.935251
0.914553
0.890482
0.863004
0.83162
0.799028
0.768013
0.74835
0.724386
0.995947
0.998576
0.999044
0.999018
0.998575
0.99711
0.99374
0.987747
0.978746
0.966699
0.95158
0.933252
0.911527
0.886216
0.85682
0.822583
0.785724
0.749317
0.722652
0.673349
0.9919
0.996143
0.997056
0.997105
0.996523
0.99487
0.991469
0.985574
0.976663
0.964464
0.948809
0.92961
0.906823
0.880187
0.848976
0.812567
0.771805
0.725654
0.673315
0.53362
0.998866
0.999608
0.999674
0.999749
0.999805
0.999832
0.999846
0.999853
0.99985
0.999829
0.999777
0.999686
0.999547
0.999339
0.999036
0.998594
0.997962
0.996996
0.995869
0.991761
0.999606
0.999998
0.999999
1
1
1
1
1
1
1
0.999999
0.999995
0.999978
0.999937
0.99986
0.999717
0.999473
0.999039
0.998475
0.995953
0.999672
0.999999
1
1
1
1
1
1
1
1
0.999999
0.999997
0.999992
0.999976
0.999939
0.999856
0.999695
0.999376
0.998934
0.996823
0.999747
1
1
1
1
1
1
1
1
0.999991
0.999977
0.999961
0.999944
0.99992
0.999875
0.999786
0.99962
0.999302
0.998869
0.99683
0.999804
1
1
1
0.999989
0.999653
0.999573
0.999502
0.999455
0.99942
0.999368
0.999266
0.99908
0.998732
0.998267
0.996125
0.999832
1
1
1
0.998826
0.99752
0.997489
0.997445
0.997404
0.997394
0.997389
0.997342
0.997197
0.996873
0.996399
0.994161
0.999847
1
1
1
0.995434
0.992886
0.992931
0.992928
0.992909
0.992894
0.992928
0.99296
0.992926
0.992741
0.992359
0.990187
0.999853
1
1
1
0.989519
0.985739
0.985934
0.986056
0.98605
0.986019
0.985987
0.985945
0.985904
0.985786
0.985512
0.983543
0.99985
1
1
1
0.999991
0.999098
0.996202
0.990723
0.976863
0.975899
0.976083
0.976354
0.976658
0.976765
0.976713
0.976554
0.976319
0.976029
0.975701
0.973832
0.999829
1
1
0.999992
0.99972
0.998014
0.994123
0.987541
0.976507
0.970719
0.968325
0.967146
0.966645
0.966287
0.965859
0.965309
0.964616
0.963832
0.963159
0.960989
0.999778
0.999999
0.999999
0.999981
0.999657
0.997972
0.994112
0.987857
0.977215
0.968627
0.963196
0.959345
0.956558
0.954729
0.953413
0.952165
0.950786
0.949249
0.947893
0.944924
0.999687
0.999995
0.999998
0.999968
0.999601
0.997919
0.994077
0.987962
0.97796
0.967842
0.959516
0.952349
0.94634
0.942169
0.939467
0.937133
0.934672
0.931983
0.929616
0.925485
0.999549
0.999979
0.999993
0.999955
0.999564
0.997871
0.99402
0.987929
0.978585
0.968003
0.957296
0.946689
0.937197
0.930045
0.924981
0.920528
0.916074
0.911546
0.907919
0.902551
0.999345
0.99994
0.999979
0.999936
0.999533
0.997846
0.99396
0.987841
0.978972
0.968196
0.956179
0.943174
0.9306
0.919866
0.911007
0.90268
0.894751
0.887539
0.882543
0.8759
0.999048
0.999867
0.999945
0.999897
0.999487
0.997827
0.993954
0.987738
0.978941
0.968095
0.955386
0.941041
0.926101
0.911604
0.897898
0.884069
0.871118
0.860084
0.853188
0.844912
0.998617
0.999733
0.999871
0.999819
0.999396
0.997768
0.993939
0.987627
0.978776
0.967741
0.954465
0.93911
0.922142
0.903891
0.884766
0.864371
0.845276
0.829051
0.819337
0.809167
0.998
0.999504
0.999724
0.999671
0.999228
0.997619
0.993865
0.987524
0.978517
0.967114
0.953261
0.936937
0.9181
0.896547
0.872572
0.846158
0.820435
0.79737
0.78349
0.769867
0.997056
0.999095
0.999432
0.999381
0.998909
0.997305
0.993641
0.987338
0.978198
0.966356
0.951837
0.934491
0.913968
0.889909
0.862334
0.830885
0.798405
0.767784
0.748548
0.726535
0.995952
0.998559
0.999022
0.998982
0.998478
0.996849
0.993242
0.987008
0.977832
0.965703
0.950601
0.932372
0.910732
0.885436
0.856068
0.821917
0.785327
0.749316
0.723678
0.679815
0.991912
0.996119
0.997012
0.997048
0.996428
0.994661
0.991068
0.984957
0.975859
0.963542
0.947857
0.928708
0.906022
0.879539
0.848533
0.812398
0.772172
0.727476
0.679622
0.552519
0.998866
0.999609
0.999675
0.99975
0.999805
0.999832
0.999846
0.999853
0.99985
0.999829
0.999777
0.999686
0.999547
0.999338
0.999035
0.998592
0.997957
0.996987
0.995855
0.991738
0.999606
0.999998
0.999999
1
1
1
1
1
1
1
0.999999
0.999995
0.999978
0.999937
0.999858
0.999714
0.999466
0.999026
0.998454
0.995915
0.999671
0.999999
1
1
1
1
1
1
1
1
0.999999
0.999997
0.999992
0.999976
0.999938
0.999853
0.999688
0.999363
0.998912
0.996778
0.999746
1
1
1
1
1
1
1
1
0.99999
0.999975
0.999958
0.999941
0.999916
0.999869
0.999777
0.999607
0.999281
0.998839
0.996775
0.999803
1
1
1
0.999989
0.999634
0.999548
0.999473
0.999424
0.999388
0.999335
0.999233
0.999043
0.998689
0.998216
0.996056
0.999832
1
1
1
0.998667
0.997354
0.997329
0.99729
0.997253
0.997254
0.997259
0.997223
0.997086
0.996767
0.996296
0.994051
0.999847
1
1
1
0.994623
0.992412
0.992486
0.992512
0.99251
0.992526
0.992589
0.99266
0.992647
0.992502
0.992152
0.990008
0.999853
1
1
1
0.987961
0.984829
0.98507
0.98524
0.985316
0.985322
0.985342
0.985365
0.985389
0.985345
0.985136
0.983247
0.99985
1
1
1
0.999981
0.998836
0.995632
0.990146
0.976213
0.975017
0.975128
0.975347
0.975615
0.975798
0.975779
0.975678
0.975521
0.975329
0.975081
0.973327
0.999829
1
1
0.99999
0.999668
0.997796
0.993749
0.987243
0.976252
0.970124
0.967383
0.965981
0.965375
0.965026
0.964619
0.964096
0.963455
0.962765
0.962186
0.960181
0.999778
0.999999
0.999999
0.999977
0.999608
0.997778
0.993766
0.987536
0.976984
0.968226
0.962404
0.958185
0.955189
0.953272
0.951911
0.950642
0.949279
0.947813
0.946557
0.943801
0.999688
0.999995
0.999998
0.999964
0.999554
0.997747
0.993757
0.987612
0.977691
0.967501
0.958865
0.951321
0.945006
0.940649
0.937855
0.935474
0.932994
0.930327
0.928028
0.924113
0.99955
0.999979
0.999992
0.99995
0.999521
0.997718
0.993729
0.987579
0.978279
0.967646
0.95672
0.945793
0.935992
0.928661
0.923537
0.919034
0.914499
0.909886
0.906243
0.901039
0.999346
0.99994
0.999978
0.99993
0.999494
0.99771
0.993693
0.987497
0.978568
0.967733
0.95558
0.942334
0.929539
0.918704
0.909795
0.901391
0.893341
0.885966
0.880892
0.87434
0.99905
0.999866
0.999943
0.99989
0.999448
0.997702
0.993706
0.987397
0.978515
0.967591
0.954743
0.940219
0.925161
0.910595
0.896821
0.882889
0.869808
0.858615
0.85161
0.843335
0.998619
0.999732
0.999867
0.999809
0.999357
0.997653
0.993708
0.98729
0.978333
0.967185
0.95377
0.938276
0.92124
0.902922
0.883704
0.86322
0.844043
0.827692
0.817836
0.80753
0.998002
0.9995
0.999717
0.999657
0.999186
0.99751
0.99365
0.987196
0.978072
0.966523
0.952526
0.936077
0.917172
0.895542
0.871468
0.845002
0.819268
0.79612
0.782012
0.768102
0.997058
0.999087
0.999419
0.999361
0.998863
0.997197
0.993437
0.987021
0.977755
0.965749
0.951079
0.9336
0.91298
0.888832
0.861172
0.829734
0.797305
0.766607
0.747072
0.724667
0.995954
0.998548
0.999002
0.998954
0.998426
0.99674
0.993041
0.986696
0.977385
0.965083
0.949816
0.93144
0.909681
0.884312
0.854915
0.820814
0.784297
0.748207
0.722291
0.678024
0.991918
0.996103
0.996978
0.997005
0.996362
0.994549
0.990866
0.98464
0.975391
0.962887
0.94702
0.927716
0.904929
0.878417
0.847445
0.8114
0.771265
0.726562
0.678609
0.551476
0.99884
0.999599
0.999667
0.999743
0.9998
0.999827
0.999842
0.99985
0.999846
0.999825
0.999772
0.999679
0.999538
0.999329
0.999024
0.998579
0.997942
0.996967
0.99583
0.991693
0.999596
0.999997
0.999999
1
1
1
1
1
1
1
0.999999
0.999994
0.999977
0.999935
0.999856
0.99971
0.99946
0.999016
0.99844
0.995886
0.999662
0.999999
1
1
1
1
1
1
1
1
0.999999
0.999997
0.999991
0.999975
0.999936
0.999849
0.999682
0.999352
0.998898
0.996752
0.999738
1
1
1
1
1
1
1
1
0.999991
0.999979
0.999964
0.999948
0.999923
0.999876
0.999782
0.99961
0.99928
0.998832
0.996753
0.999796
1
1
1
0.99999
0.999675
0.999602
0.999538
0.999497
0.999464
0.999409
0.9993
0.999102
0.998736
0.99825
0.996053
0.999827
1
1
1
0.998714
0.997666
0.997625
0.997572
0.997524
0.997512
0.997503
0.997446
0.997285
0.996937
0.996435
0.994101
0.999842
1
1
1
0.994915
0.993104
0.993099
0.993075
0.993027
0.992993
0.993028
0.993056
0.993013
0.992805
0.992389
0.990108
0.999849
1
1
1
0.988361
0.9856
0.985792
0.985892
0.985879
0.985836
0.9858
0.985777
0.98576
0.985657
0.985377
0.983322
0.999846
1
1
1
0.999991
0.998948
0.995733
0.989984
0.975804
0.97491
0.975135
0.975474
0.975812
0.976001
0.975959
0.975832
0.975663
0.975456
0.975174
0.973277
0.999825
1
1
0.999993
0.99973
0.99803
0.994021
0.987144
0.975728
0.969494
0.966755
0.965372
0.964887
0.964627
0.964284
0.963804
0.963188
0.962528
0.961951
0.959874
0.999773
0.999999
0.999999
0.999982
0.999667
0.997995
0.994045
0.987446
0.976471
0.96745
0.96142
0.957034
0.954086
0.952323
0.95108
0.949868
0.948529
0.947095
0.945874
0.943126
0.999681
0.999994
0.999998
0.99997
0.999615
0.997951
0.994035
0.987644
0.977267
0.966737
0.957723
0.949897
0.943616
0.939384
0.936555
0.934092
0.931596
0.929008
0.926817
0.922997
0.999541
0.999978
0.999992
0.999957
0.999586
0.997915
0.994003
0.987646
0.9779
0.966877
0.955582
0.944439
0.934602
0.927018
0.921452
0.916667
0.912171
0.907843
0.90446
0.899409
0.999335
0.999938
0.999978
0.999937
0.999558
0.997904
0.993972
0.987607
0.978359
0.967117
0.954587
0.941111
0.927955
0.916363
0.906698
0.89796
0.890152
0.8833
0.878555
0.872124
0.999038
0.999863
0.999942
0.999896
0.99951
0.997892
0.993991
0.987548
0.978356
0.967043
0.953883
0.939044
0.923294
0.90768
0.893036
0.878849
0.86618
0.855532
0.848781
0.840522
0.998605
0.999727
0.999864
0.999814
0.999414
0.997834
0.993993
0.98748
0.978244
0.966748
0.953044
0.937156
0.919295
0.899915
0.879929
0.859321
0.840487
0.824453
0.814668
0.804077
0.997985
0.999493
0.999713
0.999661
0.999237
0.99768
0.993926
0.987406
0.978039
0.9662
0.951929
0.935072
0.915447
0.893021
0.868428
0.841859
0.816257
0.793058
0.778544
0.763743
0.997037
0.999077
0.999412
0.999363
0.998905
0.99735
0.993687
0.987229
0.977764
0.965519
0.950589
0.932756
0.911638
0.886988
0.858932
0.827322
0.794827
0.763667
0.743402
0.718673
0.99593
0.998535
0.998994
0.998953
0.998458
0.996867
0.993255
0.986885
0.977412
0.964893
0.949383
0.930707
0.908583
0.882788
0.852994
0.818687
0.781917
0.745255
0.717955
0.667799
0.991881
0.99608
0.996963
0.996992
0.996366
0.994603
0.990976
0.984742
0.975388
0.9627
0.9466
0.927008
0.903848
0.876883
0.845498
0.809134
0.768447
0.722159
0.66965
0.530358
0.998561
0.999465
0.999558
0.999662
0.999738
0.999776
0.999799
0.999812
0.999809
0.999784
0.999724
0.999619
0.999462
0.999234
0.998908
0.998434
0.997756
0.996726
0.995528
0.9912
0.999459
0.999963
0.999979
0.999991
0.999994
0.999996
0.999996
0.999997
0.999997
0.999996
0.999994
0.999984
0.99996
0.999909
0.999819
0.999661
0.999392
0.998924
0.998321
0.995656
0.999547
0.999978
0.999991
0.999998
0.999999
0.999999
0.999999
0.999999
0.999999
0.999998
0.999996
0.99999
0.999979
0.999956
0.999907
0.999811
0.999633
0.99929
0.99882
0.996609
0.99965
0.99999
0.999998
1
1
1
1
1
1
0.999994
0.999985
0.999972
0.999955
0.999924
0.99987
0.999768
0.999587
0.999248
0.998789
0.996661
0.999729
0.999994
0.999999
1
0.999992
0.999777
0.999725
0.999676
0.999635
0.999589
0.99952
0.999398
0.999187
0.998805
0.998298
0.996009
0.999773
0.999995
0.999999
1
0.999039
0.9983
0.998255
0.998195
0.998136
0.998097
0.998051
0.997945
0.997724
0.997298
0.996715
0.994179
0.999797
0.999996
0.999999
1
0.995955
0.994502
0.994467
0.994402
0.99431
0.994246
0.994222
0.994171
0.99402
0.993652
0.993073
0.990409
0.99981
0.999997
0.999999
1
0.989871
0.987461
0.987656
0.987656
0.987608
0.987524
0.987437
0.987343
0.987208
0.98692
0.986425
0.983852
0.999808
0.999997
0.999999
1
0.999989
0.999191
0.996475
0.990853
0.976687
0.97663
0.976865
0.977184
0.97749
0.977642
0.977587
0.977436
0.977194
0.976841
0.97636
0.97395
0.999784
0.999996
0.999998
0.999995
0.999804
0.998559
0.995263
0.988899
0.977369
0.97092
0.968159
0.966713
0.966208
0.965961
0.965659
0.965211
0.964587
0.963832
0.96309
0.960565
0.999725
0.999994
0.999996
0.999987
0.999764
0.998525
0.995235
0.989173
0.978159
0.968737
0.962395
0.957874
0.954968
0.953278
0.952074
0.950889
0.94956
0.948081
0.946758
0.943683
0.999622
0.999985
0.999991
0.999976
0.999723
0.998471
0.99517
0.98919
0.978926
0.968054
0.958538
0.950458
0.944188
0.93988
0.936863
0.934308
0.931856
0.929376
0.927256
0.923309
0.999468
0.999962
0.999981
0.999961
0.999687
0.998411
0.995071
0.989137
0.979538
0.968217
0.956488
0.945028
0.934865
0.926693
0.920497
0.9155
0.911246
0.907375
0.904342
0.899343
0.999244
0.999915
0.99996
0.999935
0.999647
0.99836
0.994983
0.989021
0.979886
0.968458
0.95559
0.941675
0.927699
0.914879
0.904187
0.895269
0.888046
0.881994
0.877753
0.871425
0.998927
0.99983
0.999917
0.999887
0.999586
0.9983
0.994921
0.988874
0.979837
0.968386
0.954911
0.939473
0.922554
0.905374
0.889581
0.875179
0.863097
0.853224
0.847026
0.838934
0.998466
0.999682
0.999831
0.999798
0.999477
0.998187
0.994833
0.988709
0.979649
0.968077
0.954074
0.937526
0.918467
0.897647
0.876546
0.855372
0.836617
0.821039
0.811867
0.801449
0.997807
0.999432
0.99967
0.999636
0.999288
0.997974
0.994653
0.988505
0.979331
0.967485
0.952945
0.93548
0.91489
0.891431
0.865841
0.838293
0.81213
0.788946
0.775008
0.759551
0.996808
0.998995
0.999358
0.99933
0.998941
0.997578
0.99428
0.988155
0.978882
0.966679
0.951539
0.933238
0.91148
0.886137
0.85715
0.824418
0.791053
0.759703
0.739666
0.708938
0.995645
0.998429
0.998928
0.998913
0.998476
0.997035
0.993714
0.987625
0.978325
0.96586
0.950206
0.931215
0.908672
0.882297
0.851649
0.816398
0.778772
0.741603
0.710739
0.639751
0.991425
0.995877
0.99684
0.99691
0.996308
0.994612
0.991121
0.985043
0.975798
0.963163
0.947007
0.927247
0.903766
0.876224
0.844058
0.806752
0.764442
0.712659
0.642091
0.462494
0.997264
0.998719
0.998938
0.999181
0.999357
0.999453
0.999522
0.999566
0.99957
0.999535
0.999439
0.99928
0.999053
0.998732
0.998297
0.997678
0.996809
0.99553
0.994067
0.988933
0.998691
0.999639
0.99975
0.999851
0.999895
0.999913
0.999927
0.999938
0.999938
0.999931
0.999912
0.999873
0.999808
0.999704
0.999554
0.999321
0.998956
0.998359
0.997613
0.994443
0.998896
0.99974
0.999847
0.999934
0.999957
0.999963
0.999969
0.999974
0.999972
0.999961
0.999939
0.999905
0.999858
0.99979
0.999693
0.999542
0.999301
0.998882
0.998335
0.995801
0.999138
0.99984
0.999931
1
1
1
1
1
1
0.999982
0.999955
0.999918
0.999869
0.999798
0.999697
0.999543
0.999306
0.998905
0.998393
0.996031
0.999325
0.999888
0.999954
1
0.999993
0.999858
0.999808
0.999748
0.999679
0.999587
0.999468
0.999291
0.999023
0.998577
0.998011
0.995472
0.999437
0.999908
0.999961
1
0.999407
0.998951
0.998898
0.99882
0.99873
0.998634
0.998509
0.998306
0.997978
0.997423
0.996718
0.993857
0.999512
0.999923
0.999967
1
0.997219
0.996267
0.996229
0.996141
0.996014
0.995893
0.995762
0.995559
0.995214
0.994599
0.993789
0.990559
0.999558
0.999936
0.999973
1
0.99217
0.990571
0.99078
0.990766
0.990684
0.990546
0.990365
0.990112
0.989733
0.989098
0.988237
0.984789
0.999569
0.999939
0.999973
1
0.999995
0.999478
0.99766
0.993507
0.980771
0.981062
0.981294
0.981548
0.981803
0.981865
0.981779
0.981523
0.981053
0.980314
0.979382
0.975827
0.999535
0.999933
0.999963
0.999984
0.999874
0.999095
0.996819
0.992028
0.981941
0.975742
0.97295
0.971522
0.971112
0.970901
0.970607
0.970099
0.969311
0.96822
0.967035
0.963287
0.999443
0.999917
0.999943
0.999959
0.999826
0.999041
0.996743
0.992038
0.98259
0.973548
0.967104
0.962718
0.959997
0.958338
0.957068
0.955854
0.954475
0.952793
0.951144
0.947
0.999287
0.99988
0.999913
0.999926
0.999769
0.998962
0.996623
0.991963
0.983111
0.97275
0.963305
0.955279
0.948925
0.944354
0.941151
0.938715
0.936444
0.933998
0.931767
0.927012
0.999066
0.999819
0.999869
0.99988
0.9997
0.998865
0.996467
0.991794
0.983521
0.972857
0.961315
0.949652
0.938884
0.930132
0.923814
0.919257
0.915496
0.91192
0.908916
0.90319
0.998753
0.99972
0.999806
0.999813
0.999616
0.998755
0.996306
0.991559
0.983512
0.972844
0.960239
0.945928
0.931058
0.917512
0.906758
0.898405
0.891829
0.886201
0.881975
0.8749
0.998329
0.999578
0.999716
0.99972
0.999507
0.998617
0.99613
0.991277
0.983364
0.97266
0.959344
0.943402
0.925652
0.907794
0.891714
0.877389
0.865707
0.856227
0.850088
0.841557
0.997725
0.999357
0.999577
0.999579
0.999344
0.99841
0.995889
0.990935
0.98301
0.972169
0.958314
0.941327
0.92166
0.900239
0.878359
0.85636
0.837435
0.822135
0.813416
0.803204
0.996877
0.999011
0.999355
0.999362
0.999098
0.99809
0.995521
0.99049
0.982455
0.971355
0.956999
0.939214
0.918197
0.894211
0.867553
0.838511
0.811275
0.788133
0.775585
0.759355
0.995631
0.998445
0.998968
0.998995
0.998687
0.997565
0.994911
0.989808
0.981646
0.970219
0.95533
0.936842
0.914791
0.888974
0.858845
0.824303
0.789334
0.75849
0.739165
0.698178
0.994206
0.997736
0.998457
0.99852
0.998161
0.996915
0.994127
0.988928
0.980657
0.968975
0.953658
0.934635
0.911902
0.885044
0.853294
0.816424
0.777614
0.740001
0.702496
0.594529
0.989191
0.994681
0.996038
0.996275
0.995738
0.994182
0.991008
0.985508
0.977012
0.965065
0.949364
0.929817
0.906294