/*--------------------------------*- C++ -*----------------------------------*\
  =========                 |
  \\      /  F ield         | OpenFOAM: The Open Source CFD Toolbox
   \\    /   O peration     | Website:  https://openfoam.org
    \\  /    A nd           | Version:  9
     \\/     M anipulation  |
\*---------------------------------------------------------------------------*/
FoamFile
{
    format      ascii;
    class       volScalarField;
    location    "0.003";
    object      p;
}
// * * * * * * * * * * * * * * * * * * * * * * * * * * * * * * * * * * * * * //

dimensions      [1 -1 -2 0 0 0 0];

internalField   nonuniform List<scalar> 
9720
(
1.86229e+07
2.15747e+07
2.35161e+07
2.48594e+07
2.6018e+07
2.63488e+07
2.59951e+07
2.35359e+07
1.95635e+07
1.60692e+07
1.31841e+07
1.09998e+07
9.39302e+06
8.23755e+06
7.30867e+06
6.57388e+06
5.96193e+06
5.3584e+06
4.86569e+06
4.16601e+06
2.15304e+07
2.47537e+07
2.6639e+07
2.72944e+07
2.84677e+07
2.9344e+07
2.88378e+07
2.47983e+07
1.79559e+07
1.27063e+07
9.87336e+06
8.31751e+06
7.273e+06
6.51028e+06
5.87574e+06
5.34672e+06
4.87811e+06
4.41064e+06
4.01739e+06
3.44747e+06
2.34124e+07
2.65505e+07
2.84173e+07
2.74937e+07
2.86229e+07
3.06154e+07
3.05436e+07
2.53468e+07
1.54277e+07
9.01075e+06
7.15912e+06
6.66503e+06
6.41153e+06
6.13634e+06
5.79494e+06
5.42469e+06
5.02733e+06
4.59851e+06
4.21452e+06
3.63166e+06
2.47868e+07
2.7255e+07
2.75399e+07
2.53993e+07
2.32086e+07
3.08357e+07
3.43026e+07
3.06879e+07
1.58075e+07
4.29202e+06
4.47671e+06
4.85445e+06
5.17033e+06
5.24406e+06
5.18083e+06
5.03617e+06
4.81019e+06
4.49548e+06
4.17378e+06
3.63502e+06
2.59871e+07
2.845e+07
2.8618e+07
2.34808e+07
3.32905e+06
2.95134e+06
3.37724e+06
4.0912e+06
4.86046e+06
5.31686e+06
5.29077e+06
5.14892e+06
4.89218e+06
4.52552e+06
4.17336e+06
3.60828e+06
2.62978e+07
2.92625e+07
3.04833e+07
3.08333e+07
3.30479e+06
3.38488e+06
3.54794e+06
3.92736e+06
4.46824e+06
5.00866e+06
5.1583e+06
5.09385e+06
4.90236e+06
4.55955e+06
4.19385e+06
3.59856e+06
2.58314e+07
2.85512e+07
3.00803e+07
3.39705e+07
3.76179e+06
3.82476e+06
3.8983e+06
4.03931e+06
4.32889e+06
4.72698e+06
5.02103e+06
5.01436e+06
4.90222e+06
4.61078e+06
4.24344e+06
3.59708e+06
2.32337e+07
2.42665e+07
2.45773e+07
2.96112e+07
4.20835e+06
3.74714e+06
3.8346e+06
3.95273e+06
4.13805e+06
4.45375e+06
4.82771e+06
4.97483e+06
4.94545e+06
4.78604e+06
4.47477e+06
3.7478e+06
1.9241e+07
1.74674e+07
1.48836e+07
1.45499e+07
3.08405e+06
3.32822e+06
3.81438e+06
4.26309e+06
1.07433e+06
1.59468e+06
2.24402e+06
2.75273e+06
3.16501e+06
3.58206e+06
4.03499e+06
4.47161e+06
4.66043e+06
4.62166e+06
4.4555e+06
3.86923e+06
1.57815e+07
1.23759e+07
8.77784e+06
4.27788e+06
3.00916e+06
3.4277e+06
3.88521e+06
3.82422e+06
1.75528e+06
977883
1.16252e+06
1.59748e+06
2.10459e+06
2.61102e+06
3.12533e+06
3.63431e+06
4.05758e+06
4.23412e+06
4.20503e+06
3.82937e+06
1.29439e+07
9.64542e+06
7.01787e+06
4.46511e+06
3.44133e+06
3.60698e+06
3.96694e+06
3.90964e+06
2.42873e+06
1.22816e+06
954127
1.05617e+06
1.35109e+06
1.77601e+06
2.26646e+06
2.78163e+06
3.27374e+06
3.65767e+06
3.79389e+06
3.63045e+06
1.08128e+07
8.14378e+06
6.54229e+06
4.81704e+06
4.12221e+06
3.9886e+06
4.11913e+06
4.03959e+06
2.91972e+06
1.72412e+06
1.09796e+06
966022
1.00889e+06
1.20382e+06
1.58418e+06
2.05861e+06
2.53405e+06
2.99227e+06
3.31508e+06
3.28859e+06
9.25007e+06
7.13787e+06
6.29855e+06
5.10275e+06
4.84086e+06
4.50302e+06
4.40682e+06
4.24507e+06
3.32821e+06
2.26036e+06
1.45383e+06
1.03864e+06
992635
1.04468e+06
1.22927e+06
1.54817e+06
1.9465e+06
2.41017e+06
2.82099e+06
2.85597e+06
8.12674e+06
6.40284e+06
6.03684e+06
5.17384e+06
5.26056e+06
5.00637e+06
4.77884e+06
4.5688e+06
3.74894e+06
2.78411e+06
1.92401e+06
1.28987e+06
1.06995e+06
1.07452e+06
1.14093e+06
1.29903e+06
1.59289e+06
2.00064e+06
2.32864e+06
2.31849e+06
7.2208e+06
5.78865e+06
5.70982e+06
5.11339e+06
5.23127e+06
5.14452e+06
5.03744e+06
4.91201e+06
4.20817e+06
3.3084e+06
2.43534e+06
1.71482e+06
1.30194e+06
1.16054e+06
1.16367e+06
1.26317e+06
1.42448e+06
1.62839e+06
1.72455e+06
1.7956e+06
6.50288e+06
5.27582e+06
5.35366e+06
4.97801e+06
5.09065e+06
5.07999e+06
5.02614e+06
5.02652e+06
4.62379e+06
3.82142e+06
2.96173e+06
2.21646e+06
1.66346e+06
1.36154e+06
1.28819e+06
1.28951e+06
1.28086e+06
1.29528e+06
1.3743e+06
1.69145e+06
5.90335e+06
4.81963e+06
4.96871e+06
4.76345e+06
4.84079e+06
4.89432e+06
4.91038e+06
4.99057e+06
4.7557e+06
4.22844e+06
3.46219e+06
2.71592e+06
2.09791e+06
1.70203e+06
1.50283e+06
1.31481e+06
1.22593e+06
1.24931e+06
1.37049e+06
1.87273e+06
5.3093e+06
4.36161e+06
4.55031e+06
4.45915e+06
4.48576e+06
4.55578e+06
4.6206e+06
4.81572e+06
4.6996e+06
4.35463e+06
3.83311e+06
3.1883e+06
2.58816e+06
2.15166e+06
1.76016e+06
1.36087e+06
1.27571e+06
1.33654e+06
1.60387e+06
3.03391e+06
4.82299e+06
3.9744e+06
4.17304e+06
4.14314e+06
4.14213e+06
4.19084e+06
4.25924e+06
4.48523e+06
4.51581e+06
4.30811e+06
3.92806e+06
3.47553e+06
2.98479e+06
2.48377e+06
1.87264e+06
1.45403e+06
1.42678e+06
1.62761e+06
2.59992e+06
5.39129e+06
4.1317e+06
3.41247e+06
3.59744e+06
3.6076e+06
3.58287e+06
3.5924e+06
3.61639e+06
3.75211e+06
3.89166e+06
3.89218e+06
3.72744e+06
3.41753e+06
2.99543e+06
2.46506e+06
1.93017e+06
1.79782e+06
1.9603e+06
3.07407e+06
5.40308e+06
8.06943e+06
1.69948e+07
1.97161e+07
2.15136e+07
2.27063e+07
2.36822e+07
2.38859e+07
2.34632e+07
2.11187e+07
1.74615e+07
1.42642e+07
1.16732e+07
9.70993e+06
8.26819e+06
7.24744e+06
6.42075e+06
5.77805e+06
5.25189e+06
4.72386e+06
4.28919e+06
3.6798e+06
1.96827e+07
2.26832e+07
2.44379e+07
2.47936e+07
2.58155e+07
2.6698e+07
2.61705e+07
2.24249e+07
1.61334e+07
1.13042e+07
8.71625e+06
7.34804e+06
6.43791e+06
5.77379e+06
5.21094e+06
4.74369e+06
4.33748e+06
3.92507e+06
3.57304e+06
3.0706e+06
2.1448e+07
2.43735e+07
2.6216e+07
2.48674e+07
2.58812e+07
2.81428e+07
2.80373e+07
2.32102e+07
1.4081e+07
8.09085e+06
6.31383e+06
5.87544e+06
5.68114e+06
5.47317e+06
5.18865e+06
4.87307e+06
4.5318e+06
4.15399e+06
3.8084e+06
3.28521e+06
2.27076e+07
2.48804e+07
2.50495e+07
2.3184e+07
2.16337e+07
2.92875e+07
3.2304e+07
2.88711e+07
1.48678e+07
3.92501e+06
3.99701e+06
4.27032e+06
4.54979e+06
4.67756e+06
4.63734e+06
4.52819e+06
4.34643e+06
4.0699e+06
3.78139e+06
3.30054e+06
2.36972e+07
2.5779e+07
2.56993e+07
2.07574e+07
2.99384e+06
2.77764e+06
3.07637e+06
3.62943e+06
4.28477e+06
4.78091e+06
4.7889e+06
4.69111e+06
4.47808e+06
4.14537e+06
3.82419e+06
3.31263e+06
2.3814e+07
2.65623e+07
2.78861e+07
2.89271e+07
3.05762e+06
3.17356e+06
3.27355e+06
3.53896e+06
3.98728e+06
4.48147e+06
4.69628e+06
4.65919e+06
4.51011e+06
4.20959e+06
3.87575e+06
3.32648e+06
2.3271e+07
2.58806e+07
2.76528e+07
3.1959e+07
3.46212e+06
3.52511e+06
3.54981e+06
3.63091e+06
3.84019e+06
4.17868e+06
4.51454e+06
4.57134e+06
4.50054e+06
4.27027e+06
3.94881e+06
3.36027e+06
2.08299e+07
2.19633e+07
2.261e+07
2.80834e+07
3.81858e+06
3.37709e+06
3.43424e+06
3.52268e+06
3.66447e+06
3.91564e+06
4.26705e+06
4.50103e+06
4.5018e+06
4.40171e+06
4.16799e+06
3.54686e+06
1.71316e+07
1.56339e+07
1.35194e+07
1.41219e+07
2.99582e+06
3.07848e+06
3.53065e+06
3.90715e+06
942222
1.3601e+06
1.92458e+06
2.37487e+06
2.73594e+06
3.10895e+06
3.52103e+06
3.93865e+06
4.20167e+06
4.2014e+06
4.10485e+06
3.64957e+06
1.39556e+07
1.09152e+07
7.74532e+06
3.80398e+06
2.75212e+06
3.19514e+06
3.61895e+06
3.5006e+06
1.50752e+06
795672
940578
1.31638e+06
1.7768e+06
2.23802e+06
2.69568e+06
3.15226e+06
3.5597e+06
3.81621e+06
3.82985e+06
3.57858e+06
1.14099e+07
8.4212e+06
6.0607e+06
3.8818e+06
3.04789e+06
3.28143e+06
3.62872e+06
3.54102e+06
2.10904e+06
996903
782710
877306
1.14233e+06
1.51407e+06
1.93183e+06
2.38341e+06
2.83402e+06
3.23083e+06
3.45474e+06
3.36829e+06
9.49836e+06
7.11762e+06
5.66164e+06
4.14765e+06
3.59486e+06
3.54979e+06
3.69712e+06
3.61948e+06
2.54439e+06
1.4373e+06
914867
813165
844637
997190
1.31141e+06
1.74034e+06
2.19048e+06
2.63352e+06
3.01585e+06
3.04813e+06
8.10175e+06
6.25766e+06
5.50107e+06
4.42104e+06
4.24102e+06
3.99547e+06
3.90281e+06
3.76135e+06
2.89324e+06
1.92946e+06
1.23924e+06
876617
815227
851111
1.00417e+06
1.31615e+06
1.70456e+06
2.13682e+06
2.55801e+06
2.65411e+06
7.11637e+06
5.63353e+06
5.33339e+06
4.58725e+06
4.73039e+06
4.48581e+06
4.2351e+06
4.01476e+06
3.26223e+06
2.40804e+06
1.66069e+06
1.08813e+06
875269
886274
982151
1.15033e+06
1.41993e+06
1.77645e+06
2.11992e+06
2.16496e+06
6.31696e+06
5.10056e+06
5.0807e+06
4.55902e+06
4.73401e+06
4.69966e+06
4.56503e+06
4.36309e+06
3.67553e+06
2.87761e+06
2.10997e+06
1.45414e+06
1.08737e+06
1.00354e+06
1.02403e+06
1.13416e+06
1.28241e+06
1.47291e+06
1.59837e+06
1.64895e+06
5.69652e+06
4.65683e+06
4.78822e+06
4.46481e+06
4.63427e+06
4.66442e+06
4.60958e+06
4.57201e+06
4.0935e+06
3.34641e+06
2.58245e+06
1.91693e+06
1.44723e+06
1.21757e+06
1.16038e+06
1.17022e+06
1.16793e+06
1.17006e+06
1.21836e+06
1.48243e+06
5.18767e+06
4.26868e+06
4.4643e+06
4.29667e+06
4.42346e+06
4.51462e+06
4.53527e+06
4.56563e+06
4.31421e+06
3.75029e+06
3.04508e+06
2.38931e+06
1.87002e+06
1.53929e+06
1.3672e+06
1.20777e+06
1.10625e+06
1.10622e+06
1.19576e+06
1.60111e+06
4.67234e+06
3.86963e+06
4.09879e+06
4.03186e+06
4.09891e+06
4.20857e+06
4.29692e+06
4.45068e+06
4.29621e+06
3.95346e+06
3.42509e+06
2.84465e+06
2.33348e+06
1.94841e+06
1.61951e+06
1.25329e+06
1.13113e+06
1.16425e+06
1.3523e+06
2.45854e+06
4.24573e+06
3.52577e+06
3.76018e+06
3.7492e+06
3.7851e+06
3.86794e+06
3.96662e+06
4.19217e+06
4.173e+06
3.9426e+06
3.59358e+06
3.18406e+06
2.74132e+06
2.2959e+06
1.76269e+06
1.31259e+06
1.2548e+06
1.38024e+06
2.07173e+06
4.37428e+06
3.6454e+06
3.03262e+06
3.24542e+06
3.27269e+06
3.28018e+06
3.31193e+06
3.36976e+06
3.54714e+06
3.67552e+06
3.64464e+06
3.46814e+06
3.17413e+06
2.79271e+06
2.31177e+06
1.7918e+06
1.59261e+06
1.69731e+06
2.51925e+06
4.40403e+06
6.9939e+06
1.6326e+07
1.90205e+07
2.07366e+07
2.18665e+07
2.26802e+07
2.27985e+07
2.23055e+07
1.99672e+07
1.64422e+07
1.33902e+07
1.09548e+07
9.12556e+06
7.78493e+06
6.83811e+06
6.06147e+06
5.45058e+06
4.9476e+06
4.44613e+06
4.02781e+06
3.43602e+06
1.90056e+07
2.19424e+07
2.35329e+07
2.36256e+07
2.44339e+07
2.52963e+07
2.47308e+07
2.10619e+07
1.50998e+07
1.05576e+07
8.14177e+06
6.92776e+06
6.13052e+06
5.52718e+06
4.99848e+06
4.54661e+06
4.15035e+06
3.75244e+06
3.4096e+06
2.91448e+06
2.07087e+07
2.34814e+07
2.51072e+07
2.32658e+07
2.40854e+07
2.6577e+07
2.64357e+07
2.16745e+07
1.31011e+07
7.56403e+06
5.89821e+06
5.50912e+06
5.37287e+06
5.22592e+06
4.98987e+06
4.70536e+06
4.38531e+06
4.02361e+06
3.68666e+06
3.16365e+06
2.18188e+07
2.35339e+07
2.30927e+07
2.04764e+07
2.00409e+07
2.77701e+07
3.03919e+07
2.68039e+07
1.34955e+07
3.6816e+06
3.78144e+06
4.0665e+06
4.34973e+06
4.49705e+06
4.46456e+06
4.35916e+06
4.18044e+06
3.91092e+06
3.62789e+06
3.15449e+06
2.25659e+07
2.42616e+07
2.35347e+07
1.8975e+07
2.56082e+06
2.61995e+06
2.86793e+06
3.34173e+06
3.96085e+06
4.53989e+06
4.63611e+06
4.56433e+06
4.37783e+06
4.05892e+06
3.73067e+06
3.20561e+06
2.26169e+07
2.5009e+07
2.61553e+07
2.73531e+07
2.94625e+06
3.0162e+06
3.07663e+06
3.28149e+06
3.7007e+06
4.22956e+06
4.55636e+06
4.54218e+06
4.42542e+06
4.15627e+06
3.82311e+06
3.25122e+06
2.20704e+07
2.4453e+07
2.6159e+07
3.00861e+07
3.31956e+06
3.38139e+06
3.3792e+06
3.41924e+06
3.57103e+06
3.88679e+06
4.26419e+06
4.42103e+06
4.37226e+06
4.19134e+06
3.89747e+06
3.30143e+06
1.97538e+07
2.08063e+07
2.14317e+07
2.65629e+07
3.62231e+06
3.22224e+06
3.24749e+06
3.29867e+06
3.3982e+06
3.59152e+06
3.92086e+06
4.25498e+06
4.29904e+06
4.23693e+06
4.05623e+06
3.48298e+06
1.62046e+07
1.47845e+07
1.27615e+07
1.2976e+07
2.49137e+06
2.91464e+06
3.35765e+06
3.73211e+06
835804
1.27088e+06
1.78511e+06
2.18068e+06
2.48291e+06
2.79497e+06
3.16069e+06
3.56851e+06
3.91536e+06
3.98453e+06
3.9279e+06
3.54316e+06
1.31561e+07
1.02492e+07
7.22193e+06
3.40513e+06
2.46956e+06
2.95525e+06
3.35392e+06
3.21404e+06
1.31046e+06
678382
819987
1.16387e+06
1.57169e+06
1.96541e+06
2.36833e+06
2.79672e+06
3.22404e+06
3.54971e+06
3.61682e+06
3.42492e+06
1.07468e+07
7.87732e+06
5.58951e+06
3.50123e+06
2.73004e+06
3.00835e+06
3.35407e+06
3.25163e+06
1.86133e+06
849837
660521
749747
991084
1.31691e+06
1.68197e+06
2.09457e+06
2.53e+06
2.94827e+06
3.22228e+06
3.17716e+06
8.9409e+06
6.70851e+06
5.27244e+06
3.80978e+06
3.20713e+06
3.21285e+06
3.39405e+06
3.31252e+06
2.26471e+06
1.23333e+06
772704
691025
726982
864038
1.12694e+06
1.50803e+06
1.93689e+06
2.36992e+06
2.77342e+06
2.86103e+06
7.62436e+06
5.94403e+06
5.1731e+06
4.13449e+06
3.82473e+06
3.62846e+06
3.54419e+06
3.41776e+06
2.57343e+06
1.66793e+06
1.05108e+06
746295
687343
711162
832793
1.11924e+06
1.49281e+06
1.8987e+06
2.325e+06
2.493e+06
6.70089e+06
5.37123e+06
5.06466e+06
4.36455e+06
4.41609e+06
4.13747e+06
3.85214e+06
3.61251e+06
2.88794e+06
2.08066e+06
1.40973e+06
918333
724999
727652
813965
978180
1.2296e+06
1.55934e+06
1.93192e+06
2.05781e+06
5.9471e+06
4.87128e+06
4.86164e+06
4.35522e+06
4.5402e+06
4.46902e+06
4.2226e+06
3.94438e+06
3.24904e+06
2.49281e+06
1.80099e+06
1.21831e+06
886850
828170
858802
969027
1.1185e+06
1.32891e+06
1.51697e+06
1.56241e+06
5.3573e+06
4.44494e+06
4.60307e+06
4.27624e+06
4.47817e+06
4.46836e+06
4.37689e+06
4.26033e+06
3.65666e+06
2.92604e+06
2.23062e+06
1.6279e+06
1.21254e+06
1.03406e+06
991274
1.01335e+06
1.04178e+06
1.07558e+06
1.09823e+06
1.2718e+06
4.87296e+06
4.06954e+06
4.30291e+06
4.11945e+06
4.30775e+06
4.3708e+06
4.33246e+06
4.29146e+06
3.98436e+06
3.3524e+06
2.67568e+06
2.07335e+06
1.61343e+06
1.32589e+06
1.17893e+06
1.06897e+06
984225
952515
1.01141e+06
1.30545e+06
4.38656e+06
3.68778e+06
3.95669e+06
3.8672e+06
4.00329e+06
4.11853e+06
4.16088e+06
4.22785e+06
4.02355e+06
3.65292e+06
3.08844e+06
2.51606e+06
2.03755e+06
1.68481e+06
1.4274e+06
1.13471e+06
968673
970254
1.07428e+06
1.78706e+06
3.97865e+06
3.35526e+06
3.62845e+06
3.59216e+06
3.68414e+06
3.79472e+06
3.87795e+06
4.04026e+06
3.95673e+06
3.68953e+06
3.32822e+06
2.90388e+06
2.46238e+06
2.06337e+06
1.6303e+06
1.17075e+06
1.04414e+06
1.09371e+06
1.46116e+06
3.1834e+06
3.39849e+06
2.87181e+06
3.11548e+06
3.12467e+06
3.16835e+06
3.22849e+06
3.29546e+06
3.4622e+06
3.54878e+06
3.4694e+06
3.25771e+06
2.95516e+06
2.59771e+06
2.16204e+06
1.66027e+06
1.3471e+06
1.37141e+06
1.84133e+06
3.21632e+06
5.90844e+06
1.57312e+07
1.83846e+07
2.00436e+07
2.10944e+07
2.17811e+07
2.18528e+07
2.13404e+07
1.90166e+07
1.55808e+07
1.26384e+07
1.03343e+07
8.61983e+06
7.36318e+06
6.47922e+06
5.75149e+06
5.17613e+06
4.70044e+06
4.2293e+06
3.83124e+06
3.25192e+06
1.83648e+07
2.12609e+07
2.27622e+07
2.26497e+07
2.33509e+07
2.42298e+07
2.3715e+07
2.00999e+07
1.42717e+07
9.8913e+06
7.61768e+06
6.5408e+06
5.8326e+06
5.28289e+06
4.79003e+06
4.36281e+06
3.98484e+06
3.60898e+06
3.28281e+06
2.79563e+06
2.00033e+07
2.27246e+07
2.42183e+07
2.20365e+07
2.27678e+07
2.5515e+07
2.54901e+07
2.07646e+07
1.2323e+07
6.9988e+06
5.42877e+06
5.16604e+06
5.09523e+06
4.9992e+06
4.7979e+06
4.53933e+06
4.24056e+06
3.89686e+06
3.57457e+06
3.05873e+06
2.09679e+07
2.24978e+07
2.17138e+07
1.87205e+07
1.86865e+07
2.66777e+07
2.91727e+07
2.55277e+07
1.23649e+07
3.31099e+06
3.42689e+06
3.77934e+06
4.16118e+06
4.34328e+06
4.31472e+06
4.21118e+06
4.03363e+06
3.77352e+06
3.50325e+06
3.03898e+06
2.15537e+07
2.3035e+07
2.21094e+07
1.81576e+07
2.43472e+06
2.40502e+06
2.63686e+06
3.05004e+06
3.63568e+06
4.25474e+06
4.4909e+06
4.44886e+06
4.29867e+06
4.01063e+06
3.68828e+06
3.14595e+06
2.15738e+07
2.38024e+07
2.49509e+07
2.60483e+07
2.76854e+06
2.83317e+06
2.88866e+06
3.05798e+06
3.42776e+06
3.95777e+06
4.3759e+06
4.40014e+06
4.31315e+06
4.09273e+06
3.78704e+06
3.21501e+06
2.10541e+07
2.33392e+07
2.50542e+07
2.86967e+07
3.14386e+06
3.16354e+06
3.1659e+06
3.1994e+06
3.31292e+06
3.58452e+06
3.97162e+06
4.20463e+06
4.1826e+06
4.05133e+06
3.80829e+06
3.25049e+06
1.88484e+07
1.98952e+07
2.05538e+07
2.53204e+07
3.47702e+06
2.94873e+06
3.01578e+06
3.07624e+06
3.16168e+06
3.31066e+06
3.58657e+06
3.95601e+06
4.06557e+06
4.02589e+06
3.88882e+06
3.38892e+06
1.5459e+07
1.41463e+07
1.22593e+07
1.25633e+07
2.37576e+06
2.72e+06
3.02888e+06
3.35962e+06
725982
1.08985e+06
1.57222e+06
1.96366e+06
2.25621e+06
2.52597e+06
2.83956e+06
3.2144e+06
3.58766e+06
3.74094e+06
3.71193e+06
3.39633e+06
1.2538e+07
9.79649e+06
6.92293e+06
3.27738e+06
2.36019e+06
2.76717e+06
3.09244e+06
2.93747e+06
1.19229e+06
583184
701480
1.01134e+06
1.38917e+06
1.73948e+06
2.09445e+06
2.48634e+06
2.89758e+06
3.24775e+06
3.37918e+06
3.24021e+06
1.02337e+07
7.50689e+06
5.31044e+06
3.32644e+06
2.57061e+06
2.82011e+06
3.10359e+06
2.99233e+06
1.70442e+06
747104
562573
641399
858741
1.14553e+06
1.46379e+06
1.83606e+06
2.24152e+06
2.64649e+06
2.95884e+06
2.95194e+06
8.51188e+06
6.40336e+06
5.00158e+06
3.60469e+06
2.95807e+06
2.98982e+06
3.14874e+06
3.0566e+06
2.07581e+06
1.09817e+06
665937
596243
628800
744703
964216
1.29643e+06
1.68849e+06
2.0921e+06
2.48418e+06
2.62781e+06
7.25381e+06
5.68269e+06
4.91089e+06
3.93221e+06
3.50447e+06
3.35361e+06
3.27085e+06
3.15178e+06
2.34789e+06
1.48592e+06
915839
646782
583012
602007
697184
942363
1.28663e+06
1.65971e+06
2.05145e+06
2.28182e+06
6.37343e+06
5.13588e+06
4.8195e+06
4.13742e+06
4.08817e+06
3.8487e+06
3.53811e+06
3.3116e+06
2.60919e+06
1.83944e+06
1.22644e+06
786768
609803
603427
665677
818480
1.05564e+06
1.35023e+06
1.69757e+06
1.90718e+06
5.65504e+06
4.65689e+06
4.63767e+06
4.13086e+06
4.32004e+06
4.23359e+06
3.90228e+06
3.59581e+06
2.91529e+06
2.19844e+06
1.56158e+06
1.02799e+06
727854
672917
701991
802751
945471
1.15069e+06
1.37947e+06
1.47282e+06
5.08976e+06
4.24864e+06
4.4028e+06
4.05953e+06
4.28981e+06
4.27052e+06
4.1145e+06
3.94161e+06
3.29284e+06
2.59088e+06
1.93818e+06
1.37574e+06
998625
845855
812041
834998
882173
957985
1.0079e+06
1.09727e+06
4.62621e+06
3.88968e+06
4.12573e+06
3.91443e+06
4.1593e+06
4.19888e+06
4.09355e+06
4.01726e+06
3.64993e+06
2.99951e+06
2.34405e+06
1.77855e+06
1.36229e+06
1.10635e+06
974385
894709
843474
806600
827652
1.05306e+06
4.16664e+06
3.52996e+06
3.80127e+06
3.68226e+06
3.8921e+06
4.00071e+06
3.97221e+06
3.97338e+06
3.74924e+06
3.33056e+06
2.7451e+06
2.18667e+06
1.7481e+06
1.42244e+06
1.202e+06
983915
814704
785997
843503
1.22924e+06
3.77715e+06
3.21524e+06
3.49205e+06
3.4291e+06
3.58731e+06
3.71388e+06
3.74454e+06
3.83093e+06
3.70882e+06
3.42102e+06
3.02882e+06
2.57588e+06
2.14826e+06
1.78361e+06
1.43985e+06
1.03975e+06
844621
853347
996773
2.00189e+06
3.20753e+06
2.74136e+06
2.99132e+06
2.98159e+06
3.06793e+06
3.15868e+06
3.2092e+06
3.3313e+06
3.36989e+06
3.25321e+06
3.0016e+06
2.6933e+06
2.35592e+06
1.97465e+06
1.52397e+06
1.137e+06
1.08942e+06
1.26655e+06
2.0385e+06
4.41495e+06
1.54267e+07
1.80561e+07
1.96967e+07
2.07091e+07
2.13413e+07
2.13831e+07
2.08671e+07
1.85783e+07
1.51581e+07
1.22457e+07
9.98124e+06
8.31504e+06
7.10602e+06
6.25735e+06
5.56802e+06
5.02278e+06
4.56896e+06
4.11982e+06
3.73655e+06
3.16211e+06
1.80022e+07
2.08424e+07
2.22957e+07
2.21377e+07
2.2833e+07
2.37247e+07
2.32252e+07
1.96592e+07
1.38525e+07
9.52625e+06
7.29073e+06
6.26731e+06
5.60838e+06
5.09653e+06
4.63814e+06
4.23933e+06
3.88268e+06
3.52815e+06
3.21843e+06
2.73819e+06
1.96052e+07
2.22318e+07
2.35565e+07
2.11885e+07
2.22034e+07
2.50302e+07
2.50373e+07
2.03591e+07
1.19325e+07
6.66541e+06
5.1094e+06
4.88933e+06
4.85717e+06
4.80474e+06
4.64538e+06
4.41777e+06
4.14222e+06
3.82013e+06
3.5155e+06
3.00885e+06
2.05477e+07
2.19365e+07
2.09525e+07
1.7663e+07
1.81572e+07
2.59866e+07
2.84696e+07
2.49409e+07
1.2008e+07
3.11027e+06
3.19338e+06
3.54626e+06
3.98286e+06
4.20564e+06
4.18755e+06
4.09485e+06
3.92866e+06
3.68975e+06
3.4425e+06
2.9949e+06
2.10868e+07
2.2437e+07
2.1401e+07
1.74913e+07
2.23527e+06
2.29884e+06
2.48551e+06
2.84467e+06
3.39848e+06
4.00959e+06
4.34653e+06
4.33417e+06
4.22681e+06
3.97836e+06
3.67574e+06
3.13279e+06
2.10981e+07
2.32356e+07
2.43728e+07
2.53439e+07
2.67155e+06
2.75008e+06
2.79208e+06
2.93046e+06
3.25426e+06
3.76071e+06
4.22097e+06
4.30304e+06
4.23793e+06
4.05414e+06
3.77974e+06
3.21752e+06
2.05681e+07
2.2775e+07
2.44721e+07
2.78368e+07
2.9587e+06
3.01911e+06
3.0222e+06
3.05073e+06
3.14682e+06
3.38836e+06
3.78154e+06
4.06775e+06
4.0652e+06
3.97041e+06
3.76677e+06
3.241e+06
1.83868e+07
1.9381e+07
2.00134e+07
2.44312e+07
3.20814e+06
2.76655e+06
2.84129e+06
2.90823e+06
2.99641e+06
3.13771e+06
3.39456e+06
3.77068e+06
3.94313e+06
3.92175e+06
3.81405e+06
3.35716e+06
1.50665e+07
1.37612e+07
1.18816e+07
1.19949e+07
2.18349e+06
2.62997e+06
2.9312e+06
3.20517e+06
669017
1.00054e+06
1.45462e+06
1.83799e+06
2.13234e+06
2.38832e+06
2.67456e+06
3.03838e+06
3.43818e+06
3.64237e+06
3.62955e+06
3.34614e+06
1.22166e+07
9.53944e+06
6.73085e+06
3.16482e+06
2.29481e+06
2.73079e+06
3.02349e+06
2.82715e+06
1.13179e+06
534957
646900
941205
1.30671e+06
1.63621e+06
1.96514e+06
2.34947e+06
2.7728e+06
3.14084e+06
3.29829e+06
3.17751e+06
9.97323e+06
7.32108e+06
5.18458e+06
3.24974e+06
2.49464e+06
2.77436e+06
3.02377e+06
2.8762e+06
1.6107e+06
694973
515408
592006
797163
1.07023e+06
1.37466e+06
1.73788e+06
2.14183e+06
2.54472e+06
2.86819e+06
2.87342e+06
8.30304e+06
6.26395e+06
4.8919e+06
3.56568e+06
2.85938e+06
2.91981e+06
3.05232e+06
2.9341e+06
1.96533e+06
1.02657e+06
611452
543862
579625
701415
909759
1.2249e+06
1.6028e+06
1.99313e+06
2.37642e+06
2.53726e+06
7.08269e+06
5.57369e+06
4.81302e+06
3.92415e+06
3.38382e+06
3.25028e+06
3.15189e+06
3.02063e+06
2.23375e+06
1.39633e+06
840879
591460
540623
559951
652283
879330
1.20018e+06
1.55872e+06
1.93542e+06
2.18144e+06
6.22357e+06
5.03991e+06
4.72621e+06
4.09243e+06
3.95253e+06
3.73091e+06
3.3921e+06
3.16607e+06
2.4772e+06
1.72041e+06
1.12614e+06
722945
561851
550082
596762
731212
959711
1.24806e+06
1.57823e+06
1.81387e+06
5.52735e+06
4.5713e+06
4.54989e+06
4.07092e+06
4.23628e+06
4.14266e+06
3.75711e+06
3.42835e+06
2.75292e+06
2.04791e+06
1.43958e+06
942450
660874
597870
618789
709250
851273
1.0505e+06
1.28215e+06
1.41205e+06
4.97661e+06
4.17139e+06
4.32199e+06
3.98318e+06
4.21836e+06
4.20585e+06
4.00039e+06
3.78401e+06
3.1157e+06
2.42918e+06
1.80434e+06
1.26656e+06
898842
740137
712514
736437
789811
882457
956127
1.02848e+06
4.52138e+06
3.81784e+06
4.05232e+06
3.83057e+06
4.10739e+06
4.14282e+06
3.99e+06
3.90071e+06
3.49321e+06
2.84392e+06
2.20388e+06
1.64792e+06
1.22934e+06
978718
861170
793483
764882
740728
747460
933422
4.07356e+06
3.46836e+06
3.73916e+06
3.60688e+06
3.86301e+06
3.96489e+06
3.89236e+06
3.86997e+06
3.63832e+06
3.19138e+06
2.60088e+06
2.03891e+06
1.59577e+06
1.27817e+06
1.07133e+06
892990
743838
700297
738956
1.02236e+06
3.69239e+06
3.1633e+06
3.44216e+06
3.37068e+06
3.57125e+06
3.69953e+06
3.69507e+06
3.75121e+06
3.61186e+06
3.31319e+06
2.90179e+06
2.42313e+06
1.9851e+06
1.62415e+06
1.31502e+06
971386
754941
743071
828672
1.53204e+06
3.1219e+06
2.69006e+06
2.94592e+06
2.93585e+06
3.0487e+06
3.1512e+06
3.18672e+06
3.28864e+06
3.30461e+06
3.16879e+06
2.89182e+06
2.5695e+06
2.22299e+06
1.85411e+06
1.4414e+06
1.04982e+06
953514
1.04364e+06
1.55947e+06
3.60264e+06
1.54251e+07
1.806e+07
1.971e+07
2.06932e+07
2.12757e+07
2.12987e+07
2.08008e+07
1.85616e+07
1.51607e+07
1.22472e+07
9.97384e+06
8.30118e+06
7.09045e+06
6.24244e+06
5.55494e+06
5.01148e+06
4.55979e+06
4.1124e+06
3.73055e+06
3.15825e+06
1.80001e+07
2.0847e+07
2.23167e+07
2.20984e+07
2.27525e+07
2.3618e+07
2.31366e+07
1.96325e+07
1.38679e+07
9.54965e+06
7.29746e+06
6.2519e+06
5.58542e+06
5.07368e+06
4.61843e+06
4.22388e+06
3.8709e+06
3.51889e+06
3.21077e+06
2.73277e+06
1.95973e+07
2.22234e+07
2.35614e+07
2.10633e+07
2.21569e+07
2.493e+07
2.4945e+07
2.03114e+07
1.19658e+07
6.72314e+06
5.14911e+06
4.87833e+06
4.82852e+06
4.77176e+06
4.61594e+06
4.39574e+06
4.12658e+06
3.80891e+06
3.5066e+06
3.00224e+06
2.0576e+07
2.19871e+07
2.10607e+07
1.73126e+07
1.83153e+07
2.5803e+07
2.8267e+07
2.47278e+07
1.19217e+07
3.15186e+06
3.23708e+06
3.57207e+06
3.97872e+06
4.17839e+06
4.15927e+06
4.06878e+06
3.90883e+06
3.67584e+06
3.43167e+06
2.98674e+06
2.11472e+07
2.25072e+07
2.14112e+07
1.70093e+07
2.09995e+06
2.3097e+06
2.49929e+06
2.85349e+06
3.39138e+06
3.98833e+06
4.32054e+06
4.31063e+06
4.2063e+06
3.96053e+06
3.65957e+06
3.11945e+06
2.11611e+07
2.33059e+07
2.44198e+07
2.52289e+07
2.63804e+06
2.73892e+06
2.78303e+06
2.92362e+06
3.24709e+06
3.75331e+06
4.21406e+06
4.29803e+06
4.23559e+06
4.05297e+06
3.77785e+06
3.21359e+06
2.05992e+07
2.2807e+07
2.45043e+07
2.77111e+07
2.89708e+06
3.00901e+06
3.01358e+06
3.047e+06
3.14805e+06
3.39314e+06
3.79453e+06
4.08051e+06
4.07614e+06
3.97899e+06
3.77397e+06
3.24422e+06
1.83815e+07
1.93714e+07
2.00056e+07
2.42753e+07
3.14376e+06
2.77333e+06
2.84139e+06
2.90985e+06
3.00413e+06
3.15169e+06
3.41466e+06
3.79589e+06
3.96044e+06
3.93671e+06
3.82598e+06
3.36257e+06
1.50565e+07
1.37508e+07
1.18753e+07
1.1889e+07
2.08681e+06
2.61159e+06
2.90589e+06
3.14858e+06
644010
1.02429e+06
1.48116e+06
1.85955e+06
2.15076e+06
2.40822e+06
2.69611e+06
3.06484e+06
3.46738e+06
3.66208e+06
3.6463e+06
3.35582e+06
1.22041e+07
9.51831e+06
6.71563e+06
3.13497e+06
2.27313e+06
2.70458e+06
2.98498e+06
2.76947e+06
1.08139e+06
528763
651100
953607
1.32075e+06
1.65028e+06
1.98113e+06
2.36792e+06
2.79441e+06
3.16258e+06
3.31579e+06
3.19082e+06
9.9715e+06
7.3163e+06
5.19071e+06
3.24917e+06
2.47924e+06
2.75166e+06
2.98859e+06
2.83059e+06
1.55292e+06
675691
513764
594086
804867
1.07939e+06
1.38433e+06
1.74843e+06
2.1538e+06
2.55834e+06
2.88241e+06
2.8874e+06
8.3141e+06
6.28318e+06
4.92618e+06
3.60197e+06
2.86331e+06
2.90542e+06
3.02356e+06
2.89407e+06
1.91543e+06
999030
605277
544332
582567
703697
911383
1.22716e+06
1.60596e+06
1.9977e+06
2.38455e+06
2.55048e+06
7.10191e+06
5.60592e+06
4.85664e+06
3.98557e+06
3.41544e+06
3.25135e+06
3.13253e+06
2.98548e+06
2.1895e+06
1.36832e+06
829803
588858
540011
559062
651032
878122
1.19912e+06
1.5589e+06
1.94022e+06
2.19302e+06
6.24592e+06
5.07517e+06
4.77112e+06
4.1508e+06
4.00406e+06
3.76093e+06
3.38768e+06
3.13675e+06
2.4379e+06
1.69431e+06
1.11276e+06
718022
560878
549385
596972
731077
958762
1.24767e+06
1.58195e+06
1.82337e+06
5.5489e+06
4.60491e+06
4.59168e+06
4.12429e+06
4.28864e+06
4.19099e+06
3.77856e+06
3.40703e+06
2.72017e+06
2.02361e+06
1.42377e+06
933822
656945
598029
619941
711245
852199
1.05136e+06
1.28531e+06
1.41859e+06
4.99602e+06
4.20075e+06
4.35823e+06
4.0273e+06
4.2662e+06
4.2467e+06
4.03e+06
3.77803e+06
3.08991e+06
2.40856e+06
1.78899e+06
1.25606e+06
893302
741495
715679
739340
791557
883622
957709
1.03163e+06
4.53747e+06
3.84173e+06
4.08208e+06
3.86419e+06
4.14739e+06
4.1785e+06
4.01809e+06
3.90831e+06
3.47812e+06
2.82772e+06
2.19085e+06
1.63916e+06
1.22582e+06
981631
866449
797201
767446
742481
748732
935154
4.08644e+06
3.4874e+06
3.76278e+06
3.63126e+06
3.89382e+06
3.99156e+06
3.91485e+06
3.87877e+06
3.63552e+06
3.17891e+06
2.59012e+06
2.03346e+06
1.59562e+06
1.28341e+06
1.07766e+06
897419
746220
701058
739748
1.02238e+06
3.70272e+06
3.17854e+06
3.46104e+06
3.3888e+06
3.59404e+06
3.71597e+06
3.71017e+06
3.76049e+06
3.61104e+06
3.30558e+06
2.89358e+06
2.41905e+06
1.9858e+06
1.62831e+06
1.31984e+06
975688
756377
743996
828923
1.53113e+06
3.12913e+06
2.70058e+06
2.95893e+06
2.94732e+06
3.06259e+06
3.15729e+06
3.19145e+06
3.29484e+06
3.30597e+06
3.16468e+06
2.88491e+06
2.5635e+06
2.21995e+06
1.85404e+06
1.44349e+06
1.05188e+06
954235
1.0446e+06
1.55854e+06
3.59853e+06
1.57268e+07
1.83972e+07
2.00762e+07
2.10655e+07
2.16589e+07
2.16888e+07
2.12011e+07
1.89534e+07
1.55357e+07
1.26054e+07
1.02982e+07
8.58515e+06
7.33442e+06
6.456e+06
5.73437e+06
5.16348e+06
4.69117e+06
4.2219e+06
3.82485e+06
3.24739e+06
1.83434e+07
2.12487e+07
2.27748e+07
2.25833e+07
2.32126e+07
2.40352e+07
2.35312e+07
2.00102e+07
1.42006e+07
9.85143e+06
7.5753e+06
6.48398e+06
5.77753e+06
5.23721e+06
4.75503e+06
4.33756e+06
3.96676e+06
3.59499e+06
3.27074e+06
2.78621e+06
1.99649e+07
2.26673e+07
2.41615e+07
2.18052e+07
2.27055e+07
2.53252e+07
2.52942e+07
2.06545e+07
1.22339e+07
6.96021e+06
5.39697e+06
5.08983e+06
5.01729e+06
4.93541e+06
4.75235e+06
4.50904e+06
4.22041e+06
3.88269e+06
3.5624e+06
3.04787e+06
2.10128e+07
2.2554e+07
2.18223e+07
1.78951e+07
1.8744e+07
2.60869e+07
2.85063e+07
2.50523e+07
1.20079e+07
3.29993e+06
3.41209e+06
3.74747e+06
4.10439e+06
4.2824e+06
4.26073e+06
4.17001e+06
4.00664e+06
3.75751e+06
3.49177e+06
3.03001e+06
2.1664e+07
2.31498e+07
2.20958e+07
1.72876e+07
2.17797e+06
2.43841e+06
2.64985e+06
3.03822e+06
3.59671e+06
4.19813e+06
4.44169e+06
4.40728e+06
4.26705e+06
3.98579e+06
3.66626e+06
3.12797e+06
2.1678e+07
2.39065e+07
2.50194e+07
2.56915e+07
2.71612e+06
2.86437e+06
2.91154e+06
3.06821e+06
3.42527e+06
3.94478e+06
4.35504e+06
4.38379e+06
4.30286e+06
4.08731e+06
3.78291e+06
3.20954e+06
2.10945e+07
2.33472e+07
2.50336e+07
2.82752e+07
2.97898e+06
3.18201e+06
3.18699e+06
3.22345e+06
3.33578e+06
3.60269e+06
3.98904e+06
4.21497e+06
4.19059e+06
4.05788e+06
3.81417e+06
3.25447e+06
1.88111e+07
1.97916e+07
2.03964e+07
2.47225e+07
3.25252e+06
2.98815e+06
3.0473e+06
3.10924e+06
3.19836e+06
3.35065e+06
3.63165e+06
3.99806e+06
4.08681e+06
4.04288e+06
3.89916e+06
3.39049e+06
1.5407e+07
1.40286e+07
1.20946e+07
1.20961e+07
2.13691e+06
2.64988e+06
2.89967e+06
3.16144e+06
679789
1.14469e+06
1.64595e+06
2.03182e+06
2.31617e+06
2.58157e+06
2.89141e+06
3.26822e+06
3.63979e+06
3.772e+06
3.73787e+06
3.41077e+06
1.25057e+07
9.73211e+06
6.86558e+06
3.27592e+06
2.38669e+06
2.79653e+06
3.0987e+06
2.9193e+06
1.13911e+06
584284
726004
1.0555e+06
1.43595e+06
1.78415e+06
2.13833e+06
2.53002e+06
2.943e+06
3.29081e+06
3.41261e+06
3.26482e+06
1.02345e+07
7.50586e+06
5.32563e+06
3.3717e+06
2.60052e+06
2.84965e+06
3.11304e+06
2.98709e+06
1.64366e+06
729069
568009
657989
886619
1.17588e+06
1.49367e+06
1.8645e+06
2.27095e+06
2.6791e+06
2.99141e+06
2.98245e+06
8.54637e+06
6.44911e+06
5.05829e+06
3.69716e+06
2.996e+06
3.01874e+06
3.15924e+06
3.0536e+06
2.02827e+06
1.0642e+06
661794
598250
636544
754705
975633
1.3087e+06
1.70291e+06
2.11086e+06
2.50999e+06
2.658e+06
7.30659e+06
5.75144e+06
4.99334e+06
4.05385e+06
3.56464e+06
3.39007e+06
3.28165e+06
3.14445e+06
2.30678e+06
1.44967e+06
900555
641903
580376
601643
699492
946313
1.29259e+06
1.6702e+06
2.0706e+06
2.30857e+06
6.43099e+06
5.20776e+06
4.90632e+06
4.2393e+06
4.17396e+06
3.91061e+06
3.55549e+06
3.30006e+06
2.56823e+06
1.80322e+06
1.20387e+06
771736
605098