/*--------------------------------*- C++ -*----------------------------------*\
  =========                 |
  \\      /  F ield         | OpenFOAM: The Open Source CFD Toolbox
   \\    /   O peration     | Website:  https://openfoam.org
    \\  /    A nd           | Version:  9
     \\/     M anipulation  |
\*---------------------------------------------------------------------------*/
FoamFile
{
    format      ascii;
    class       surfaceScalarField;
    location    "0.003";
    object      phi;
}
// * * * * * * * * * * * * * * * * * * * * * * * * * * * * * * * * * * * * * //

dimensions      [0 3 -1 0 0 0 0];

internalField   nonuniform List<scalar> 
28500
(
-230.57
-231.28
-59.01
-186.768
-244.787
-57.7182
-150.373
-255.947
-52.2865
-110.163
-269.616
-56.8094
-59.5402
-300.497
-59.5312
2.37228
-317.579
-60.0197
73.8544
-327.301
-62.4142
162.774
-328.317
-62.1116
251.373
-318.114
-61.5878
320.055
-270.858
-61.2673
373.878
-216.69
-60.731
418.189
-178.749
-60.4324
456.437
-155.888
-62.8933
492.271
-141.022
-61.6296
527.162
-133.928
-66.7873
560.957
-128.056
-65.926
595.834
-122.725
-64.9264
631.501
-121.607
-68.0503
667.164
-119.341
-69.4933
-117.496
-69.8707
-243.156
-188.191
-57.6432
-199.702
-202.454
-52.2133
-167.997
-210.992
-44.3533
-132.067
-239.188
-51.0805
-79.0744
-278.758
-57.7945
-8.50844
-300.661
-57.7017
73.861
-308.621
-60.467
184.455
-311.072
-59.348
300.726
-282.827
-57.315
377.957
-211.03
-57.2248
424.225
-143.661
-56.6444
456.836
-96.3508
-56.075
485.897
-68.5149
-60.8932
514.295
-53.7186
-61.0765
543.755
-48.8103
-67.9927
573.982
-46.9364
-69.7952
605.638
-44.5845
-69.1075
638.347
-44.6417
-72.3819
671.802
-44.1386
-75.3476
-43.8592
-76.1481
-253.976
-151.47
-51.5666
-208.149
-170.177
-43.3565
-187.935
-189.941
-37.5431
-157.913
-53.0902
-44.9443
-55.9725
-53.1099
-57.4041
-97.2551
-66.8518
-56.4491
-68.689
-68.8056
-69.9852
-17.6007
-70.2918
-56.0845
-72.5363
-71.2805
-73.3015
75.988
-71.3132
-56.711
-70.9533
-72.0932
-71.6809
206.85
-72.4451
-55.0595
-72.8444
-73.229
-73.7238
349.645
-63.7641
-51.9138
-52.5449
-65.14
-53.4819
423.65
-127.27
-49.997
453.871
-69.7162
-50.5301
475.409
-28.4833
-46.2402
498.05
-7.25706
-46.4798
523.205
3.62908
-45.6503
550.863
8.92801
-52.5375
580.556
10.7739
-55.7024
611.996
13.525
-59.0694
644.769
14.2095
-64.1137
678.528
14.9393
-68.0504
15.0204
-70.1326
-268.729
-109.924
-54.5288
-238.049
-132.197
-47.6079
-52.4323
-159.258
-41.1161
-56.4337
-52.647
-56.9784
-52.0864
-52.2619
-11.0165
-38.5368
-15.5002
48.7977
-16.2546
-16.1602
-16.1144
-16.2544
27.9124
-15.3458
-14.8286
-16.9465
-16.6044
-16.6696
-16.8979
4.23392
7.68686
-15.0716
-17.2428
-16.9696
-16.9994
-17.1914
-20.6062
34.8366
-15.0396
-17.465
-16.9835
-17.03
-17.3751
-62.3859
84.934
-56.4082
-15.3904
469.235
-36.8327
-50.5855
-109.141
-114.336
-109.197
-114.627
475.45
-7.4433
-57.354
486.398
24.8149
-57.2072
504.462
50.9898
-55.9376
526.456
59.251
-50.673
552.259
64.5957
-54.2776
581.51
64.5135
-55.1577
613.501
64.8817
-55.9253
647.219
64.6056
-61.4885
682.355
63.5678
-67.8408
63.8756
-72.5662
-300.306
-58.5531
-56.6777
-278.615
-77.9835
-53.9273
-67.4763
-97.4505
-51.9058
-68.7943
-68.4767
-70.5407
-39.1459
-13.2737
50.3095
-16.8627
-16.9875
-17.0903
-16.7979
1.41556
28.6608
0.855261
-4.43288
501.971
32.599
-58.0317
-120.527
-129.396
-121.303
-131.456
491.455
38.4979
-60.2811
482.53
51.5135
-58.4269
489.566
71.9628
-55.3032
507.793
87.2175
-53.3363
531.056
98.6534
-58.4609
559.222
102.312
-58.981
590.935
104.007
-62.1392
625.556
104.662
-70.9109
661.626
102.075
-77.7097
103.613
-81.4355
-317.193
2.9655
-59.1464
-300.18
-7.57406
-56.5731
-70.042
-16.8234
-54.8152
-72.5342
-70.9426
-73.3214
28.1759
-15.1109
-14.3747
-17.064
-16.6126
-16.6656
-17.0007
-1.67716
33.3782
2.54743
-3.60155
566.261
96.7687
-59.7408
-137.282
-142.663
-140.134
-145.767
559.611
98.1252
-60.6262
543.317
100.589
-60.5091
532.808
109.772
-58.6943
538.397
124.52
-56.6441
553.241
136.301
-61.0673
574.283
141.192
-61.721
600.744
143.632
-65.6645
631.898
145.331
-74.1484
665.334
142.747
-80.1186
143.674
-83.833
-326.753
74.3781
-62.4141
-308.722
75.1292
-60.6237
-71.5043
78.0407
-57.2197
-70.984
-72.2891
-71.739
4.0076
8.0993
-15.2455
-17.2624
-16.9855
-17.0149
-17.2026
-5.42102
36.4611
6.40333
-3.57693
614.267
167.58
-61.5969
-149.309
-154.89
-152.548
-157.847
610.749
165.618
-62.4092
603.273
164.112
-62.8269
590.792
164.61
-61.0306
584.462
169.53
-58.5922
588.285
176.753
-61.3381
598.793
180.561
-61.4742
616.252
182.624
-64.0866
641.196
185.421
-70.8513
671.213
183.871
-76.8966
184.916
-81.8706
-326.853
163.578
-63.6492
-309.705
186.281
-61.8826
-72.2337
209.797
-58.6409
-72.3233
-73.048
-73.2628
-21.6663
36.4763
-15.6524
-17.3618
-16.9652
-17.0342
-17.2484
-9.20408
39.2984
10.1207
-3.84459
666.69
245.405
-60.731
-160.278
-164.249
-163.492
-166.982
672.512
239.001
-61.7072
673.117
232.689
-60.9376
666.783
231.621
-60.4403
654.319
228.598
-58.6695
646.554
226.513
-58.9216
645.987
227.229
-61.3908
650.68
226.007
-62.9863
663.652
226.452
-66.4258
684.769
224.507
-71.002
224.73
-76.998
-315.1
251.597
-64.363
-279.15
301.3
-62.5522
-62.701
350.079
-60.3718
-51.1591
-64.2245
-53.0294
-62.8542
-55.4032
85.812
-17.2045
4.69943
1.38331
30.3126
-6.96247
-1.62212
2.50566
33.5469
-3.71308
-5.43681
6.39838
36.4829
-3.6473
-9.1162
9.99214
39.2368
-3.5744
-13.8045
-16.6491
143.444
152.252
-16.2289
-20.5907
-12.7028
-19.532
-21.7331
-18.2325
-22.5419
652.567
445.564
-53.2582
-154.873
-142.665
-157.095
-144.052
673.884
391.864
-58.7202
687.265
363.948
-64.253
693.334
341.529
-65.4157
691.009
322.977
-59.6946
685.787
310.595
-55.1645
684.21
297.225
-55.5239
686.106
287.909
-60.6011
691.822
282.364
-64.8476
704.474
275.722
-68.2518
272.279
-73.9269
-267.326
319.689
-64.7202
-207.068
377.046
-63.2983
-123.754
421.995
-59.7044
-37.3994
465.746
-61.6887
-108.642
-114.12
-108.661
-114.091
31.252
497.544
-64.5271
-120.151
-129.297
-120.061
-129.915
96.0475
561.105
-61.5021
-137.361
-142.53
-137.91
-143.26
166.966
609.217
-59.402
-148.971
-154.226
-150.028
-155.571
252.642
662.516
-57.1502
-160.682
-165.074
-162.841
-167.816
428.995
656.178
-50.1288
-158.904
-148.355
-162.307
-150.33
563.464
578.576
-52.1393
626.442
495.871
-57.9173
659.683
453.953
-61.0499
683.859
434.631
-60.6822
697.607
414.422
-54.838
701.938
394.027
-51.8741
704.844
375.766
-51.5147
709.846
358.925
-56.4375
716.377
345.955
-63.3443
726.681
334.05
-68.0115
325.777
-73.7663
-213.565
373.215
-64.4771
-140.433
422.963
-62.4452
-67.167
451.984
-58.5231
-7.00606
472.742
-64.8088
38.1459
487.837
-64.0198
97.5092
554.772
-61.6073
165.006
605.973
-60.1979
241.066
666.315
-57.1916
384.588
674.025
-49.8168
484.633
634.634
-58.433
556.993
569.424
-54.0288
611.039
515.87
-39.0449
649.607
496.794
-43.1078
676.665
483.526
-46.5279
692.904
467.082
-54.5526
703.844
447.857
-53.4817
715.879
429.138
-55.8907
729.161
412.221
-62.7357
744.241
394.281
-66.6023
383.851
-72.1643
-176.839
417.508
-64.1551
-94.2768
455.748
-61.3212
-27.4609
474.027
-52.2064
24.7465
484.728
-61.1381
51.4302
480.991
-60.494
100.171
540.093
-60.9024
163.247
599.061
-60.2123
232.286
666.273
-56.0926
360.384
685.171
-55.5538
450.823
664.103
-54.3425
509.655
619.865
-39.1379
563.979
572.245
-27.5228
612.95
542.586
-41.4894
650.629
529.778
-56.0899
670.248
520.958
-65.0557
686.878
506.393
-56.5876
707.837
489.345
-54.6882
730.683
472.823
-56.2229
752.332
455.391
-57.1288
445.377
-65.3745
-154.614
455.802
-66.35
-67.2457
484.988
-65.4321
-6.99534
497.081
-51.1114
49.7615
503.285
-58.5189
71.0108
489.031
-56.5901
109.024
531.658
-58.6439
163.702
588.359
-58.5656
229.663
660.289
-55.5367
337.111
689.537
-57.3903
432.867
684.337
-51.3149
496.691
655.073
-35.4464
539.22
621.311
-39.1573
587.295
595.096
-59.241
625.124
569.43
-72.2727
647.953
558.361
-68.8796
672.728
546.437
-47.4906
697.641
538.878
-43.2251
723.472
530.279
-40.1973
746.701
519.91
-45.0326
508.924
-61.3128
-140.145
491.703
-64.6229
-52.9629
513.562
-64.7829
3.83261
522.556
-49.3542
58.4236
525.749
-52.9743
85.533
507.638
-54.8115
122.613
537.762
-55.7626
168.289
584.259
-56.5438
225.697
649.781
-54.0772
318.839
686.981
-52.5301
410.606
695.963
-45.0883
484.194
679.404
-35.651
530.825
656.544
-46.35
566.65
632.006
-66.728
601.452
605.026
-69.7902
634.428
591.818
-53.7837
665.384
581.924
-27.8929
686.255
587.643
-29.7563
710.453
585.413
-31.7698
739.702
579.324
-48.822
567.885
-72.7191
-133.25
526.682
-69.4185
-48.2438
543.171
-71.101
9.14352
550.441
-55.7013
63.8589
551.872
-56.3638
97.1357
531.075
-59.9204
133.885
552.629
-60.1843
174.803
588.881
-59.0819
224.247
644.392
-55.5852
305.361
683.041
-49.1803
389.856
700.628
-42.7979
466.316
695.246
-42.9825
522.972
676.032
-52.7836
560.931
654.239
-58.8964
594.026
637.315
-47.9289
634.462
632.247
-26.4326
658.15
619.818
-13.9033
679.862
628.639
-29.1772
708.858
624.52
-44.0826
747.69
630.337
-72.7699
620.18
-88.2874
-127.485
560.537
-68.1739
-46.4476
573.474
-72.3658
11.0125
580.241
-58.2787
63.7521
581.228
-57.1306
100.668
559.316
-60.3205
138.521
573.531
-60.4895
178.42
599.805
-58.9045
224.821
644.87
-57.6786
292.416
682.245
-50.8263
371.025
704.192
-43.8091
445.316
706.682
-42.8766
506.409
693
-44.9573
549.295
678.602
-37.1864
587.147
667.841
-19.6769
623.262
658.85
-9.00349
650.083
649.942
-20.9589
683.991
663.119
-50.9409
723.587
664.531
-75.1312
758.367
676.885
-88.6617
652.376
-77.0445
-122.175
595.488
-66.851
-44.0897
605.232
-71.1776
13.8778
611.755
-61.0085
63.9968
613.286
-57.8001
102.246
591.048
-63.5661
141.072
599.542
-64.6382
180.689
617.427
-61.2272
224.408
650.382
-58.9634
284.34
684.399
-56.1864
353.859
709.326
-50.0269
425.058
718.728
-46.9676
487.053
713.533
-44.6925
539.057
703.162
-32.8406
590.884
689.917
-18.8633
631.99
682.339
-21.5213
665.038
685.801
-47.2169
705.059
703.736
-74.7518
731.588
707.184
-83.0001
740.356
701.414
-66.6656
650.692
-49.1274
-121.064
631.228
-69.8266
-44.1403
638.043
-74.2243
14.494
644.586
-65.8339
63.7641
647.025
-63.3436
102.996
625.7
-72.5922
142.652
630.339
-73.7495
183.431
642.294
-67.9054
225.429
664.001
-62.471
279.568
690.799
-60.1888
341.865
715.847
-57.871
407.72
731.238
-55.6467
469.13
734.903
-47.9179
528.273
728.159
-30.8209
586.1
715.087
-21.2097
626.904
713.181
-34.4156
667.726
725.11
-67.6665
711.536
728.084
-79.6324
721.462
715.302
-64.8718
715.61
691.974
-44.6882
574.037
-19.941
-118.805
666.924
-71.0831
-43.5844
671.535
-76.9053
15.203
678.345
-69.4563
62.7891
682.15
-69.7679
100.662
661.773
-79.307
140.346
663.566
-80.2842
181.6
672.081
-74.2319
223.517
685.639
-67.4154
273.986
704.198
-64.0395
330.874
726.548
-63.2024
390.388
745.186
-61.1801
451.311
754.396
-51.1256
516.628
749.78
-37.4872
577.962
744.299
-38.9691
631.636
752.627
-61.7771
679.646
760.305
-79.1985
704.851
738.467
-60.4948
695.702
713.418
-41.0812
633.763
634.524
-19.0659
530.299
-2.65911
-117.011
-71.3125
-43.3288
-77.4987
15.2965
-71.2567
63.3235
-74.3402
102.574
-82.7386
141.772
-84.1029
182.698
-79.6717
223.835
-73.974
270.826
-70.3606
323.565
-69.6299
380.931
-67.5872
441.943
-60.1247
505.613
-54.3299
565.678
-63.5244
619.94
-78.2721
653.608
-68.631
653.594
-43.347
578.568
-18.2298
533.427
-2.22319
-14.6143
-232.877
-233.844
-41.4476
-189.421
-248.425
-40.1959
-153.589
-260.156
-35.7476
-113.334
-276.525
-38.9506
-61.6351
-309.599
-41.3342
1.65254
-326.89
-42.2783
74.1439
-336.249
-44.0121
164.098
-336.81
-43.7654
253.313
-325.719
-42.9726
322.27
-277.711
-42.0296
375.968
-222.345
-41.2433
419.946
-181.588
-40.789
457.759
-158.158
-42.8279
493.149
-142.941
-41.6426
527.58
-136.016
-45.8647
560.721
-130.201
-45.4264
595.007
-124.372
-45.3688
630.147
-123.076
-47.9524
665.2
-120.667
-49.4262
-118.718
-50.7097
-246.401
-191.036
-40.3307
-202.707
-206.07
-35.6795
-172.426
-215.323
-29.0291
-136.771
-249.031
-32.8303
-81.5883
-292.165
-38.8576
-8.7988
-312.653
-40.015
74.4804
-319.129
-42.3057
185.821
-320.928
-41.5418
303.222
-291.786
-39.1776
381.264
-219.54
-37.9786
427.263
-151.474
-36.8328
459.368
-101.647
-36.5178
487.996
-72.3402
-40.9534
516.051
-56.5642
-41.1671
544.995
-51.8831
-46.722
574.566
-49.8834
-48.4635
605.549
-47.0689
-48.8665
637.681
-46.9387
-51.6068
670.445
-46.1075
-54.3555
-45.6724
-56.1509
-257.665
-154.292
-35.8969
-211.865
-173.942
-29.1638
-195.812
-196.845
-24.4098
-168.156
-55.6028
-27.1341
-60.5558
-56.4428
-61.0802
-100.045
-72.1914
-37.4094
-72.4357
-73.0364
-72.7983
-17.3618
-73.3735
-39.2031
-75.4842
-73.7864
-75.9236
77.7847
-74.0068
-40.3404
-73.5512
-74.2453
-73.7765
209.304
-74.966
-39.3748
-75.4401
-75.04
-75.2351
352.609
-66.1791
-34.0285
-55.1135
-66.3612
-54.3409
428.141
-134.953
-31.1834
457.937
-77.9794
-29.9827
478.118
-36.1007
-26.6933
499.955
-12.3092
-28.7805
524.69
-0.499419
-28.9821
552.178
5.08923
-35.5037
581.578
6.87763
-38.5887
612.681
9.64399
-41.8476
645.141
10.0236
-46.6012
678.476
10.7958
-50.1779
11.4589
-52.7651
-274.652
-112.449
-38.2671
-246.799
-135.863
-32.5292
-55.237
-166.935
-28.0552
-60.6169
-56.5548
-61.0985
9.4297
-56.831
-56.1177
-8.63324
13.6011
-38.943
-11.8777
53.5419
-17.4763
-18.0793
-17.4551
-18.2271
13.0392
27.839
-15.1373
-11.7504
-17.7141
-17.4235
-17.6663
-17.5005
13.3217
3.87725
8.11491
-12.1503
-18.0071
-17.7482
-17.961
-17.777
13.0097
-21.2148
35.3399
-11.6609
-18.1317
-17.8063
-18.1601
-17.8391
-63.1998
11.0875
85.9262
-59.0752
-9.72945
476.811
-41.6382
-27.7217
-109.598
-114.154
-109.577
-114.379
483.983
-12.2511
-32.6203
491.364
15.8387
-32.0547
507.265
44.1751
-34.1336
528.28
54.2354
-32.3984
553.249
60.7546
-37.3823
581.868
61.3014
-40.0807
613.415
61.3187
-42.2948
646.768
60.6946
-47.2179
681.042
58.6683
-52.1206
58.5189
-55.8536
-307.193
-60.7609
-40.0915
-289.15
-80.7386
-37.7959
-70.7881
-101.136
-36.8161
-71.765
-71.3625
-72.2335
11.4603
-40.8945
-10.7799
51.3349
-17.119
-16.9196
-17.1667
-16.8866
2.60163
2.41228
28.3807
0.372049
-1.94711
514.46
30.0301
-41.6334
-121.975
-133.88
-122.623
-135.175
506.74
35.7706
-42.9269
496.404
46.7948
-41.0926
499.396
65.7596
-37.6311
514.348
81.8058
-36.6807
535.902
92.9266
-42.409
562.61
97.8616
-44.4548
593.249
99.6151
-48.2159
626.6
100.666
-55.1849
661.016
96.6512
-60.8811
96.5739
-64.1065
-326.08
1.38707
-41.1582
-311.854
-9.39769
-38.7644
-73.1444
-18.5558
-38.0803
-75.549
-73.5675
-75.9255
12.5583
29.1455
-15.2614
-11.3193
-17.8253
-17.3863
-17.8077
-17.4331
3.12206
-1.5483
34.981
2.41685
-2.96173
589.552
94.2244
-46.5889
-144.198
-150.001
-146.321
-152.532
581.925
94.471
-45.5502
566.352
96.9239
-43.6668
550.826
103.547
-40.8907
551.521
118.892
-39.5897
563.633
130.708
-44.5825
582.268
136.512
-46.5364
606.757
138.979
-50.343
636.173
140.825
-56.8972
667.957
136.9
-62.7469
136.272
-66.546
-335.825
73.7322
-43.4637
-319.224
74.2626
-41.7193
-74.112
77.2824
-39.9317
-73.6123
-74.2098
-73.7364
13.2895
4.01141
7.98428
-11.9027
-18.024
-17.7718
-17.9822
-17.7931
3.08107
-5.12258
38.2899
6.02561
-2.94342
641.357
164.007
-44.2792
-157.083
-162.063
-159.553
-164.663
636.436
161.922
-43.3308
628.485
160.272
-42.7336
615.327
160.428
-40.8756
604.756
164.425
-38.0598
605.662
171.411
-42.3793
613.675
175.499
-44.688
628.514
177.374
-47.52
650.773
179.867
-52.8762
678.439
177.751
-59.1592
177.434
-64.5633
-336.55
163.715
-44.227
-320.972
186.206
-42.5376
-74.9094
209.902
-41.2701
-75.1065
-75.1533
-75.1829
13.6814
-21.369
35.8489
-12.2736
-18.0797
-17.8009
-18.0461
-17.8077
3.09462
-8.58646
41.1489
9.49275
-2.93433
693.322
243.045
-41.9913
-167.88
-171.473
-170.493
-173.996
698.05
237.05
-41.1453
697.986
229.946
-41.2043
692.984
227.51
-41.2449
681.205
225.098
-39.5429
670.462
222.445
-38.9891
668.054
221.726
-43.3362
670.888
221.17
-47.2864
680.789
221.543
-50.2117
698.205
219.719
-54.8357
218.278
-61.0919
-324.521
253.082
-44.75
-290.398
303.621
-42.8518
-64.8418
353.142
-41.0696
-53.6657
-65.9667
-54.1849
-62.3006
13.3751
-57.7763
85.696
-12.9053
2.76942
4.48679
0.996595
29.6174
-4.27495
3.20087
-1.40662
2.26137
33.9884
-3.06464
3.10408
-4.99249
5.88588
37.3419
-2.96612
2.93307
-8.42262
9.26199
40.5556
-2.79025
-12.6263
-17.0992
12.051
147.065
158.321
-10.4121
-19.6191
-12.5465
-19.4739
-22.5433
-16.876
-22.2954
677.555
450.951
-31.7232
-160.799
-146.715
-164.262
-149.97
699.061
394.351
-38.7131
711.826
363.736
-41.6788
718.109
340.714
-42.888
716.635
321.469
-40.7546
710.829
308.034
-38.1161
707.69
295.154
-38.6354
708.295
285.477
-44.1147
712.523
279.39
-49.5697
722.316
272.402
-53.3002
267.969
-58.8105
-275.859
321.927
-44.8817
-217.729
380.956
-43.0838
-131.714
427.728
-39.8725
-39.9551
473.854
-40.35
-109.135
-113.952
-108.989
-113.866
27.5424
505.624
-48.0211
-120.605
-130.997
-121.773
-132.481
88.933
576.366
-48.5268
-139.816
-145.877
-142.521
-149.169
159.228
632.433
-44.7088
-153.702
-159.573
-157.394
-163.364
247.88
690.001
-40.6696
-167.516
-172.773
-171.236
-176.462
433.996
680.898
-30.6304
-166.196
-154.315
-170.007
-155.557
583.336
597.437
-40.4569
649.458
505.087
-28.8424
681.422
455.262
-34.1914
705.073
434.51
-40.0571
720.857
415.338
-40.526
726.631
394.745
-37.4878
728.573
375.522
-34.8213
732.014
358.623
-38.4484
737.084
344.762
-45.4715
745.435
331.855
-52.2235
322.88
-58.6673
-220.418
375.602
-44.8122
-149.819
426.916
-42.5197
-75.7996
457.507
-38.2681
-10.0759
481.959
-42.8226
34.1889
497.76
-47.6501
90.0625
570.013
-47.5274
157.921
627.96
-44.0579
235.634
692.154
-40.45
385.265
697.165
-35.8293
493.134
654.1
-28.8508
571.663
581.479
-29.3928
626.122
518.921
-20.1206
667.068
498.239
-30.4568
698.52
486.926
-33.2654
716.28
469.983
-35.8308
726.215
448.538
-33.9844
736.277
428.141
-35.9759
747.43
411.719
-43.3586
761.461
393.114
-50.9972
381.194
-58.4501
-180.194
419.615
-44.5807
-100.389
459.137
-42.0566
-34.4651
477.854
-33.8243
18.3098
490.275
-39.2467
45.8472
489.631
-45.0628
93.5833
555.35
-46.0463
156.449
620.357
-43.6871
226.428
691.298
-40.2926
358.532
708.285
-38.998
450.796
681.814
-33.2393
512.55
630.992
-21.2617
572.238
578.511
-19.0427
625.88
547.315
-24.2822
667.298
532.086
-29.1987
689.945
520.732
-40.7082
705.555
505.084
-37.304
724.001
487.818
-37.1257
745.261
472.416
-40.5662
767.431
454.445
-44.4688
442.56
-53.5064
-157.096
457.402
-46.525
-71.1358
487.743
-45.8729
-11.0949
499.683
-34.6496
45.3922
506.273
-38.9505
64.5943
494.485
-41.5884
100.846
542.08
-43.8097
156.718
607.85
-42.1367
223.548
686.039
-40.1103
335.208
713.826
-40.383
431.652
703.047
-36.2326
497.469
668.435
-26.9758
544.413
629.878
-25.0345
594.723
600.334
-32.4055
636.064
571.049
-40.2991
660.94
556.824
-48.9346
684.326
545.356
-34.9526
709.72
537.492
-32.4496
736.398
529.018
-30.4461
761.189
518.049
-34.1841
506.799
-48.899
-142.035
492.782
-45.0632
-55.5321
515.756
-45.3489
0.403277
524.348
-33.6839
53.8986
527.628
-36.3197
79.8723
510.638
-40.2304
115.932
544.367
-42.4064
160.964
598.98
-39.6485
220.857
674.858
-38.3099
316.023
712.044
-37.7876
410.3
717.273
-35.6439
486.433
697.356
-28.2353
533.066
668.267
-26.2897
568.579
639.866
-38.632
605.41
607.814
-49.3028
637.613
592.337
-45.3487
672.059
581.031
-23.5943
697.13
585.58
-22.733
722.25
584.374
-22.12
751.363
578.67
-35.0073
566.798
-56.7937
-135.216
527.242
-48.9913
-50.8804
544.696
-50.2888
5.87686
551.885
-39.3229
60.0816
552.898
-40.5934
91.417
533.177
-45.3124
127.762
557.715
-46.9593
167.856
600.862
-43.2961
218.134
665.32
-38.2848
302.283
706.476
-35.0968
389.185
722.935
-32.76
467.778
714.665
-31.1138
522.855
690.442
-35.0599
560.036
663.123
-43.1255
594.47
638.691
-41.7854
634.668
632.343
-25.4401
665.826
620.475
-9.16219
689.877
628.222
-17.9278
716.848
624.964
-28.302
753.829
629.78
-54.8311
620.603
-73.1035
-129.403
560.411
-48.2741
-48.799
574.258
-51.6106
7.84155
581.311
-41.7269
60.496
581.751
-42.7323
96.3082
560.692
-46.6767
133.654
577.336
-48.1801
172.376
609.655
-44.772
218.359
663.564
-41.9658
289.62
703.478
-36.0686
369.86
725.435
-31.1345
445.113
725.188
-29.385
505.316
706.759
-30.56
548.414
686.276
-27.4484
585.758
671.824
-15.815
624.089
664.429
-4.70013
654.11
652.376
-10.6683
687.041
662.396
-34.4965
725.875
662.792
-57.6137
763.202
676.412
-77.6575
658.386
-70.2564
-123.554
594.786
-47.938
-45.9024
605.31
-51.6185
10.8377
612.475
-44.3955
60.6279
613.521
-44.3857
98.0987
591.937
-49.8143
136.341
602.466
-51.5501
174.586
625.113
-47.1763
218.542
666.842
-44.9598
280.875
704.263
-42.063
352.857
729.012
-35.4228
423.76
735.543
-31.5768
485.555
725.541
-30.9986
537.564
711.575
-24.8126
588.366
697.609
-13.7801
632.025
689.406
-12.8348
665.53
686.433
-32.3013
704.339
702.007
-61.3964
736.652
707.489
-75.6448
750.723
708.77
-63.8672
662.184
-42.876
-122.267
630.054
-50.3035
-45.7789
637.572
-54.0768
11.2684
645.04
-48.7874
60.3123
647.106
-48.9645
99.3846
625.743
-56.5137
138.129
632.402
-58.1453
177.256
647.747
-52.3233
219.47
677.199
-47.6995
275.629
708.747
-46.7344
339.879
733.924
-42.6157
406.812
746.454
-39.6725
468.551
746.533
-35.4807
526.793
738.283
-23.8438
584.534
723.907
-14.4955
627.45
718.342
-22.1498
666.773
725.109
-52.801
712.023
731.677
-72.9346
728.551
722.559
-63.8333
727.762
705.953
-38.9482
594.361
-5.30952
-119.845
665.196
-51.5194
-44.8982
670.429
-56.482
12.185
678.443
-51.8977
58.5072
681.552
-53.4213
95.5194
660.486
-61.8623
134.247
664.71
-63.762
174.965
675.852
-58.4191
217.696
695.329
-52.4464
269.537
718.984
-50.1482
328.089
742.456
-49.0788
388.629
759.82
-47.5739
449.969
767.367
-40.2979
514.374
762.003
-28.9926
576.692
753.128
-28.4077
630.77
756.29
-47.8178
679.617
763.122
-70.899
712.598
747.496
-59.2113
710.718
724.161
-35.9909
655.246
654.525
-5.99871
544.723
23.495
-117.949
-52.5372
-44.575
-57.962
12.7755
-54.175
58.5492
-56.8991
95.816
-64.8553
134.178
-67.2001
174.853
-63.9308
216.735
-59.1052
265.683
-55.9562
319.716
-55.5253
377.73
-54.8506
438.667
-49.2187
503.034
-43.5488
564.065
-50.5095
620.085
-66.4363
659.111
-63.7601
664.134
-38.1013
598.091
-4.02245
547.768
23.2795
14.7015
-237.42
-236.339
-29.4237
-194.877
-250.349
-28.7751
-159.66
-262.125
-25.9244
-118.849
-283.371
-27.9022
-65.3153
-318.431
-29.7904
-0.276227
-336.841
-30.6743
73.9477
-344.792
-31.9327
165.731
-345.681
-32.2737
256.031
-332.954
-31.7524
325.37
-283.376
-30.7539
378.892
-227.145
-29.897
422.24
-184.643
-29.4084
459.282
-160.79
-30.711
493.996
-145.34
-29.5652
527.98
-138.384
-32.1853
560.668
-132.761
-31.9215
594.507
-127.137
-32.1725
629.413
-125.471
-33.7875
664.61
-123.576
-34.7659
-122.186
-36.0202
-251.719
-193.525
-28.6121
-208.608
-206.884
-25.3501
-180.045
-218.522
-20.9037
-143.805
-256.485
-23.252
-85.3212
-302.514
-27.8772
-10.5247
-321.866
-29.0091
74.9466
-326.463
-30.6482
188.352
-328.299
-30.8084
306.689
-296.98
-29.3039
384.832
-223.019
-27.8163
430.42
-155.541
-26.2014
461.617
-106.694
-25.6483
489.253
-77.6738
-28.5856
516.77
-60.4048
-28.4132
545.241
-54.9785
-31.8199
574.442
-52.2547
-33.0156
605.069
-49.4013
-33.7847
637.097
-48.9356
-35.5955
670.085
-48.5131
-37.3952
-48.785
-39.0344
-263.238
-158.088
-25.7967
-219.486
-178.066
-20.9063
-206.049
-204.415
-17.4689
-177.929
-58.3662
-18.7183
-63.8597
-58.8982
-64.4258
-103.292
-75.0477
-26.0808
-74.7284
-75.1971
-74.8325
-18.004
-74.8375
-27.7282
-77.1658
-74.9599
-77.3582
79.5555
-75.4519
-28.6155
-74.9507
-75.5308
-74.9777
212.034
-76.32
-29.4164
-76.477
-76.3219
-76.2895
354.619
-66.7228
-26.8139
-55.223
-66.8141
-54.2493
429.902
-136.764
-24.2705
461.013
-80.7052
-21.3959
481.43
-39.0592
-17.4492
502.395
-15.8164
-19.1946
526.079
-5.0309
-19.7645
552.7
0.59565
-24.778
581.197
2.71945
-27.025
611.563
5.10764
-29.3002
643.567
5.21129
-32.6152
676.778
5.11084
-35.0105
5.29208
-37.2868
-282.344
-117.869
-27.722
-255.172
-142.158
-23.7433
-58.6066
-175.222
-20.6048
-63.4091
-59.4001
-63.631
7.33817
-59.7393
-59.0241
-6.18001
9.78516
-39.9223
-7.57939
55.9382
-18.0714
-18.7353
-18.0268
-18.8484
10.1237
28.081
-15.0375
-8.44166
-18.243
-17.9583
-18.1581
-18.0383
10.5476
3.8112
8.2112
-8.82579
-18.4646
-18.1877
-18.3832
-18.2391
10.2869
-21.7285
36.3812
-8.93374
-18.6091
-18.1931
-18.5534
-18.2766
-64.4777
8.51178
86.1285
-60.1244
-6.96056
478.982
-45.9492
-25.4711
-109.518
-114.802
-109.724
-115.292
486.083
-14.554
-26.565
492.906
11.6657
-21.489
508.563
38.7307
-22.0081
529.155
49.8033
-22.3566
553.16
56.2371
-26.829
580.372
57.6126
-29.7863
610.364
57.1005
-32.1711
642.5
55.8568
-35.7352
675.826
53.2804
-38.9511
52.5506
-41.5155
-316.492
-65.9719
-29.7552
-299.997
-86.0737
-28.5439
-73.2266
-104.583
-27.5089
-73.9478
-73.6931
-74.1055
9.958
-40.7372
-9.13892
53.5487
-17.4133
-17.1514
-17.393
-17.1705
1.97855
2.88081
28.5919
-0.310694
-1.38049
520.661
27.5124
-35.6142
-122.744
-135.747
-122.445
-135.133
518.951
34.205
-34.8989
512.128
44.9903
-32.9689
512.748
61.6216
-29.1745
524.312
76.5928
-26.9818
543.632
86.4181
-31.1752
567.485
91.6453
-33.0682
595.388
93.0795
-35.7871
626.374
94.4815
-40.1479
658.994
90.9282
-43.9314
90.0984
-46.2502
-336.118
-1.99175
-30.1084
-321.878
-12.905
-28.3782
-74.8422
-20.6699
-27.486
-77.2353
-75.1951
-77.3941
9.78189
28.6873
-15.4008
-8.34425
-18.2142
-17.808
-18.1844
-17.8793
2.54759
-1.38017
35.9854
2.33721
-2.44624
605.357
92.958
-35.912
-147.315
-153.829
-148.091
-155.465
602.089
91.5136
-35.1182
591.851
93.7939
-34.1002
575.668
97.7494
-32.3124
571.228
110.492
-30.3749
579.513
122.456
-33.6272
594.71
129.182
-35.0656
615.697
131.849
-37.1149
641.798
134.599
-40.7652
671.39
131.51
-44.5073
130.123
-47.4241
-344.086
71.6558
-31.3943
-326.05
71.8662
-29.8229
-75.3674
75.7936
-27.9509
-74.9603
-75.3484
-74.996
10.2306
4.22176
7.68899
-8.58233
-18.4538
-18.1868
-18.3829
-18.2314
2.50306
-5.17946
39.5281
6.07508
-2.30299
663.286
160.767
-31.4295
-161.386
-166.946
-164.049
-169.769
661.768
158.064
-31.5303
657.134
155.955
-31.5967
646.82
156.201
-31.2164
633.337
158.387
-29.1152
629.911
164.775
-31.2261
634.622
169.422
-33.4238
645.549
171.866
-35.0289
663.612
173.892
-37.7705
687.656
172.618
-41.5415
171.946
-45.4667
-344.593
162.564
-31.4247
-327.932
184.735
-29.4213
-76.5331
208.812
-27.4525
-76.6408
-76.6348
-76.8111
10.7277
-20.9361
35.306
-8.97142
-18.7086
-18.2199
-18.5956
-18.3031
2.35978
-8.49958
42.4612
9.43288
-2.14287
714.798
241.405
-30.1841
-173.308
-177.033
-176.35
-179.661
720.451
234.739
-29.348
722.126
227.337
-30.3574
720.131
223.239
-30.9273
711.655
221.581
-30.0579
700.059
218.954
-29.2333
694.273
216.789
-31.8904
694.421
217.372
-35.608
700.139
217.037
-37.2659
712.636
215.764
-39.6859
213.841
-43.5259
-333.276
253.672
-31.5968
-299.005
304.217
-28.9823
-67.9658
353.283
-25.9957
-55.7877
-67.8806
-56.0131
-63.7021
11.7895
-60.6261
85.8753
-8.21691
2.90134
2.75039
-0.275633
28.4833
-2.29239
2.76953
-1.13306
2.0453
35.436
-2.67413
2.52882
-4.73574
5.59852
39.3232
-2.38929
2.29643
-8.11581
8.98531
42.5738
-2.16712
-15.6894
-13.2773
9.00075
158.717
157.947
-7.94103
-20.8628
-14.4564
-20.5613
-21.206
-13.6165
-20.8943
697.956
445.057
-23.1412
-169.182
-155.31
-169.158
-154.415
719.215
391.025
-28.4871
732.573
362.046
-28.6391
741.042
339.772
-29.133
742.6
319.4
-30.491
737.781
305.254
-30.1003
732.883
294.169
-29.6046
731.703
283.182
-33.2806
733.834
276.547
-37.9493
739.858
270.121
-39.9701
265.026
-42.9389
-284.214
323.727
-31.6197
-225.798
383.391
-28.933
-143.548
430.236
-25.2389
-50.4997
479.702
-27.4878
-109.293
-114.488
-109.518
-114.807
23.1243
516.701
-36.4446
-122.31
-133.967
-122.233
-133.832
87.5469
599.637
-37.7539
-145.624
-152.504
-146.591
-154.068
156.905
661.013
-33.9753
-161.201
-167.137
-163.12
-169.242
244.983
715.945
-31.3064
-174.717
-179.282
-176.523
-180.83
442.368
699.965
-24.487
-168.709
-154.788
-172.531
-157.822
598.919
603.987
-38.7948
667.533
508.859
-18.9758
699.764
456.261
-21.9691
723.639
432.974
-28.3119
741.725
413.694
-32.7942
749.196
393.391
-31.0668
750.636
374.449
-27.1166
753.07
357.707
-28.9368
756.949
343.645
-33.9021
763.475
330.146
-39.0208
320.909
-43.194
-227.964
377.799
-31.8439
-158.484
429.755
-29.1223
-87.3102
462.153
-24.6818
-20.1975
489.15
-30.3428
28.4694
513.304
-37.5218
86.0419
595.84
-37.5989
155.017
658.291
-33.9631
234.833
719.741
-31.0417
388.785
719.936
-31.5031
504.41
670.557
-21.1175
589.25
593.468
-22.3867
641.74
521.053
-14.6967
681.017
493.933
-26.9475
714.673
484.192
-29.9964
735.564
470.436
-28.7515
745.529
448.628
-25.7352
754.708
427.232
-26.4131
764.409
411.423
-31.848
776.961
392.648
-38.4806
378.966
-44.1863
-184.874
421.491
-32.1571
-108.508
461.247
-29.7908
-45.2891
481.955
-22.9956
5.61578
494.965
-28.1042
38.2968
505.703
-36.3488
88.3851
584.005
-36.9854
152.513
652.743
-34.0545
224.571
720.09
-31.5931
360.98
732.786
-31.6165
456.818
701.869
-25.597
518.859
645.789
-17.5797
578.688
583.204
-20.1012
632.093
544.273
-22.7367
677.449
530.73
-21.9085
707.051
522.034
-28.9876
722.607
505.292
-27.6938
738.776
487.126
-28.5813
757.263
472.812
-32.4593
778.794
453.772
-36.3526
438.904
-42.4544
-160.832
458.718
-33.9544
-78.2197
488.977
-33.1306
-18.4897
502.432
-25.5135
34.6982
509.446
-29.561
54.7422
506.628
-33.6046
91.7799
566.737
-35.6565
152.109
641.479
-33.5858
220.303
716.934
-31.771
337.011
739.915
-31.3155
434.281
724.243
-29.8463
496.032
684.337
-26.903
543.595
635.324
-23.015
598.167
600.401
-24.1099
645.196
570.761
-19.9433
676.566
557.116
-34.3727
696.327
545.25
-29.0219
718.754
536.452
-28.9213
744.493
527.774
-28.214
771.531
514.495
-30.0541
502.541
-38.5207
-145.13
493.62
-33.0606
-60.3017
516.56
-32.9692
-6.15406
525.717
-25.5871
46.1328
529.555
-29.0399
69.8086
518.933
-32.0424
104.403
562.7
-34.2871
153.653
627.85
-31.4539
218.211
707.491
-30.4355
316.161
739.711
-30.8931
412.231
740.004
-32.4072
486.434
715.715
-28.2871
534.229
679.639
-21.7496
571.518
647.849
-21.7687
612.496
613.725
-32.6515
643.685
595.469
-39.4234
675.128
580.827
-24.4687
703.607
581.62
-22.2258
731.207
580.68
-20.3208
759.854
575.678
-27.5295
564.353
-40.3466
-138.064
527.822
-35.6871
-54.5238
545.138
-36.1558
0.146491
552.217
-29.8682
52.9627
553.357
-32.6386
80.6252
539.502
-35.9413
116.6
571.924
-37.5939
159.71
624.855
-33.6137
214.545
695.354
-29.7305
301.658
733.833
-29.3303
390.22
745.715
-29.9012
469.478
734.173
-27.4676
524.48
707.127
-27.2691
560.483
677.815
-33.0672