/*--------------------------------*- C++ -*----------------------------------*\
  =========                 |
  \\      /  F ield         | OpenFOAM: The Open Source CFD Toolbox
   \\    /   O peration     | Website:  https://openfoam.org
    \\  /    A nd           | Version:  9
     \\/     M anipulation  |
\*---------------------------------------------------------------------------*/
FoamFile
{
    format      ascii;
    class       volScalarField;
    location    "0.003";
    object      rho;
}
// * * * * * * * * * * * * * * * * * * * * * * * * * * * * * * * * * * * * * //

dimensions      [1 -3 0 0 0 0 0];

internalField   nonuniform List<scalar> 
9720
(
30.1315
33.9974
36.4067
38.1153
39.6028
40.0522
39.6427
36.654
31.6204
26.8925
22.768
19.5434
17.1396
15.3783
13.9332
12.7699
11.7947
10.8074
10.0014
8.76217
33.9469
38.0207
40.2875
41.0907
42.6265
43.7119
43.1236
38.2826
29.6437
22.3347
18.0978
15.6879
14.0488
12.8464
11.8385
10.9877
10.2229
9.4341
8.7658
7.70675
36.2887
40.1904
42.3988
41.2783
42.8068
45.2101
45.1328
38.9391
26.0188
16.4889
13.5629
12.7848
12.4081
12.0152
11.5307
10.9964
10.3974
9.71175
9.08433
8.0272
38.0388
41.0599
41.3498
38.7372
36.2305
45.4737
49.4976
45.2612
26.449
8.93412
9.26065
9.89087
10.4061
10.5544
10.4845
10.3051
9.98825
9.49978
8.98489
8.01677
39.5738
42.6062
42.798
36.5732
7.41415
6.68814
7.45222
8.68838
9.93285
10.7073
10.6819
10.4817
10.0987
9.51961
8.95915
7.95682
39.9957
43.6163
45.0526
45.4749
7.41054
7.53084
7.80458
8.45394
9.34052
10.2234
10.4983
10.4025
10.1094
9.56236
8.97761
7.92597
39.4472
42.7828
44.5859
49.1178
8.22184
8.31747
8.44093
8.67571
9.15537
9.8013
10.2872
10.279
10.1028
9.62978
9.03411
7.894
36.2823
37.633
38.0029
43.993
8.97765
8.17501
8.32164
8.52058
8.83154
9.35138
9.96175
10.2076
10.1607
9.89794
9.38481
8.11727
31.2056
29.0031
25.2822
24.6985
6.91585
7.44253
8.32219
9.08299
2.64954
3.81046
5.21004
6.2642
7.07043
7.83388
8.6204
9.3555
9.66664
9.59852
9.32304
8.2979
26.5035
21.8735
16.1485
8.89658
6.77465
7.60514
8.42523
8.31391
4.16569
2.45096
2.87685
3.85161
4.9441
5.97583
6.9608
7.88129
8.61322
8.91503
8.86295
8.19995
22.4287
17.7653
13.3479
9.22662
7.54951
7.90501
8.56096
8.45588
5.58901
3.02215
2.43106
2.65243
3.3055
4.22373
5.24142
6.25937
7.18288
7.87459
8.12128
7.81761
19.2692
15.424
12.593
9.81353
8.7281
8.5572
8.81065
8.67215
6.58786
4.11778
2.74503
2.47339
2.55867
2.97895
3.79336
4.7854
5.7472
6.62768
7.23708
7.17384
16.9233
13.8363
12.2285
10.2875
9.89524
9.39999
9.28388
9.01422
7.37062
5.25534
3.52443
2.61993
2.5399
2.64631
3.03739
3.7144
4.54736
5.47079
6.29097
6.34524
15.2057
12.6727
11.8552
10.4346
10.6163
10.2232
9.88517
9.54409
8.12788
6.30472
4.52629
3.15675
2.69637
2.70375
2.8484
3.17888
3.78407
4.6077
5.3181
5.28886
13.7924
11.6943
11.3918
10.3719
10.5855
10.4763
10.3116
10.1005
8.91609
7.29324
5.57156
4.05698
3.18456
2.88981
2.88077
3.07673
3.39731
3.8328
4.07976
4.26165
12.653
10.8675
10.878
10.2077
10.3868
10.3803
10.2959
10.2923
9.60821
8.20707
6.59378
5.0904
3.94191
3.30403
3.12211
3.112
3.11002
3.17015
3.35904
4.00921
11.6958
10.1212
10.297
9.90853
10.0146
10.0964
10.1138
10.2328
9.82354
8.90378
7.51718
6.0819
4.83365
3.99169
3.5423
3.1609
3.01407
3.04111
3.29216
4.22744
10.7227
9.3468
9.62664
9.43557
9.45273
9.55575
9.64443
9.9435
9.72631
9.11836
8.17897
6.9762
5.79584
4.89049
4.08249
3.27918
3.09539
3.17981
3.69702
5.83139
9.92646
8.68797
9.00907
8.92797
8.90348
8.97181
9.06021
9.40011
9.4226
9.03666
8.35012
7.51695
6.58578
5.60587
4.35925
3.50595
3.39881
3.74117
5.34923
8.07688
8.70127
7.64252
7.96393
7.96426
7.90829
7.91337
7.92811
8.12299
8.33199
8.30882
7.98239
7.39786
6.59325
5.55819
4.51174
4.20895
4.3828
5.90901
8.12833
7.61417
28.0299
31.6531
33.9253
35.4766
36.7661
37.0635
36.5567
33.6481
28.914
24.4833
20.6746
17.6933
15.4799
13.8814
12.5611
11.5194
10.663
9.78252
9.05866
7.9563
31.6132
35.4649
37.6105
38.0581
39.4595
40.5496
39.9181
35.3445
27.2246
20.3339
16.3659
14.1954
12.7333
11.6608
10.7451
9.97828
9.30385
8.59694
7.99039
7.04133
33.8464
37.5368
39.7476
38.0857
39.5457
42.2714
42.1438
36.299
24.1648
15.0754
12.2267
11.5331
11.2423
10.9476
10.5376
10.0753
9.55538
8.94495
8.37546
7.41721
35.4814
38.1798
38.3308
36.0607
34.3206
43.6702
47.2073
43.1354
25.1468
8.2652
8.42528
8.9137
9.38066
9.6287
9.58593
9.45185
9.19852
8.76689
8.30223
7.42931
36.7854
39.3998
39.2941
33.1928
6.73388
6.33295
6.88304
7.87504
8.9783
9.82444
9.85457
9.7206
9.40097
8.86973
8.3529
7.43604
36.974
40.3807
41.9569
43.2402
6.9326
7.13667
7.3035
7.76878
8.52793
9.34694
9.73396
9.68299
9.45376
8.96631
8.42366
7.44683
36.3161
39.5627
41.6795
46.803
7.68268
7.79163
7.83601
7.97466
8.33101
8.89608
9.4552
9.5541
9.43882
9.05802
8.52784
7.48212
33.2782
34.7608
35.5464
42.1915
8.31415
7.53582
7.62964
7.78124
8.02542
8.45088
9.03866
9.4294
9.43185
9.26569
8.87424
7.77567
28.4751
26.5446
23.3854
24.1031
6.6843
6.96867
7.79832
8.44762
2.2881
3.30577
4.58385
5.55895
6.29523
7.00348
7.74261
8.46507
8.90608
8.90235
8.73787
7.93162
24.054
19.7692
14.5527
8.05336
6.28976
7.1715
7.93963
7.72888
3.62121
2.01558
2.37104
3.2539
4.2891
5.26885
6.1811
7.03939
7.76705
8.21145
8.23344
7.77666
20.2921
15.9197
11.831
8.223
6.83195
7.3133
7.95809
7.79912
4.94717
2.49576
2.02709
2.24101
2.85088
3.68667
4.59085
5.52121
6.40104
7.13688
7.54245
7.37275
17.3737
13.8342
11.1902
8.70156
7.81154
7.78163
8.07282
7.93336
5.8741
3.50586
2.32433
2.11423
2.17976
2.52777
3.23187
4.16091
5.10189
5.98026
6.71185
6.76036
15.22
12.4406
10.9444
9.15289
8.8962
8.53284
8.41999
8.17628
6.57433
4.59024
3.05689
2.24828
2.13907
2.21639
2.55299
3.23495
4.07094
4.95737
5.81099
5.99415
13.6702
11.4258
10.711
9.46564
9.72555
9.33884
8.97078
8.60231
7.2642
5.58742
3.98482
2.71831
2.2676
2.28548
2.50155
2.86527
3.43985
4.17501
4.92647
5.01675
12.3881
10.5546
10.3497
9.442
9.74756
9.72269
9.51893
9.18044
7.99671
6.50779
4.93759
3.52117
2.72756
2.5453
2.57914
2.80786
3.11391
3.52122
3.83104
3.97408
11.379
9.82394
9.92237
9.3294
9.61009
9.67675
9.59683
9.53012
8.71457
7.37619
5.89146
4.50428
3.499
3.00051
2.85588
2.8623
2.86488
2.90363
3.03914
3.60745
10.549
9.17829
9.4299
9.09858
9.29483
9.4463
9.47742
9.52104
9.08246
8.08842
6.77774
5.47262
4.38873
3.66904
3.27239
2.93171
2.76564
2.75916
2.9462
3.7377
9.68869
8.49351
8.84034
8.68854
8.77793
8.95022
9.08615
9.33036
9.04857
8.43878
7.47383
6.35971
5.3187
4.49808
3.80405
3.04785
2.80873
2.84403
3.21919
4.99477
8.97789
7.90108
8.28317
8.23491
8.27344
8.39739
8.54417
8.89865
8.84176
8.41687
7.77852
7.00875
6.14632
5.26061
4.15013
3.21515
3.06645
3.27295
4.49274
7.17541
7.89143
6.96875
7.3403
7.37094
7.3683
7.41054
7.48797
7.7641
7.96307
7.88438
7.54053
6.97829
6.24191
5.28885
4.24683
3.81909
3.91473
5.10248
7.23319
7.59204
27.1347
30.7331
32.9145
34.3925
35.5052
35.6975
35.0936
32.1625
27.5491
23.2628
19.6269
16.8058
14.7204
13.2231
11.9713
10.975
10.1532
9.31456
8.61574
7.54018
30.7203
34.4939
36.4484
36.5954
37.747
38.8118
38.121
33.5927
25.7999
19.2236
15.459
13.5057
12.2122
11.2306
10.3654
9.62156
8.9637
8.28259
7.69241
6.75695
32.8837
36.388
38.3197
36.0301
37.3248
40.3399
40.1612
34.3335
22.7676
14.2441
11.528
10.9098
10.7162
10.5172
10.1806
9.76527
9.2807
8.70086
8.14927
7.19595
34.3306
36.4922
35.8244
32.625
32.2433
41.7989
44.9038
40.596
23.2236
7.83691
8.02301
8.52992
9.01874
9.30636
9.27507
9.14328
8.89381
8.4763
8.02397
7.16733
35.3537
37.5194
36.6165
30.869
5.91981
6.02295
6.48182
7.34559
8.41209
9.39085
9.58651
9.48724
9.2128
8.70878
8.18239
7.24443
35.4634
38.4516
39.8216
41.2929
6.72646
6.8496
6.94651
7.30984
8.02903
8.90412
9.47793
9.468
9.29719
8.8653
8.32356
7.31002
34.7928
37.775
39.8239
44.5418
7.42588
7.54217
7.54152
7.60671
7.86533
8.39629
9.02481
9.29424
9.21516
8.91697
8.43183
7.37691
31.8828
33.2622
34.02
40.2971
7.97148
7.26426
7.30486
7.3906
7.56369
7.89561
8.45223
9.01212
9.08758
8.98544
8.68446
7.67045
27.2282
25.3607
22.2936
22.5207
5.80585
6.66636
7.48644
8.14218
2.01181
3.1022
4.29582
5.18298
5.82492
6.43748
7.11092
7.82972
8.42393
8.53691
8.43884
7.75657
22.9353
18.766
13.7163
7.35912
5.74856
6.73117
7.48076
7.23413
3.18941
1.72717
2.08153
2.91096
3.86055
4.73296
5.56799
6.3999
7.18478
7.75757
7.87302
7.51891
19.3247
15.0547
11.0394
7.54241
6.23189
6.81761
7.48102
7.29705
4.44866
2.14986
1.7286
1.93621
2.50826
3.26844
4.08885
4.96829
5.84499
6.63869
7.14252
7.04778
16.5274
13.161
10.5293
8.09981
7.10496
7.17732
7.5458
7.39919
5.34063
3.05976
1.98781
1.8194
1.8977
2.22272
2.83614
3.69017
4.61099
5.49181
6.279
6.4392
14.4709
11.9091
10.3819
8.6481
8.16956
7.88734
7.79814
7.58034
5.98569
4.05524
2.63861
1.94075
1.84204
1.8984
2.1754
2.81888
3.64283
4.49945
5.37448
5.71584
13.0035
10.9693
10.2392
9.06523
9.15842
8.7242
8.31145
7.91154
6.5954
4.95444
3.46226
2.34065
1.92774
1.93337
2.13468
2.50127
3.05386
3.74941
4.55996
4.83508
11.7825
10.1462
9.95321
9.07174
9.40523
9.30672
8.92601
8.46907
7.25345
5.79622
4.3267
3.02686
2.29152
2.16412
2.22512
2.4647
2.78546
3.23099
3.678
3.80532
10.8159
9.44165
9.57865
8.98095
9.31968
9.32075
9.19211
8.9971
7.96706
6.62782
5.2277
3.92871
3.01041
2.61408
2.5065
2.54114
2.60229
2.69412
2.79144
3.19707
10.022
8.81707
9.12686
8.76808
9.07193
9.18238
9.12115
9.05083
8.52376
7.40132
6.10947
4.87008
3.87792
3.24123
2.89933
2.65102
2.50404
2.46515
2.59506
3.19934
9.20687
8.16259
8.57407
8.38366
8.59518
8.78024
8.84023
8.94619
8.5841
7.92365
6.88174
5.75692
4.7571
3.98576
3.42143
2.80397
2.49273
2.47292
2.68589
3.96222
8.52463
7.58973
8.0381
7.94812
8.08651
8.25616
8.37573
8.63366
8.46899
7.98463
7.31874
6.50824
5.626
4.81258
3.90222
2.92847
2.66278
2.72514
3.43528
5.96961
7.46879
6.67513
7.10308
7.10404
7.16593
7.25586
7.35
7.61494
7.74783
7.58292
7.17998
6.59986
5.90245
5.02874
3.99609
3.34482
3.32709
4.05829
6.01767
7.84012
26.3293
29.8867
32.0068
33.3903
34.356
34.4905
33.856
30.9186
26.3795
22.1982
18.7129
16.0362
14.0596
12.6472
11.4629
10.5185
9.7376
8.9463
8.27799
7.21885
29.8714
33.6068
35.4549
35.3647
36.3839
37.4748
36.8398
32.3426
24.647
18.2292
14.6345
12.8747
11.7123
10.8112
10.0001
9.29416
8.66532
8.02143
7.45937
6.5361
31.9659
35.4113
37.1598
34.4343
35.6647
39.0188
38.9799
33.1542
21.6535
13.3619
10.7579
10.332
10.2435
10.1281
9.84677
9.47048
9.01937
8.47065
7.94526
7.00401
33.2358
35.1818
34.0546
30.3322
30.4515
40.439
43.4134
38.9978
21.6016
7.18642
7.39881
8.0183
8.67106
9.03087
9.00803
8.87751
8.6281
8.2276
7.79922
6.95807
34.0657
35.9834
34.8332
29.7746
5.64305
5.6126
6.04287
6.80377
7.83323
8.87572
9.3325
9.28049
9.06389
8.61555
8.10301
7.13665
34.1338
36.9407
38.3239
39.6744
6.40152
6.51405
6.59895
6.898
7.53917
8.4188
9.14839
9.21147
9.09239
8.74766
8.25426
7.24255
33.4901
36.3708
38.4469
42.8473
7.1301
7.15455
7.15817
7.21171
7.4032
7.86161
8.50999
8.91415
8.88259
8.66974
8.27028
7.28372
30.696
32.0765
32.884
38.7493
7.71866
6.76208
6.88174
6.98784
7.13887
7.39761
7.86889
8.49556
8.68514
8.61988
8.39228
7.50609
26.2126
24.4691
21.5673
21.8818
5.5293
6.2981
6.91082
7.50107
1.76436
2.6944
3.84598
4.74866
5.38905
5.93564
6.52882
7.20448
7.8566
8.1179
8.06571
7.50269
22.0598
18.0851
13.2344
7.10462
5.5249
6.38471
7.01864
6.74187
2.95072
1.50688
1.81043
2.57513
3.47677
4.27821
5.03915
5.82432
6.60044
7.22961
7.45923
7.19798
18.5708
14.4693
10.5749
7.22442
5.9186
6.46714
7.03745
6.83713
4.14385
1.92064
1.49999
1.68797
2.21581
2.90638
3.64647
4.46484
5.30422
6.09141
6.67484
6.65021
15.8765
12.6659
10.0778
7.73532
6.64003
6.76733
7.11237
6.94781
4.9845
2.77553
1.74585
1.59988
1.67288
1.95754
2.48936
3.25917
4.12486
4.96751
5.74825
6.02125
13.8908
11.4767
9.94832
8.29703
7.60654
7.39983
7.31824
7.11463
5.57062
3.69068
2.34693
1.71415
1.60308
1.65122
1.87875
2.44775
3.22559
4.03487
4.85567
5.32943
12.4815
10.5729
9.83122
8.67737
8.58988
8.22389
7.76765
7.39096
6.09341
4.48866
3.08587
2.05329
1.66764
1.66393
1.81474
2.16584
2.69954
3.33904
4.09916
4.55846
11.3093
9.77866
9.57503
8.6889
9.03619
8.89814
8.37653
7.87529
6.66604
5.24722
3.85521
2.62994
1.94587
1.82988
1.89239
2.12266
2.43827
2.87834
3.41231
3.63975
10.3761
9.09946
9.23493
8.60949
9.00255
8.98444
8.7454
8.46009
7.3399
6.02287
4.67321
3.42605
2.5666
2.22146
2.13913
2.18031
2.28463
2.45997
2.61216
2.84751
9.61134
8.49891
8.81802
8.41335
8.81692
8.88731
8.71478
8.58893
7.95691
6.78341
5.50204
4.30423
3.37705
2.79924
2.49284
2.3072
2.21782
2.17588
2.23368
2.72275
8.83669
7.87963
8.29987
8.06039
8.40189
8.57761
8.5184
8.51635
8.11993
7.36957
6.27057
5.14598
4.20377
3.47699
2.97657
2.50903
2.18841
2.1194
2.23618
3.00534
8.18086
7.33497
7.79455
7.66047
7.91742
8.11505
8.14452
8.27812
8.04842
7.52406
6.79441
5.91385
5.036
4.26502
3.53311
2.6723
2.26776
2.25685
2.5535
4.29826
7.13681
6.43348
6.87789
6.84782
6.98858
7.13252
7.19884
7.39163
7.44355
7.21178
6.73396
6.13729
5.46657
4.68883
3.74175
2.92845
2.79702
3.07519
4.35451
6.81035
25.9186
29.4544
31.5572
32.8948
33.7921
33.8882
33.2474
30.3425
25.8032
21.6408
18.1923
15.5717
13.655
12.2919
11.164
10.2649
9.51709
8.76041
8.11478
7.06135
29.393
33.0702
34.8641
34.7268
35.73
36.8407
36.2229
31.7707
24.0651
17.6872
14.127
12.4396
11.3472
10.5011
9.74187
9.07986
8.48464
7.8763
7.34189
6.42991
31.4529
34.7918
36.3301
33.3541
34.9474
38.419
38.4185
32.6345
21.1044
12.8453
10.2426
9.88192
9.85566
9.80921
9.59295
9.26347
8.84829
8.33551
7.84008
6.91472
32.6998
34.4822
33.0738
28.9519
29.7481
39.5893
42.5646
38.2758
21.1111
6.82763
6.9849
7.61535
8.36494
8.79673
8.79186
8.67749
8.44465
8.07966
7.69113
6.88027
33.4712
35.2318
33.9365
28.877
5.27163
5.40226
5.75246
6.42169
7.41324
8.45034
9.08596
9.08588
8.93972
8.55712
8.07861
7.11481
33.527
36.2308
37.6068
38.8084
6.20385
6.34656
6.4119
6.65632
7.2257
8.07602
8.87231
9.04777
8.95966
8.67687
8.23728
7.24691
32.8674
35.6622
37.7271
41.8097
6.77812
6.88574
6.8916
6.93973
7.10311
7.514
8.1767
8.67484
8.67669
8.52637
8.19382
7.26625
30.0914
31.4114
32.1931
37.6552
7.22522
6.42223
6.55815
6.67904
6.83667
7.08504
7.52915
8.17384
8.47183
8.43757
8.25926
7.44976
25.6768
23.9327
21.0262
21.0775
5.16702
6.1224
6.72016
7.21687
1.65075
2.50256
3.60422
4.4987
5.14803
5.67273
6.22204
6.88686
7.59207
7.94414
7.91988
7.41227
21.6011
17.7032
12.9423
6.91882
5.39725
6.30972
6.88681
6.53674
2.82362
1.39929
1.69047
2.42528
3.30465
4.06808
4.78389
5.56349
6.36984
7.03619
7.31312
7.08554
18.1855
14.1773
10.3693
7.08368
5.77285
6.3778
6.88824
6.62337
3.95686
1.80752
1.39213
1.57707
2.08124
2.74664
3.46273
4.26854
5.11083
5.8994
6.50719
6.50649
15.559
12.4401
9.8948
7.65656
6.45364
6.63577
6.93657
6.72571
4.77165
2.62626
1.62458
1.48147
1.56164
1.86158
2.37142
3.10883
3.95094
4.77386
5.54358
5.85303
13.6227
11.2966
9.78965
8.27866
7.39161
7.21514
7.10568
6.87971
5.35618
3.50913
2.18572
1.59021
1.50681
1.55372
1.77717
2.31147
3.04547
3.83287
4.6305
5.13919
12.2425
10.412
9.68184
8.60572
8.35595
8.02005
7.51248
7.13415
5.84915
4.25347
2.87774
1.9144
1.55849
1.55004
1.66343
1.97661
2.49863
3.13333
3.86207
4.37914
11.103
9.63285
9.43228
8.59133
8.89724
8.73755
8.12541
7.5854
6.37213
4.95878
3.61033
2.44934
1.79715
1.66548
1.71168
1.92525
2.24534
2.67726
3.21608
3.52574
10.1911
8.96547
9.10018
8.48279
8.8855
8.87594
8.54991
8.19225
7.02819
5.72399
4.41379
3.20383
2.35481
1.9949
1.93087
1.97681
2.09698
2.30889
2.50929
2.70546
9.43755
8.37213
8.69266
8.27156
8.73117
8.791
8.53785
8.39179
7.68732
6.50508
5.23911
4.04807
3.10686
2.53652
2.26361
2.10302
2.05924
2.03792
2.07113
2.49145
8.68025
7.76928
8.19195
7.93045
8.35303
8.516
8.3819
8.34097
7.9322
7.12668
6.00782
4.86617
3.90713
3.19245
2.71745
2.32819
2.0428
1.9538
2.02596
2.61778
8.03601
7.24036
7.70648
7.55822
7.89027
8.09019
8.05935
8.14211
7.88367
7.33719
6.56793
5.63226
4.7266
3.95257
3.28258
2.53814
2.08517
2.03521
2.21584
3.52337
6.98705
6.33833
6.79634
6.76686
6.95713
7.12207
7.16189
7.32
7.33225
7.06538
6.53906
5.91331
5.22002
4.46049
3.5863
2.75009
2.53399
2.65934
3.56893
5.91975
25.9195
29.4631
31.5758
32.8741
33.709
33.7812
33.1631
30.3202
25.8068
21.6446
18.1838
15.552
13.6304
12.2686
11.1442
10.2474
9.50271
8.74858
8.10509
7.05496
29.3931
33.0808
34.8941
34.6748
35.6306
36.7091
36.1121
31.7349
24.0861
17.7233
14.1395
12.4163
11.3111
10.4648
9.71043
9.05512
8.46571
7.86121
7.32913
6.42054
31.4457
34.7876
36.3433
33.1996
34.8903
38.2962
38.3042
32.5726
21.1495
12.9362
10.3102
9.8662
9.81194
9.75744
9.54559
9.2281
8.82349
8.31779
7.82571
6.90355
32.7385
34.5526
33.2227
28.5068
29.9525
39.3652
42.3196
38.0113
20.9842
6.90415
7.06422
7.66119
8.36121
8.75289
8.74565
8.63509
8.413
8.05777
7.67378
6.86641
33.5468
35.3155
33.9419
28.2604
5.02054
5.42522
5.77975
6.43893
7.40252
8.41811
9.04582
9.04953
8.90808
8.52911
8.05288
7.09251
33.6064
36.3156
37.6619
38.6633
6.13241
6.32802
6.39714
6.64619
7.21581
8.06798
8.86536
9.04362
8.9589
8.67721
8.23638
7.242
32.9072
35.7017
37.7655
41.657
6.66585
6.87171
6.87969
6.93631
7.10859
7.52576
8.20233
8.69913
8.69735
8.5425
8.20727
7.27276
30.0853
31.3983
32.1796
37.4539
7.11219
6.44015
6.56211
6.68493
6.8532
7.11201
7.56617
8.21885
8.50174
8.46351
8.27969
7.45864
25.6643
23.9172
21.0158
20.9557
5.01719
6.09882
6.67625
7.11432
1.58728
2.56901
3.67184
4.5491
5.18702
5.71171
6.26224
6.93452
7.64285
7.97714
7.94784
7.42839
21.5836
17.672
12.9238
6.87998
5.3636
6.26703
6.82033
6.43124
2.71059
1.38609
1.70331
2.457
3.33753
4.09786
4.81504
5.59749
6.40811
7.07311
7.34199
7.10737
18.1825
14.1679
10.3815
7.09244
5.74927
6.34089
6.82684
6.54036
3.8365
1.76431
1.38965
1.5831
2.09921
2.76648
3.48212
4.28832
5.1321
5.92262
6.53046
6.5298
15.5755
12.4673
9.94852
7.71907
6.46347
6.61397
6.88605
6.65349
4.67246
2.56646
1.61138
1.48248
1.56791
1.86594
2.37372
3.11197
3.95541
4.78064
5.55632
5.87547
13.6528
11.3456
9.85832
8.3776
7.44716
7.2203
7.07241
6.8167
5.27041
3.45011
2.16138
1.58417
1.50467
1.55094
1.77331
2.30745
3.04162
3.83154
4.63761
5.15963
12.2777
10.4677
9.75411
8.70369
8.44282
8.07183
7.50574
7.08232
5.774
4.19918
2.84813
1.90273
1.55592
1.54772
1.66316
1.97539
2.49554
3.13156
3.86771
4.39697
11.1375
9.68766
9.50121
8.68163
8.98555
8.81988
8.16279
7.54853
6.31069
4.90902
3.57562
2.42962
1.78863
1.66583
1.71396
1.92922
2.24668
2.67839
3.22083
3.53861
10.2233
9.01478
9.16101
8.55851
8.96627
8.94351
8.60073
8.18248
6.9812
5.68301
4.38093
3.18092
2.34354
1.99887
1.93786
1.9827
2.09994
2.31019
2.51089
2.71157
9.46515
8.41328
8.74342
8.33005
8.79914
8.85134
8.5864
8.40539
7.66037
6.47407
5.21225
4.02962
3.1002
2.54392
2.27519
2.11054
2.06378
2.04065
2.07306
2.49504
8.70301
7.8029
8.2329
7.97322
8.40615
8.56205
8.42107
8.35645
7.92796
7.10387
5.98649
4.8545
3.90641
3.2031
2.73033
2.3374
2.04772
1.95578
2.02749
2.61795
8.05472
7.26791
7.73989
7.59048
7.93036
8.11941
8.08626
8.1587
7.88276
7.32343
6.55218
5.62338
4.72675
3.96021
3.29261
2.54778
2.08901
2.03767
2.21641
3.52284
7.00055
6.35784
6.81982
6.78757
6.98217
7.1332
7.17064
7.33126
7.33501
7.05787
6.52567
5.90109
5.21312
4.45951
3.59016
2.75485
2.53624
2.662
3.56844
5.91948
26.3317
29.9119
32.0523
33.3515
34.1994
34.2809
33.678
30.8352
26.3178
22.1521
18.6604
15.9824
14.012
12.6099
11.4364
10.4989
9.72331
8.93497
8.26812
7.21158
29.851
33.6019
35.4791
35.2822
36.2119
37.2332
36.6093
32.2258
24.5509
18.1768
14.5766
12.7899
11.6275
10.7398
9.94502
9.25465
8.63739
7.99983
7.44028
6.52037
31.9259
35.3566
37.1072
34.1432
35.5875
38.7868
38.7374
33.0131
21.5328
13.3094
10.7166
10.2141
10.1227
10.0279
9.77464
9.42327
8.98917
8.45027
7.92735
6.98668
33.3024
35.2731
34.2037
29.2683
30.5167
39.7086
42.6088
38.4113
21.0977
7.16831
7.37608
7.96716
8.57836
8.93135
8.92011
8.81136
8.58614
8.20451
7.78314
6.94468
34.2044
36.1182
34.7956
28.6335
5.16582
5.67128
6.06408
6.78083
7.76619
8.78457
9.2563
9.2169
9.0163
8.57839
8.06964
7.10827
34.2665
37.065
38.4018
39.2323
6.28302
6.56788
6.64024
6.91722
7.53793
8.40371
9.12074
9.19155
9.08097
8.74316
8.25138
7.23683
33.5448
36.3822
38.4226
42.3379
6.82427
7.19046
7.19853
7.258
7.44764
7.89797
8.54494
8.93499
8.89866
8.68282
8.28153
7.29208
30.6512
31.9475
32.6877
38.014
7.31277
6.83859
6.94096
7.04808
7.20527
7.46913
7.94837
8.56845
8.71983
8.64761
8.40821
7.50661
26.1441
24.3097
21.3355
21.224
5.0813
6.15932
6.67007
7.14039
1.66195
2.83367
4.01296
4.89047
5.5053
6.03853
6.62136
7.29773
7.94367
8.16611
8.10576
7.52413
22.0112
17.9961
13.1641
7.12481
5.57404
6.4357
7.02802
6.70573
2.82395
1.50918
1.86823
2.67399
3.57509
4.36594
5.12036
5.90138
6.67729
7.29926
7.51132
7.23611
18.5679
14.4687
10.6034
7.3052
5.97312
6.51937
7.05362
6.82496
4.01168
1.87721
1.51063
1.72377
2.27496
2.96769
3.70325
4.51557
5.35394
6.14445
6.72616
6.69969
15.926
12.7368
10.1674
7.88386
6.7054
6.81957
7.13153
6.94134
4.88631
2.69734
1.73403
1.60116
1.68685
1.97591
2.50927
3.2791
4.14721
4.99668
5.78912
6.07165
13.9714
11.5866
10.0845
8.49638
7.70854
7.46584
7.33948
7.10131
5.48871
3.60988
2.3098
1.70028
1.59477
1.64768
1.8807
2.45226
3.23281
4.05004
4.88644
5.37581
12.5716
10.6908
9.97767
8.85433
8.73749
8.33136
7.80118
7.37089
6.01403
4.41095
3.03366
2.01714
1.65604
1.65763
1.81415
2.1693
2.7049
3.35058
4.12331
4.59621
11.3956
9.88704
9.70928
8.84264
9.17598
9.02673
8.43923
7.85544
6.59379
5.1708
3.78919
2.58032
1.92219
1.82577
1.89265
2.12837
2.44689
2.8911
3.42801
3.66461
10.4537
9.19079
9.34494
8.72914
9.12765
9.08611
8.8145
8.46282
7.27474
5.95402
4.60995
3.37653
2.5371
2.21773
2.14427
2.18666
2.29189
2.46767
2.61717
2.86029
9.67578
8.57159
8.90373
8.49897
8.91842
8.97581
8.77978
8.6163
7.91715
6.72611
5.44791
4.26157
3.35165
2.79527
2.49898
2.31528
2.22478
2.1811
2.23802
2.7334
8.88785
7.936
8.36468
8.11756
8.47794
8.64197
8.57113
8.54688
8.11486
7.32858
6.22763
5.11364
4.18484
3.47167
2.98076
2.52065
2.19527
2.12243
2.23916
3.01568
8.22107
7.37922
7.84536
7.70098
7.97306
8.15639
8.18186
8.31126
8.04951
7.50314
6.76618
5.88785
5.01717
4.25663
3.53906
2.68584
2.2712
2.25905
2.55492
4.3014
7.16401
6.46365
6.91331
6.87293
7.02267
7.1507
7.21272
7.42086
7.45769
7.20589
6.71402
6.11554
5.44871
4.6808
3.74442
2.93196
2.79713
3.07275
4.35166
6.81396
27.1472
30.7688
32.9683
34.37
35.3688
35.4906
34.9071
32.0347
27.4301
23.1783
19.5675
16.7655
14.6967
13.2123
11.9701
10.9799
10.1596
9.31959
8.6189
7.54323
30.7231
34.5289
36.5097
36.5338
37.5916
38.5734
37.9015
33.448
25.5993
19.0809
15.3689
13.4463
12.1737
11.209
10.3564
9.62056
8.96557
8.28256
7.68878
6.75162
32.8684
36.3995
38.3702
35.8737
37.2212
40.1214
39.9744
34.2032
22.4677
14.01
11.3548
10.7973
10.6536
10.4936
10.1796
9.77353
9.29078
8.70782
8.14941
7.18903
34.3821
36.6017
35.9827
31.0852
31.6013
40.7726
43.7503
39.4893
22.0055
7.67085
7.85883
8.3883
8.91981
9.28215
9.26925
9.15337
8.91094
8.49353
8.03549
7.17065
35.4484
37.5984
36.5616
29.8087
5.47922
6.03341
6.4636
7.29085
8.34962
9.35735
9.58518
9.48977
9.22078
8.71805
8.18969
7.24828
35.5512
38.4896
39.7781
40.4004
6.6067
6.86147
6.95184
7.30894
8.03258
8.90829
9.48251
9.47428
9.31021
8.88358
8.34204
7.3243
34.8078
37.7059
39.6718
43.5678
7.26296
7.53873
7.53546
7.59863
7.85695
8.39617
9.03547
9.30279
9.22467
8.92958
8.44734
7.39492
31.807
33.0992
33.7902
39.121
7.91614
7.23444
7.28129
7.3741
7.55353
7.89074
8.46201
9.03164
9.0998
8.99744
8.69348
7.6777
27.1739
25.2518
22.1537
21.9841
5.36421
6.45015
7.15287
7.81338
1.94786
3.05874
4.26651
5.16344
5.80786
6.42392
7.10352
7.83847
8.44652
8.5561
8.4579
7.77606
22.918
18.754
13.7336
7.45848
5.85435
6.80402
7.55258
7.30152
3.19303
1.70472
2.06192
2.89504
3.8453
4.71785
5.55902
6.40196
7.19863
7.78275
7.90678
7.55297
19.3376
15.1019
11.1149
7.64896
6.33047
6.89613
7.54812
7.34832
4.44183
2.11933
1.71085
1.92527
2.49942
3.25273
4.07292
4.96096
5.84843
6.65729
7.18338
7.09513
16.5708
13.238
10.6264
8.21336
7.20208
7.262
7.61179
7.43657
5.33205
3.02565
1.96674
1.80401
1.88229
2.20138
2.81374
3.67449
4.60558
5.50385
6.3158
6.49146
14.5336
12.0026
10.5024
8.78792
8.27691
7.98722
7.86769
7.60945
5.96743
4.02009
2.61009
1.91827
1.81732
1.8742
2.15381
2.80137
3.63558
4.50907
5.40878
5.76772
13.0748
11.0633
10.356
9.18071
9.28248
8.84873
8.39212
7.93856
6.56859
4.91099
3.42151
2.30512
1.89977
1.90741
2.11425
2.49446
3.05816
3.76641
4.59559
4.8821
11.8527
10.23
10.052
9.16991
9.50796
9.42336
9.01361
8.49756
7.226
5.745
4.27105
2.97792
2.2515
2.14217
2.2096
2.46077
2.7927
3.2518
3.71283
3.84695
10.8802
9.51154
9.65503
9.05215
9.41205
9.4233
9.27253
9.03943
7.94031
6.57077
5.16228
3.86855
2.95905
2.58904
2.49764
2.53791
2.60738
2.71215
2.81589
3.22825
10.0758
8.87275
9.18363
8.8135
9.14344
9.2651
9.19594
9.09768
8.51537
7.34724
6.04217
4.80617
3.82324
3.21005
2.88545
2.64875
2.51363
2.47613
2.60976
3.22461
9.24978
8.2055
8.61469
8.40679
8.64517
8.83964
8.90402
8.99239
8.59241
7.89001
6.82577
5.69797
4.70664
3.9523
3.40494
2.80387
2.49997
2.48097
2.69525
3.97746
8.55842
7.62353
8.0698
7.96096
8.12202
8.29876
8.42591
8.67893
8.4813
7.96633
7.28369
6.46445
5.58513
4.78261
3.88854
2.92665
2.6649
2.72665
3.4329
5.96775
7.49124
6.69838
7.12616
7.11169
7.18742
7.27904
7.3771
7.652
7.7687
7.57965
7.1581
6.5729
5.87661
5.01093
3.98291
3.3354
3.31612
4.04316
6.01156
7.85355
28.0314
31.646
33.9165
35.4587
36.703
36.9634
36.4535
33.5444
28.8318
24.4251
20.6437
17.6847
15.488
13.8992
12.5835
11.5422
10.6834
9.79969
9.07382
7.97122
31.622
35.4693
37.623
38.0769
39.4568
40.4597
39.793
35.2094
27.112
20.2651
16.3327
14.1908
12.7481
11.6874
10.7772
10.0103
9.33174
8.61894
8.00706
7.05355
33.8654
37.5513
39.7888
38.1437
39.6148
42.2431
42.0331
36.1472
24.033
15.0277
12.1873
11.5221
11.2538
10.9767
10.5743
10.1119
9.58743
8.97051
8.39417
7.42906
35.4985
38.1676
38.2971
34.0466
33.3389
42.5414
45.7215
41.4941
23.8701
8.25649
8.41811
8.90369
9.37512
9.66651
9.63286
9.50179
9.24456
8.80658
8.33365
7.44988
36.7765
39.3011
39.0675
31.5901
6.00784
6.29954
6.8507
7.84229
8.96504
9.83885
9.87689
9.7422
9.42097
8.88843
8.37099
7.45171
36.9638
40.2943
41.7871
41.9011
6.74721
7.05487
7.20481
7.66858
8.45614
9.30999
9.73678
9.69286
9.47106
8.98738
8.44622
7.46746
36.2532
39.4271
41.4938
45.3556
7.3895
7.70331
7.74429
7.88252
8.24374
8.8238
9.41913
9.54589
9.43734
9.06826
8.54602
7.50352
33.1767
34.599
35.3486
40.889
7.93078
7.4445
7.53597
7.68845
7.93555
8.36639
8.97664
9.40684
9.41905
9.26284
8.878
7.78382
28.3982
26.4495
23.3248
23.2223
5.91764
6.80571
7.57164
8.17632
2.09461
3.31273
4.57005
5.51895
6.23448
6.93461
7.67834
8.42333
8.89704
8.9002
8.7416
7.93946
23.9949
19.7077
14.5482
8.08389
6.31865
7.2166
7.95603
7.70741
3.55969
1.98571
2.34674
3.23596
4.26431
5.22981
6.13966
7.00729
7.75293
8.21394
8.24242
7.79129
20.2525
15.8874
11.8333
8.25717
6.8905
7.35613
7.97928
7.79029
4.87741
2.45087
2.00304
2.22542
2.84025
3.66812
4.56453
5.49783
6.38703
7.13853
7.56038
7.39592
17.3531
13.8276
11.2078
8.73851
7.88735
7.82517
8.09954
7.93478
5.82253
3.44944
2.29613
2.09338
2.1602
2.50647
3.20784
4.13996
5.0908
5.98589
6.73889
6.7953
15.2143
12.4521
10.9749
9.20472
8.98086
8.59615
8.4569
8.18741
6.53905
4.53553
3.02079
2.22077
2.11022
2.18831
2.52778
3.21738
4.06698
4.97242
5.849
6.03878
13.6747
11.4471
10.7447
9.51016
9.80218
9.41536
9.02277
8.62494
7.23987
5.53828
3.93861
2.67378
2.23007
2.25068
2.47414
2.85248
3.44414
4.19995
4.97269
5.06803
12.3995
10.5808
10.3836
9.48196
9.81571
9.79146
9.58174
9.21485
7.98476
6.46434
4.88248
3.46002
2.67336
2.50971
2.55171
2.79355
3.12013
3.55328
3.88116
4.03076
11.3934
9.85076
9.95533
9.36279
9.67041
9.7395
9.66172
9.58002
8.71799
7.33975
5.83244
4.43535
3.43824
2.96191
2.82962
2.84817
2.86892
2.92688
3.07297
3.65595
10.5629
9.2027
9.46045
9.12435
9.34493
9.50022
9.53972
9.57239
9.10244
8.06317
6.72313
5.40462
4.32641
3.62203
3.23568
2.91654
2.77208
2.77264
2.97073
3.77871
9.7017
8.51469
8.86818
8.70533
8.81889
8.999
9.14376
9.38112
9.07225
8.43398
7.43478
6.29945
5.25492
4.43971
3.75632
3.0293
2.80872
2.84886
3.23021
5.02328
8.98986
7.91932
8.3079
8.24579
8.30869
8.44168
8.59518
8.94964
8.86699
8.41721
7.75941
6.97241
6.09642
5.21077
4.1043
3.1958
3.0542
3.26554
4.48648
7.1788
7.90182
6.98373
7.35894
7.3789
7.39606
7.44344
7.52427
7.80791
7.99609
7.89549
7.53491
6.95693
6.21346
5.25407
4.21008
3.79167
3.88544
5.0684
7.21995
7.60492
30.1339
33.9856
36.3819
38.0953
39.608
40.0729
39.6667
36.6377
31.6266
26.8988
22.7698
19.5423
17.1424
15.3865
13.9452
12.7818
11.8052
10.8166
10.0106
8.77322
33.9623
38.0257
40.2823
41.0679
42.7291
43.7832
43.1531
38.2813
29.7335
22.4116
18.134
15.7058
14.0669
12.8712
11.8683
11.0179
10.2499
9.45669
8.7847
7.72288
36.3227
40.2193
42.4431
41.268
43.0323
45.3719
45.1449
38.9384
26.257
16.6639
13.6345
12.8048
12.4169
12.0285
11.5521
11.0229
10.4251
9.73849
9.10799
8.04679
38.0584
41.0812
41.3692
37.6522
35.6508
44.7635
48.2168
43.9799
25.8705
9.13411
9.40215
9.95184
10.4214
10.5689
10.5044
10.3321
10.0193
9.53065
9.01169
8.03789
39.5407
42.4619
42.5326
34.0787
6.813
6.70003
7.48685
8.72462
9.94632
10.6941
10.6677
10.4707
10.0952
9.5241
8.97086
7.97415
39.897
43.4268
44.764
44.0926
6.94574
7.4696
7.76594
8.41605
9.30168
10.1821
10.4735
10.3808
10.0948
9.56031
8.98695
7.94259
39.2696
42.4879
44.2122
47.5691
7.69237
8.23637
8.37001
8.61399
9.09514
9.73801
10.2466
10.2447
10.077
9.6161
9.03309
7.90388
36.0452
37.2467
37.5081
42.6232
8.31628
8.07486
8.22955
8.43897
8.75889
9.28538
9.90242
10.1704
10.1272
9.87068
9.36503
8.1122
30.9612
28.612
24.7774
23.4932
6.44155
7.11549
7.96822
8.61376
2.45955
3.76632
5.1541
6.20635
7.01463
7.78448
8.57314
9.3105
9.63783
9.57331
9.3042
8.28798
26.2847
21.5735
15.8533
8.77897
6.82538
7.67105
8.48235
8.3531
4.14805
2.42897
2.85115
3.82437
4.91676
5.94597
6.92589
7.83955
8.57418
8.89361
8.84508
8.19429
22.2533
17.5563
13.1565
9.13659
7.60505
7.97161
8.6099
8.48239
5.57484
2.99764
2.4185
2.64417
3.29813
4.20758
5.21261
6.21972
7.14234
7.84854
8.1124
7.81573
19.1404
15.2868
12.4772
9.76028
8.78071
8.61907
8.85206
8.68836
6.5695
4.08948
2.72994
2.46154
2.54788
2.9636
3.76698
4.75167
5.71654
6.60784
7.23946
7.18404
16.8333
13.7492
12.1619
10.2603
9.93822
9.46585
9.32076
9.01968
7.34193
5.21831
3.50144
2.60548
2.52432
2.62622
3.01335
3.69212
4.53182
5.46372
6.30374
6.36885
15.1449
12.6197
11.8222
10.4279
10.6483
10.2859
9.92889
9.54726
8.09639
6.26317
4.49336
3.13112
2.67188
2.6789
2.82545
3.16429
3.77864
4.61203
5.34286