/*--------------------------------*- C++ -*----------------------------------*\
  =========                 |
  \\      /  F ield         | OpenFOAM: The Open Source CFD Toolbox
   \\    /   O peration     | Website:  https://openfoam.org
    \\  /    A nd           | Version:  9
     \\/     M anipulation  |
\*---------------------------------------------------------------------------*/
FoamFile
{
    format      ascii;
    class       volScalarField;
    location    "0.003";
    object      rho.C4;
}
// * * * * * * * * * * * * * * * * * * * * * * * * * * * * * * * * * * * * * //

dimensions      [1 -3 0 0 0 0 0];

internalField   nonuniform List<scalar> 
9720
(
30.2712
34.0809
36.481
38.1767
39.6544
40.097
39.6816
36.6865
31.6474
26.9168
22.7919
19.5686
17.1674
15.4103
13.9708
12.8152
11.8501
10.8762
10.0838
8.8903
34.0318
38.058
40.3171
41.1116
42.6435
43.727
43.1364
38.2924
29.6509
22.3404
18.103
15.6937
14.0557
12.8551
11.8495
11.0019
10.2414
9.45885
8.7974
7.76508
36.3646
40.2206
42.4219
41.2936
42.8193
45.2221
45.1432
38.9467
26.0236
16.4922
13.5661
12.7885
12.4128
12.0212
11.5384
11.0063
10.4102
9.72916
9.10696
8.07194
38.1012
41.0814
41.3655
38.7584
36.2469
45.4934
49.5162
45.276
26.456
8.93562
9.26252
9.89344
10.4097
10.5593
10.4911
10.3139
9.99996
9.51578
9.00569
8.05778
39.625
42.6228
42.8102
36.5896
7.41649
6.68989
7.45454
8.69165
9.93747
10.7136
10.69
10.4923
10.1124
9.5379
8.98249
8.00118
40.0392
43.6305
45.0638
45.4936
7.41581
7.53707
7.81158
8.4623
9.3508
10.2361
10.5133
10.4203
10.1307
9.58853
9.00933
7.98006
39.4845
42.7946
44.5953
49.1348
8.23454
8.33771
8.4624
8.69904
9.18158
9.83123
10.3209
10.316
10.1438
9.67619
9.08624
7.96871
36.3133
37.642
38.0098
44.0061
9.01021
8.22408
8.37246
8.57398
8.88879
9.41454
10.0322
10.284
10.2424
9.98618
9.4788
8.23254
31.2315
29.0096
25.2864
24.7044
6.91781
7.44739
8.3342
9.11425
2.6785
3.85925
5.27733
6.34551
7.1629
7.93793
8.73784
9.48773
9.81006
9.75079
9.48272
8.47836
26.5269
21.8786
16.1514
8.8979
6.77612
7.61013
8.44125
8.35477
4.2161
2.49294
2.93376
3.9333
5.05264
6.11038
7.12181
8.06991
8.82815
9.14949
9.10951
8.46948
22.4518
17.7701
13.3507
9.22828
7.5515
7.91083
8.57837
8.4982
5.65547
3.08066
2.49269
2.73114
3.41291
4.36894
5.42935
6.49272
7.46199
8.19564
8.4683
8.1952
19.2937
15.4293
12.5964
9.81584
8.73095
8.56437
8.83014
8.71733
6.66487
4.20128
2.82531
2.56599
2.67126
3.12413
3.99075
5.04698
6.07566
7.02458
7.68898
7.66675
16.9504
13.8428
12.2328
10.2908
9.89933
9.40894
9.30641
9.06391
7.45725
5.36419
3.63578
2.73387
2.67919
2.81641
3.25357
3.99782
4.91329
5.93261
6.84292
6.94866
15.2369
12.6809
11.8608
10.4392
10.622
10.2344
9.91155
9.60043
8.22553
6.4382
4.67635
3.30724
2.86781
2.91711
3.10945
3.5027
4.19844
5.14095
5.95783
5.97236
13.8291
11.7047
11.3989
10.378
10.5931
10.4898
10.342
10.1646
9.02739
7.45229
5.76372
4.26254
3.40739
3.15267
3.20134
3.47721
3.88925
4.43026
4.74311
5.00081
12.6973
10.8811
10.8873
10.2159
10.3966
10.3964
10.33
10.3631
9.73445
8.39334
6.8308
5.36194
4.23828
3.63811
3.52755
3.61047
3.68777
3.82212
4.0848
4.93124
11.7501
10.139
10.3091
9.91958
10.0275
10.1161
10.1523
10.3099
9.96073
9.11587
7.80019
6.42307
5.21946
4.42805
4.05545
3.74839
3.6932
3.82833
4.20174
5.51123
10.7902
9.37064
9.64314
9.45069
9.46998
9.58047
9.68854
10.0277
9.87317
9.34879
8.50368
7.38862
6.28424
5.45891
4.72192
3.95537
3.89809
4.15913
4.95931
8.34329
10.0073
8.71846
9.03056
8.94767
8.92557
9.00202
9.11
9.4903
9.57749
9.27956
8.69887
7.98182
7.16433
6.28497
5.0733
4.2676
4.34263
5.02258
7.61304
13.9892
8.82702
7.69906
8.00684
8.00345
7.95072
7.96557
8.00057
8.23473
8.50829
8.5756
8.36179
7.90298
7.22176
6.2818
5.3014
5.18662
5.72803
8.46855
14.0599
21.6699
28.1072
31.6941
33.9619
35.5062
36.7903
37.0842
36.5746
33.663
28.9266
24.4948
20.6862
17.7061
15.4946
13.899
12.5824
11.5459
10.6967
9.82582
9.11187
8.04381
31.6548
35.4781
37.6202
38.0639
39.4638
40.5533
39.9212
35.3468
27.2264
20.3353
16.3674
14.1972
12.7357
11.6642
10.7499
9.98492
9.31331
8.61061
8.00884
7.07941
33.8838
37.5468
39.7539
38.0883
39.5475
42.273
42.1452
36.3
24.1655
15.076
12.2275
11.5342
11.2439
10.9499
10.5408
10.0798
9.5618
8.9545
8.38875
7.44718
35.5117
38.1859
38.3335
36.0611
34.3206
43.6703
47.2074
43.1354
25.1468
8.26535
8.42567
8.91443
9.38188
9.63062
9.58876
9.45602
9.20463
8.77602
8.31489
7.45757
36.8098
39.4041
39.2958
33.1928
6.73394
6.33397
6.88444
7.87705
8.98116
9.82834
9.85954
9.7271
9.40961
8.8816
8.36855
7.4682
36.9943
40.3842
41.9585
43.2403
6.93558
7.14453
7.31164
7.77773
8.53823
9.35889
9.74746
9.69826
9.47161
8.98797
8.44956
7.49027
36.3334
39.5655
41.6808
46.803
7.69859
7.82025
7.86461
8.00393
8.36204
8.92981
9.49199
9.59307
9.48049
9.10341
8.57726
7.54918
33.2926
34.7629
35.5473
42.1916
8.36424
7.60452
7.69752
7.84934
8.09575
8.52542
9.11948
9.51575
9.52164
9.35974
8.97196
7.88827
28.4872
26.5461
23.386
24.1031
6.68433
6.97039
7.80805
8.48042
2.323
3.3648
4.66503
5.65616
6.40372
7.1235
7.87585
8.61268
9.06527
9.0679
8.90863
8.1159
24.065
19.7705
14.5532
8.05347
6.2904
7.17689
7.96078
7.78145
3.6802
2.06086
2.43138
3.34196
4.40771
5.41614
6.35604
7.24232
7.99691
8.46321
8.49579
8.05544
20.3033
15.921
11.8317
8.22331
6.83291
7.31903
7.97959
7.85136
5.02356
2.55657
2.08999
2.32123
2.96171
3.83701
4.78455
5.76136
6.68856
7.46962
7.90696
7.76232
17.3859
13.8358
11.1911
8.70215
7.81302
7.78817
8.09528
7.9869
5.96125
3.59301
2.40489
2.20587
2.28956
2.66804
3.42276
4.41794
5.42964
6.38006
7.17666
7.26468
15.2341
12.4428
10.9458
9.15391
8.89845
8.54072
8.44445
8.23258
6.66899
4.70366
3.16856
2.35854
2.26944
2.3735
2.75253
3.50496
4.42833
5.41259
6.36416
6.60493
13.6871
11.4289
10.713
9.46727
9.72877
9.34844
8.99812
8.66337
7.36889
5.72559
4.13453
2.86181
2.42474
2.47962
2.74611
3.17454
3.83852
4.68699
5.5552
5.7008
12.4086
10.5589
10.3524
9.44445
9.75179
9.73402
9.5496
9.24819
8.11335
6.67013
5.12758
3.71618
2.93262
2.78991
2.87785
3.18413
3.57765
4.08801
4.47741
4.68955
11.4046
9.83005
9.92632
9.33303
9.61571
9.68999
9.63013
9.60392
8.84518
7.56425
6.12463
4.76383
3.77789
3.316
3.23451
3.32473
3.40117
3.5081
3.7082
4.45516
10.5817
9.18706
9.4356
9.10393
9.30239
9.46217
9.51391
9.59942
9.22425
8.3019
7.05575
5.801
4.75633
4.08206
3.75195
3.47639
3.3867
3.47458
3.76737
4.87755
9.73066
8.50626
8.8489
8.69661
8.78843
8.96975
9.12683
9.41413
9.19806
8.6721
7.79427
6.75876
5.78589
5.03379
4.40502
3.67461
3.53262
3.71892
4.31665
7.07213
9.02952
7.91837
8.29518
8.2462
8.28742
8.4209
8.58923
8.98691
8.99751
8.66124
8.12671
7.4666
6.70762
5.91297
4.83627
3.91324
3.91496
4.38639
6.33548
11.8398
7.97651
7.0049
7.36813
7.39695
7.39794
7.45098
7.5508
7.86882
8.13469
8.14755
7.91507
7.47385
6.85488
5.99044
4.99619
4.70585
5.103
7.22127
11.924
19.0143
27.1739
30.7498
32.9293
34.4043
35.5146
35.7055
35.1007
32.1686
27.5544
23.2678
19.6323
16.8122
14.7283
13.2332
11.9842
10.9919
10.1756
9.34458
8.65368
7.60587
30.7369
34.4953
36.4492
36.5957
37.7473
38.812
38.1211
33.5928
25.8
19.2236
15.4591
13.5059
12.2127
11.2316
10.3672
9.62469
8.9689
8.29108
7.70474
6.78533
32.8984
36.3888
38.32
36.0301
37.3248
40.3399
40.1613
34.3335
22.7676
14.2442
11.528
10.9099
10.7164
10.5176
10.1815
9.76702
9.2839
8.70665
8.15829
7.21928
34.3425
36.4926
35.8245
32.625
32.2433
41.7989
44.9038
40.596
23.2236
7.83695
8.02312
8.53014
9.01913
9.30703
9.2762
9.14526
8.89723
8.48225
8.03305
7.19013
35.3631
37.5196
36.6166
30.869
5.91988
6.02412
6.48337
7.34765
8.41475
9.39421
9.59055
9.49233
9.21956
8.7183
8.19526
7.27192
35.4714
38.4518
39.8216
41.2929
6.7307
6.85905
6.95647
7.32081
8.04157
8.91843
9.49373
9.4849
9.31588
8.88682
8.34846
7.35008
34.7998
37.7751
39.8239
44.5418
7.44505
7.57596
7.57581
7.64205
7.90283
8.43717
9.06943
9.34119
9.26365
8.96764
8.48487
7.44326
31.8888
33.2623
34.0201
40.2971
8.02823
7.34095
7.3815
7.46845
7.64423
7.98091
8.54496
9.11272
9.19127
9.09173
8.79245
7.78715
27.2334
25.3608
22.2936
22.5207
5.80589
6.66968
7.50293
8.19233
2.05062
3.16673
4.38431
5.2884
5.94179
6.56676
7.25457
7.98981
8.59926
8.7191
8.62454
7.94926
22.9402
18.766
13.7163
7.35916
5.74947
6.7391
7.51052
7.30323
3.25368
1.77287
2.14245
3.00044
3.98133
4.88273
5.74636
6.60835
7.42403
8.02307
8.15002
7.80693
19.33
15.0547
11.0394
7.54249
6.23309
6.82587
7.51099
7.36524
4.53567
2.21163
1.78947
2.01355
2.61623
3.41522
4.27792
5.20445
6.13126
6.97483
7.51541
7.44262
16.5336
13.1612
10.5294
8.09997
7.10656
7.18638
7.57648
7.46826
5.4417
3.15045
2.06607
1.90661
2.00163
2.35505
3.01435
3.93224
4.92579
5.88199
6.74069
6.94422
14.4785
11.9095
10.3821
8.64838
8.17166
7.89775
7.83055
7.65146
6.0957
4.17495
2.74843
2.04538
1.96203
2.03942
2.352
3.06346
3.97648
4.93184
5.91066
6.3223
13.0132
10.9701
10.2395
9.06573
9.16111
8.7362
8.34672
7.9866
6.71443
5.09982
3.60992
2.47552
2.06868
2.10284
2.34821
2.7777
3.41767
4.2238
5.16132
5.51317
11.795
10.1478
9.95396
9.07262
9.40852
9.32015
8.9646
8.5507
7.38472
5.96679
4.5145
3.20864
2.47215
2.37743
2.48639
2.79785
3.20446
3.75843
4.30902
4.5014
10.8323
9.44449
9.58012
8.98255
9.32385
9.33529
9.23289
9.0856
8.11288
6.82504
5.45927
4.17297
3.26152
2.89537
2.84085
2.94931
3.0858
3.25328
3.40786
3.95348
10.0437
8.82182
9.12961
8.77093
9.07755
9.1986
9.1635
9.14225
8.68292
7.62624
6.38743
5.18382
4.21742
3.61441
3.32563
3.13802
3.05709
3.09564
3.31551
4.16878
9.23595
8.17041
8.57914
8.38875
8.60326
8.79908
8.88489
9.04045
8.74908
8.17157
7.20545
6.14235
5.19289
4.47123
3.96425
3.37477
3.12418
3.22417
3.59353
5.52183
8.56144
7.60116
8.04611
7.95604
8.09764
8.27817
8.42298
8.72989
8.63743
8.24204
7.67408
6.95919
6.16067
5.42285
4.55135
3.56038
3.39113
3.64037
4.78253
9.19059
7.53271
6.70197
7.12455
7.12485
7.19093
7.29252
7.41079
7.72092
7.92408
7.85115
7.55552
7.08835
6.49933
5.70687
4.70429
4.11709
4.31886
5.64296
9.25962
16.1415
26.36
29.8988
32.0176
33.3989
34.3629
34.4965
33.8614
30.9232
26.3836
22.2021
18.7172
16.0414
14.066
12.6556
11.474
10.5333
9.75745
8.97316
8.3122
7.27863
29.8834
33.6069
35.4549
35.3647
36.3839
37.4748
36.8398
32.3426
24.647
18.2292
14.6345
12.8748
11.7126
10.8119
10.0015
9.29675
8.66982
8.02902
7.47058
6.56235
31.9766
35.4113
37.1598
34.4343
35.6647
39.0188
38.9799
33.1542
21.6535
13.3619
10.7579
10.332
10.2436
10.1284
9.84737
9.47183
9.02208
8.47584
7.95357
7.02599
33.2444
35.1818
34.0546
30.3322
30.4515
40.439
43.4134
38.9978
21.6016
7.18648
7.39895
8.01856
8.67147
9.0315
9.00906
8.87929
8.63123
8.23314
7.8078
6.97981
34.0727
35.9834
34.8332
29.7746
5.6431
5.61426
6.04499
6.80652
7.83667
8.87991
9.3374
9.28634
9.07131
8.62561
8.11625
7.16371
34.1397
36.9407
38.3239
39.6744
6.4073
6.52694
6.6123
6.91237
7.55531
8.4371
9.16854
9.23245
9.11468
8.7722
8.28159
7.28341
33.4954
36.3708
38.4469
42.8473
7.15594
7.19619
7.20014
7.25456
7.44797
7.90991
8.5626
8.96965
8.93892
8.72722
8.32902
7.35272
30.7006
32.0765
32.884
38.7493
7.78719
6.84479
6.96587
7.07361
7.22739
7.49059
7.96914
8.60528
8.7988
8.73504
8.50794
7.62684
26.2167
24.4691
21.5673
21.8818
5.52934
6.30277
6.93297
7.5632
1.80286
2.75563
3.93231
4.85383
5.50689
6.06563
6.67283
7.36557
8.03529
8.30626
8.2569
7.69799
22.0637
18.0851
13.2344
7.10466
5.52618
6.39536
7.05535
6.82169
3.01821
1.55012
1.86672
2.65816
3.5905
4.41984
5.20844
6.02377
6.83196
7.49014
7.73454
7.48318
18.575
14.4693
10.5749
7.22452
5.92025
6.47817
7.07431
6.91585
4.23644
1.98063
1.55555
1.75747
2.31345
3.03985
3.81897
4.68225
5.57087
6.4085
7.03305
7.0312
15.8815
12.666
10.0778
7.73551
6.64216
6.77922
7.14988
7.02653
5.09233
2.86533
1.81813
1.67869
1.76605
2.07532
2.64676
3.47419
4.40875
5.32459
6.17712
6.50055
13.8971
11.4769
9.94839
8.29732
7.6092
7.4132
7.35734
7.19535
5.68766
3.80967
2.45005
1.80954
1.70916
1.77414
2.0303
2.65854
3.52006
4.42382
5.34404
5.9008
12.4897
10.5736
9.83142
8.67784
8.59312
8.23902
7.8097
7.47536
6.21863
4.63239
3.22516
2.17566
1.79109
1.80887
1.99317
2.40116
3.01816
3.76111
4.64214
5.20186
11.3202
9.77996
9.57555
8.68969
9.04002
8.91478
8.42213
7.96606
6.80313
5.41565
4.03237
2.79313
2.10075
2.00843
2.1101
2.40386
2.80045
3.34604
3.99802
4.30704
10.3905
9.10186
9.2361
8.61092
9.00718
9.00189
8.79335
8.55864
7.49193
6.21813
4.89231
3.64612
2.78306
2.45905
2.42003
2.52408
2.70304
2.96646
3.1874
3.51973
9.63063
8.50308
8.82039
8.41596
8.82293
8.90597
8.76349
8.69013
8.12378
7.00737
5.76673
4.59092
3.67723
3.12226
2.85684
2.72577
2.70178
2.72759
2.85074
3.53975
8.86279
7.88668
8.30448
8.06516
8.41026
8.59841
8.56828
8.6187
8.29295
7.61837
6.58142
5.5022
4.59646
3.90453
3.44898
3.0169
2.73868
2.75939
2.98789
4.14776
8.21413
7.34543
7.80201
7.66801
7.92871
8.13857
8.19582
8.38081
8.22318
7.78322
7.14008
6.33675
5.52471
4.8125
4.12337
3.24851
2.88601
3.01162
3.53308
6.3758
7.19506
6.45838
6.89819
6.86769
7.01297
7.16929
7.26078
7.49982
7.62139
7.47747
7.09721
6.60192
6.02815
5.32693
4.40719
3.60373
3.62368
4.23673
6.4593
12.4787
25.9481
29.4659
31.5675
32.9031
33.7987
33.8939
33.2525
30.347
25.8071
21.6445
18.1964
15.5766
13.6612
12.3
11.1748
10.2793
9.53651
8.78679
8.14843
7.11999
29.4046
33.0703
34.8641
34.7268
35.73
36.8407
36.2229
31.7707
24.0651
17.6872
14.1271
12.4397
11.3475
10.5018
9.74324
9.08243
8.48911
7.88387
7.3531
6.45603
31.4633
34.7918
36.3301
33.3541
34.9474
38.419
38.4185
32.6345
21.1044
12.8453
10.2426
9.88195
9.85574
9.80944
9.59354
9.2648
8.85099
8.34072
7.84845
6.93675
32.7081
34.4822
33.0738
28.9519
29.7481
39.5893
42.5646
38.2758
21.1111
6.8277
6.98506
7.61565
8.36541
8.79744
8.79295
8.67935
8.44786
8.0853
7.69984
6.90215
33.4778
35.2318
33.9365
28.877
5.27169
5.40413
5.75491
6.42489
7.41728
8.45525
9.09172
9.09256
8.94796
8.56798
8.09264
7.14248
33.5327
36.2308
37.6068
38.8084
6.21114
6.36235
6.42804
6.67336
7.24451
8.09712
8.89553
9.07187
8.98485
8.70409
8.26705
7.28946
32.8725
35.6622
37.7271
41.8097
6.80921
6.93507
6.94066
6.98916
7.15384
7.56777
8.23493
8.73634
8.73851
8.58871
8.25691
7.33825
30.0958
31.4114
32.1931
37.6552
7.30175
6.51514
6.65171
6.77349
6.93338
7.18549
7.63615
8.29036
8.59295
8.55923
8.38067
7.5744
25.6807
23.9327
21.0262
21.0775
5.16707
6.12793
6.74579
7.28445
1.68985
2.56436
3.69253
4.60764
5.27106
5.80766
6.37037
7.05219
7.7762
8.13922
8.1171
7.61143
21.6048
17.7032
12.9423
6.91887
5.39877
6.32228
6.92752
6.61921
2.89155
1.4415
1.74577
2.50766
3.41867
4.21
4.95297
5.7634
6.60347
7.30018
7.59281
7.37314
18.1896
14.1773
10.3693
7.08382
5.77483
6.39077
6.92904
6.70478
4.04912
1.86607
1.44532
1.6439
2.17575
2.87687
3.63191
4.48295
5.37534
6.21477
6.86484
6.88567
15.5638
12.4402
9.89482
7.6568
6.45622
6.64961
6.97789
6.80766
4.87918
2.71352
1.69312
1.55559
1.65018
1.97583
2.5242
3.31735
4.22704
5.1222
5.96323
6.32419
13.6288
11.2968
9.78973
8.27902
7.39484
7.23054
7.14842
6.96377
5.47339
3.62511
2.28322
1.67975
1.60777
1.67057
1.92128
2.51099
3.32443
4.20473
5.10003
5.69394
12.2505
10.4126
9.68204
8.60628
8.35986
8.03736
7.55813
7.22196
5.97478
4.39318
3.00961
2.02973
1.6747
1.68505
1.8259
2.18967
2.79248
3.53027
4.37596
4.99943
11.1136
9.63413
9.43279
8.59221
8.90181
8.75658
8.17484
7.67957
6.50919
5.12219
3.77891
2.60278
1.94053
1.82695
1.90629
2.17766
2.57747
3.11268
3.76935
4.17273
10.2052
8.96786
9.10136
8.48433
8.89088
8.89579
8.60204
8.29487
7.18058
5.91478
4.62433
3.41154
2.5536
2.20697
2.1823
2.28693
2.48073
2.78485
3.06243
3.3433
9.45646
8.37628
8.69506
8.27428
8.73792
8.81198
8.59055
8.4978
7.85607
6.72626
5.49596
4.32049
3.38397
2.82916
2.59411
2.48529
2.50982
2.55565
2.64328
3.23592
8.70587
7.77632
8.1966
7.93537
8.36215
8.53902
8.43554
8.44794
8.10897
7.37477
6.31178
5.20724
4.27485
3.58731
3.15117
2.80194
2.55845
2.54454
2.70628
3.60239
8.06866
7.2508
7.71402
7.56592
7.9023
8.11577
8.11419
8.24929
8.06239
7.59774
6.90919
6.04072
5.18981
4.46388
3.83435
3.08792
2.65499
2.71587
3.06159
5.17838
7.044
6.36301
6.8167
6.78689
6.98207
7.16029
7.22643
7.43179
7.51362
7.33268
6.89872
6.36715
5.76135
5.07125
4.22629
3.38494
3.28135
3.65485
5.24668
10.5076
25.9489
29.4746
31.5861
32.8824
33.7156
33.7869
33.1682
30.3246
25.8107
21.6483
18.1878
15.5569
13.6366
12.2767
11.1549
10.2619
9.52216
8.77501
8.13881
7.11371
29.4047
33.0809
34.8941
34.6748
35.6306
36.7091
36.1121
31.7349
24.0861
17.7233
14.1395
12.4163
11.3114
10.4655
9.7118
9.0577
8.47023
7.86888
7.34048
6.44686
31.4561
34.7876
36.3433
33.1996
34.8903
38.2962
38.3042
32.5726
21.1495
12.9362
10.3102
9.86623
9.81203
9.75768
9.54618
9.22946
8.82624
8.3231
7.83423
6.92586
32.7468
34.5526
33.2227
28.5068
29.9525
39.3652
42.3196
38.0113
20.9842
6.90422
7.06439
7.66151
8.36171
8.75362
8.74679
8.63701
8.41631
8.06356
7.6827
6.88861
33.5534
35.3155
33.9419
28.2604
5.02059
5.42721
5.78236
6.44232
7.40679
8.42326
9.05184
9.05648
8.91661
8.54031
8.06727
7.12059
33.6121
36.3156
37.6619
38.6633
6.14059
6.34481
6.41428
6.66425
7.23569
8.0902
8.88972
9.0688
8.98508
8.70535
8.267
7.28534
32.9122
35.7017
37.7655
41.657
6.70188
6.92424
6.93177
6.98864
7.16224
7.58243
8.26357
8.76345
8.76177
8.60703
8.27219
7.34616
30.0897
31.3983
32.1796
37.4539
7.19886
6.53935
6.66156
6.78507
6.95532
7.21795
7.67871
8.3409
8.6278
8.58938
8.40461
7.58571
25.6681
23.9172
21.0158
20.9557
5.01728
6.10593
6.70554
7.18512
1.62596
2.63483
3.76549
4.66407
5.31665
5.85336
6.41767
7.10737
7.83461
8.1789
8.15093
7.63194
21.5873
17.672
12.9238
6.88004
5.36538
6.28088
6.86323
6.51434
2.77653
1.42878
1.76074
2.54353
3.45722
4.24636
4.99163
5.80592
6.65114
7.34662
7.63049
7.40207
18.1865
14.1679
10.3815
7.0926
5.75152
6.35501
6.86966
6.62291
3.92688
1.82221
1.44393
1.65218
2.19768
2.90207
3.65801
4.51094
5.40628
6.24867
6.89912
6.91854
15.5804
12.4674
9.94854
7.71935
6.46635
6.6289
6.92931
6.73694
4.77907
2.65266
1.6805
1.55833
1.65914
1.98365
2.53098
3.32659
4.23944
5.13861
5.98716
6.35785
13.6589
11.3458
9.8584
8.37801
7.45073
7.23682
7.11704
6.90243
5.38742
3.56545
2.25915
1.67495
1.60755
1.67007
1.92011
2.5107
3.32595
4.21094
5.11731
5.72619
12.2857
10.4684
9.75432
8.7043
8.4471
8.09036
7.55337
7.17198
5.90045
4.33918
2.98051
2.01916
1.67384
1.68466
1.82803
2.19145
2.79344
3.53454
4.39056
5.02874
11.148
9.68896
9.50175
8.68259
8.99051
8.84019
8.21449
7.64487
6.44924
5.07343
3.7451
2.58409
1.9333
1.82936
1.91112
2.18508
2.58288
3.11933
3.78191
4.19579
10.2374
9.0172
9.16223
8.56015
8.97204
8.96455
8.65519
8.28781
7.13579
5.87581
4.59325
3.39014
2.54387
2.21374
2.19283
2.29679
2.48786
2.79099
3.07001
3.35764
9.48409
8.41749
8.74589
8.3329
8.8063
8.87343
8.64127
8.5144
7.83209
6.69828
5.472
4.30476
3.38013
2.84059
2.61069
2.49759
2.51894
2.56309
2.65075
3.24803
8.72868
7.81002
8.23769
7.97832
8.41572
8.58612
8.4767
8.46632
8.10831
7.35578
6.29438
5.19971
4.27868
3.60363
3.17038
2.81692
2.56815
2.55103
2.71368
3.61192
8.08742
7.27848
7.74762
7.59842
7.94286
8.14597
8.14292
8.2687
8.06514
7.58836
6.89831
6.03723
5.19597
4.47818
3.85126
3.10381
2.66337
2.72316
3.06825
5.19128
7.05757
6.38271
6.84048
6.80796
7.00766
7.17229
7.23673
7.44562
7.52005
7.32987
6.89068
6.36079
5.76068
5.07661
4.23627
3.39497
3.28813
3.6631
5.25383
10.5282
26.3623
29.9239
32.0629
33.3601
34.2063
34.2868
33.6833
30.8398
26.3219
22.156
18.6646
15.9875
14.0185
12.6184
11.4475
10.5138
9.74336
8.96213
8.30273
7.27196
29.8631
33.6019
35.4791
35.2822
36.2119
37.2332
36.6093
32.2258
24.5509
18.1768
14.5767
12.79
11.6277
10.7405
9.94645
9.25733
8.64205
8.0077
7.4519
6.5473
31.9367
35.3566
37.1072
34.1432
35.5875
38.7868
38.7374
33.0131
21.5328
13.3094
10.7166
10.2141
10.1227
10.0281
9.77527
9.42469
8.99203
8.45574
7.9361
7.00944
33.3111
35.2731
34.2037
29.2683
30.5167
39.7086
42.6088
38.4113
21.0977
7.16838
7.37624
7.96744
8.5788
8.93204
8.92122
8.81328
8.58949
8.21042
7.79224
6.9673
34.2114
36.1183
34.7956
28.6335
5.16588
5.67313
6.06649
6.78397
7.7701
8.78927
9.26178
9.22336
9.0244
8.58925
8.08379
7.13643
34.2725
37.065
38.4018
39.2323
6.29111
6.58325
6.65604
6.93406
7.55664
8.42467
9.14357
9.21508
9.10569
8.77002
8.28089
7.27977
33.55
36.3822
38.4226
42.3379
6.85914
7.24039
7.24856
7.30861
7.49993
7.9537
8.60493
8.99747
8.96127
8.74574
8.34504
7.36493
30.6558
31.9475
32.6877
38.014
7.39889
6.9385
7.04099
7.14893
7.30846
7.57644
8.06286
8.69207
8.84579
8.77344
8.53298
7.63392
26.1482
24.3097
21.3355
21.224
5.08134
6.1658
6.69865
7.21262
1.70316
2.90659
4.11528
5.01341
5.64176
6.187
6.78445
7.47845
8.14179
8.37156
8.3121
7.73069
22.0151
17.9962
13.1641
7.12486
5.57555
6.4484
7.07029
6.79306
2.89419
1.55667
1.93247
2.7699
3.70518
4.52602
5.31
6.12298
6.93245
7.58339
7.80838
7.53856
18.5722
14.4687
10.6034
7.30533
5.97511
6.53247
7.09587
6.91173
4.10834
1.94036
1.57125
1.80115
2.38443
3.11625
3.89371
4.75386
5.64442
6.48763
7.11099
7.10363
15.9311
12.7369
10.1674
7.8841
6.70798
6.83357
7.17433
7.02817
4.99996
2.79014
1.81057
1.68561
1.78763
2.1034
2.67923
3.51043
4.45168
5.37844
6.24615
6.57809
13.9778
11.5868
10.0846
8.49674
7.71173
7.48144
7.38376
7.19013
5.61274
3.73354
2.41715
1.80029
1.70635
1.77738
2.04099
2.67515
3.54403
4.46109
5.40251
5.9769
12.58
10.6915
9.97789
8.85489
8.74135
8.34886
7.84849
7.46338
6.14704
4.56092
3.17797
2.14335
1.78459
1.8089
2.0008
2.41576
3.03863
3.79316
4.69316
5.26996
11.4065
9.8884
9.70985
8.84355
9.18047
9.04581
8.49025
7.95447
6.73965
5.347
3.97237
2.74779
2.08186
2.01144
2.1193
2.42171
2.82484
3.37918
4.03859
4.35973
10.4683
9.1933
9.34621
8.73077
9.133
9.10583
8.86777
8.57011
7.43652
6.15879
4.83706
3.60293
2.75979
2.46433
2.43681
2.54456
2.72675
2.99296
3.21239
3.55699
9.69531
8.57594
8.90629
8.50186
8.92523
8.99668
8.83343
8.72619
8.09491
6.96137
5.72299
4.55743
3.66117
3.13006
2.87751
2.7501
2.72545
2.75007
2.87441
3.57862
8.91425
7.94333
8.3696
8.12274
8.48724
8.66493
8.62558
8.65743
8.29939
7.59026
6.5513
5.48223
4.59039
3.91391
3.47019
3.04662
2.76178
2.77905
3.01177
4.1951
8.25465
7.39005
7.85326
7.70905
7.98538
8.18202
8.23742
8.4217
8.23552
7.7761
7.12687
6.32613
5.52188
4.82168
4.14884
3.28051
2.90445
3.03098
3.55817
6.43355
7.22263
6.48908
6.93436
6.89366
7.04828
7.18949
7.2784
7.53583
7.64586
7.48505
7.09271
6.59698
6.02822
5.33784
4.42847
3.62336
3.63964
4.25386
6.49067
12.5685
27.1863
30.7852
32.9828
34.3816
35.3781
35.4986
34.9142
32.0408
27.4353
23.1833
19.5729
16.7719
14.7046
13.2224
11.9832
10.9971
10.1824
9.35018
8.65759
7.61017
30.7397
34.5301
36.5105
36.5341
37.5918
38.5736
37.9016
33.4481
25.5993
19.0809
15.369
13.4465
12.1742
11.21
10.3583
9.62382
8.97102
8.29148
7.7017
6.78106
32.8833
36.4003
38.3706
35.8737
37.2212
40.1214
39.9744
34.2032
22.4677
14.01
11.3549
10.7974
10.6538
10.4941
10.1805
9.77538
9.29419
8.71401
8.15903
7.21349
34.3941
36.6021
35.9828
31.0852
31.6013
40.7726
43.7503
39.4893
22.0055
7.67089
7.85894
8.38854
8.92022
9.28285
9.27045
9.15549
8.91462
8.49992
8.04523
7.19467
35.458
37.5986
36.5617
29.8087
5.47926
6.03475
6.46538
7.29321
8.35266
9.36119
9.58979
9.49548
9.22828
8.72849
8.20365
7.27732
35.5593
38.4897
39.7781
40.4004
6.61305
6.87315
6.96399
7.32215
8.04758
8.92527
9.50102
9.49379
9.33145
8.90766
8.36953
7.36718
34.8148
37.706
39.6718
43.5678
7.29246
7.58041
7.57739
7.64141
7.90191
8.44476
9.08798
9.35733
9.28016
8.98662
8.50626
7.46653
31.813
33.0993
33.7902
39.121
7.99713
7.3263
7.37229
7.46626
7.64831
7.99043
8.56966
9.14741
9.21771
9.11668
8.81312
7.8037
27.1791
25.2518
22.1538
21.9841
5.36427
6.45537
7.17817
7.8855
1.99435
3.13193
4.36754
5.284
5.94159
6.57082
7.26637
8.01941
8.64362
8.75893
8.66266
7.98402
22.923
18.7541
13.7336
7.45852
5.85549
6.81384
7.58853
7.38347
3.26696
1.75578
2.12972
2.99472
3.97977
4.88408
5.75669
6.63267
7.46288
8.07475
8.20976
7.86301
19.3429
15.102
11.115
7.64906
6.33196
6.90631
7.58426
7.42875
4.541
2.18772
1.7777
2.00993
2.61727
3.41214
4.27792
5.21714
6.15905
7.0218
7.58728
7.51847
16.5771
13.2382
10.6264
8.21356
7.20408
7.27312
7.64873
7.51784
5.44683
3.1255
2.0518
1.89803
1.99354
2.34217
3.00334
3.93281
4.94232
5.92202
6.81119
7.03053
14.5413
12.0031
10.5026
8.78826
8.2795
7.99993
7.90666
7.69302
6.09208
4.15204
2.72881
2.02984
1.94392
2.02243
2.3398
3.05989
3.98961
4.96927
5.98078
6.41311
13.0847
11.0642
10.3564
9.18131
9.28575
8.86327
8.43443
8.02668
6.70341
5.07092
3.5805
2.44788
2.04781
2.08485
2.33825
2.78621
3.44362
4.27023
5.23549
5.60225
11.8654
10.2317
10.0528
9.17094
9.5119
9.43941
9.05962
8.59316
7.37469
5.93254
4.47269
3.16975
2.44048
2.36602
2.48381
2.81166
3.23557
3.81105
4.38321
4.58531
10.8969
9.51456
9.65666
9.05398
9.41698
9.44042
9.32069
9.14265
8.10524
6.78742
5.41074
4.1263
3.22168
2.8842
2.84934
2.96693
3.11645
3.30315
3.46822
4.02775
10.0979
8.87778
9.18666
8.8167
9.14996
9.2839
9.24537
9.20347
8.69507
7.59414
6.34048
5.1376
4.17884
3.60093
3.33244
3.15957
3.09495
3.13833
3.36715
4.24489
9.27939
8.21375
8.62022
8.41242
8.65433
8.8611
8.95525
9.10018
8.77776
8.16194
7.17335
6.10552
5.16365
4.46004
3.97226
3.40087
3.1601
3.26546
3.6435
5.60664
8.59583
7.63553
8.07846
7.96962
8.13441
8.32343
8.4792
8.78767
8.66918
8.24788
7.66531
6.94187
6.14636
5.4205
4.56573
3.58464
3.42169
3.67633
4.82888
9.29771
7.556
6.7261
7.14875
7.13373
7.21405
7.31847
7.44318
7.76818
7.96136
7.8695
7.55859
7.08851
6.50222
5.71861
4.71855
4.13408
4.33745
5.66968
9.3327
16.3211
28.1083
31.6866
33.9526
35.4877
36.7267
36.9836
36.4709
33.559
28.8442
24.4365
20.6553
17.6975
15.5027
13.9168
12.6049
11.5691
10.7176
9.84365
9.12794
8.06037
31.6634
35.4821
37.6324
38.0826
39.4609
40.4632
39.7959
35.2116
27.1137
20.2665
16.3342
14.1926
12.7505
11.6908
10.782
10.0171
9.34149
8.6331
8.02621
7.09295
33.9028
37.5611
39.7948
38.1462
39.6166
42.2447
42.0344
36.1481
24.0336
15.0283
12.1881
11.5232
11.2554
10.979
10.5776
10.1165
9.59413
8.98054
8.40816
7.46037
35.5291
38.1736
38.2998
34.0466
33.3389
42.5414
45.7215
41.4941
23.8701
8.25663
8.4185
8.90441
9.37635
9.66847
9.63579
9.50614
9.25098
8.81623
8.34707
7.47955
36.8013
39.3055
39.0693
31.5901
6.00789
6.30043
6.85202
7.84427
8.96792
9.84292
9.88215
9.74911
9.43018
8.90109
8.38767
7.4856
36.9846
40.298
41.7887
41.9011
6.75122
7.06228
7.21276
7.67764
8.46689
9.32273
9.75131
9.7093
9.49024
9.0106
8.47402
7.5136
36.2708
39.4301
41.4951
45.3556
7.41011
7.73217
7.7736
7.91305
8.27673
8.86018
9.45922
9.58846
9.48272
9.1175
8.59942
7.57502
33.1913
34.6013
35.3495
40.889
7.99336
7.51536
7.6061
7.7601
8.01017
8.44623
9.06397
9.50077
9.51675
9.36492
8.98367
7.90404
28.4105
26.4512
23.3254
23.2223
5.91767
6.80927
7.5894
8.22976
2.13567
3.37667
4.65716
5.62269
6.35002
7.06268
7.82084
8.58188
9.06885
9.07891
8.9256
8.13611
24.006
19.709
14.5487
8.08402
6.31945
7.22314
7.98142
7.76934
3.62515
2.03508
2.41198
3.33081
4.39115
5.38654
6.32557
7.22325
7.99836
8.48351
8.52336
8.08817
20.2638
15.8887
11.834
8.25751
6.89169
7.36319
8.00535
7.85281
4.96383
2.51746
2.07117
2.31159
2.95859
3.82757
4.76927
5.75172
6.69163
7.49215
7.94865
7.80976
17.3654
13.8293
11.2088
8.73916
7.88917
7.8333
8.12698
7.99906
5.92255
3.54606
2.38358
2.19137
2.27646
2.65414
3.4084
4.4102
5.43625
6.40881
7.23228
7.33021
15.2285
12.4544
10.9763
9.20583
8.98355
8.60591
8.48688
8.25515
6.64861
4.66206
3.14234
2.33849
2.24757
2.35267
2.73621
3.49993
4.44231
5.4526
6.43501
6.6859
13.6918
11.4503
10.7468
9.51194
9.80595
9.42709
9.05623
8.69835
7.36123
5.69286
4.10168
2.8266
2.39517
2.45299
2.72851
3.17499
3.8618
4.73916
5.63799
5.79251
12.4202
10.5853
10.3865
9.48461
9.82055
9.80502
9.61896
9.29594
8.11983
6.64602
5.08936
3.66756
2.88804
2.76457
2.86152
3.18385
3.60403
4.14978
4.56542
4.78941
11.4193
9.8571
9.95955
9.36673
9.67675
9.75501
9.7016
9.66765
8.86865
7.54984
6.0861
4.71176
3.73043
3.29007
3.22139
3.32579
3.4257
3.55992
3.77765
4.55138
10.596
9.21181
9.46655
9.13017
9.35336
9.5184
9.58264
9.66429
9.26496
8.30091
7.02517
5.75435
4.71178
4.05044
3.72955
3.47809
3.41676
3.51775
3.83002
4.97517
9.74425
8.52794
8.87733
8.71409
8.83048
9.02096
9.19052
9.4777
9.24185
8.69281
7.78234
6.72405
5.74429
4.99407
4.37354
3.6748
3.55811
3.75564
4.36944
7.18213
9.04222
7.93728
8.32073
8.25801
8.32399
8.4678
8.64595
9.04983
9.04186
8.68667
8.13639
7.45993
6.68526
5.88742
4.80977
3.91418
3.92737
4.41225
6.38255
11.9655
7.98812
7.02105
7.38819
7.40648
7.4277
7.48699
7.59252
7.92271
8.1842
8.18125
7.93671
7.48192
6.85574
5.98184
4.98076
4.70062
5.09887
7.22536
11.986
19.1952
30.2726
34.0679
36.4549
38.1553
39.6582
40.1164
39.7046
36.6693
31.6532
26.9228
22.7935
19.5673
17.1701
15.4185
13.9829
12.8273
11.861
10.8859
10.0938
8.90281
34.0467
38.0621
40.311
41.0882
42.7454
43.7976
43.1653
38.2905
29.7405
22.4172
18.1392
15.7116
14.0738
12.8799
11.8794
11.0323
10.2688
9.48193
8.81699
7.78246
36.3988
40.249
42.4656
41.2829
43.0444
45.3833
45.1546
38.9456
26.2617
16.6672
13.6377
12.8086
12.4216
12.0346
11.5599
11.033
10.4383
9.75645
9.13136
8.09285
38.1217
41.1028
41.3847
37.6562
35.6525
44.7655
48.2186
43.9813
25.8716
9.13564
9.40404
9.95443
10.425
10.5738
10.5111
10.3411
10.0314
9.54722
9.03326
8.08028
39.5932
42.479
42.5452
34.0805
6.81318
6.70178
7.48916
8.7279
9.95097
10.7005
10.676
10.4816
10.1094
9.54304
8.9951
8.02011
39.9417
43.4418
44.7759
44.0948
6.94803
7.47557
7.77271
8.42427
9.31194
10.1949
10.4889
10.3992
10.117
9.58766
9.02009
7.99891
39.3079
42.5004
44.2222
47.5711
7.70437
8.2559
8.39082
8.63684
9.12116
9.76813
10.281
10.2828
10.1197
9.66454
9.08762
7.98197
36.0769
37.2562
37.5153
42.6246
8.35672
8.12278
8.2792
8.49151
8.81576
9.34878
9.97389
10.2487
10.2116
9.96245
9.46317
8.23264
30.9875
28.6187
24.7817
23.494
6.44169
7.11787
7.98014
8.65257
2.49497
3.81785
5.22377
6.28913
7.10847
7.89007
8.69254
9.44554
9.78542
9.7311
9.4705
8.47644
26.3084
21.5788
15.8563
8.78036
6.82719
7.67773
8.50354
8.40524
4.20643
2.47478
2.91157
3.90941
5.02854
6.08378
7.09042
8.0324
8.79485
9.13609
9.10125
8.47558
22.2767
17.5612
13.1594
9.13835
7.60742
7.97911
8.6323
8.53556
5.65207
3.06215
2.48456
2.72688
3.40959
4.35701
5.40521
6.4587
7.42893
8.18012
8.47279
8.20936
19.165
15.2923
12.4807
9.76272
8.78401
8.62797
8.87639
8.74383
6.65855
4.18166
2.81592
2.55868
2.66464
3.11312
3.96939
5.01972
6.05405
7.01763
7.70879
7.69785
16.8605
13.7558
12.1664
10.2637
9.94281
9.47666
9.34809
9.07911
7.44093
5.33779
3.62032
2.725
2.66885
2.80132
3.23485
3.98245
4.90778
5.94029
6.87669
6.99796
15.1763
12.6281
11.828
10.4327
10.6546
10.299
9.96003
9.61286
8.20657
6.40871
4.65301
3.28872
2.84957
2.89829
3.09238
3.49517