/*--------------------------------*- C++ -*----------------------------------*\
  =========                 |
  \\      /  F ield         | OpenFOAM: The Open Source CFD Toolbox
   \\    /   O peration     | Website:  https://openfoam.org
    \\  /    A nd           | Version:  9
     \\/     M anipulation  |
\*---------------------------------------------------------------------------*/
FoamFile
{
    format      ascii;
    class       volScalarField;
    location    "0.003";
    object      rho.Air;
}
// * * * * * * * * * * * * * * * * * * * * * * * * * * * * * * * * * * * * * //

dimensions      [1 -3 0 0 0 0 0];

internalField   nonuniform List<scalar> 
9720
(
0.0208414
0.0255671
0.0267496
0.0275113
0.0282145
0.0283194
0.0278361
0.0257611
0.0225473
0.0194589
0.0166701
0.0144584
0.0127835
0.0115188
0.010419
0.00952815
0.00873604
0.0079847
0.00745495
0.00599052
0.0256675
0.0348259
0.0364739
0.0368553
0.0379112
0.0386389
0.0381566
0.0338009
0.0267165
0.0211456
0.0178751
0.0157049
0.0138655
0.0122455
0.0107236
0.00944885
0.00833762
0.00740637
0.00676752
0.00510881
0.026864
0.0364943
0.0382509
0.0368977
0.0379358
0.0394793
0.0392911
0.033972
0.0225257
0.0139864
0.0116026
0.0115833
0.0115473
0.0112823
0.0106785
0.00983334
0.00882478
0.00787135
0.007126
0.00525368
0.0275888
0.0371234
0.0373145
0.0338119
0.0314088
0.0393183
0.0427222
0.038975
0.0231043
0.00714449
0.00734919
0.00795563
0.00858197
0.00885768
0.00880268
0.00852063
0.0079714
0.00731801
0.00664077
0.00503215
0.0281207
0.0381214
0.0382051
0.0319391
0.00639529
0.00322053
0.00371847
0.00460106
0.00564764
0.00653138
0.00672214
0.0066482
0.0063773
0.00597284
0.00532103
0.00438239
0.0280833
0.0385878
0.0393632
0.039284
0.00342738
0.00126829
0.00140817
0.00171356
0.00224694
0.00291054
0.00355085
0.00412267
0.00418315
0.00410608
0.00367792
0.00358079
0.0274378
0.0377608
0.038714
0.0423223
0.00177969
0.000550388
0.000573907
0.00062609
0.000738636
0.000928337
0.00121145
0.00159856
0.00205166
0.00243373
0.00240314
0.00269239
0.0252081
0.0330235
0.0329308
0.0377577
0.00092707
0.000433743
0.000500914
0.000575636
0.00067411
0.000820669
0.00101697
0.00126565
0.00157105
0.00178658
0.00177593
0.0020713
0.0219991
0.0260742
0.0215167
0.0213218
0.00567226
0.00339624
0.0020181
0.00119946
0.000177731
0.000176537
0.00026084
0.00038051
0.00052092
0.000686959
0.000879292
0.00111841
0.00143248
0.00167208
0.0016717
0.00185724
0.0189975
0.0206216
0.0133096
0.00669055
0.0032935
0.00148105
0.000730684
0.000528379
0.000201737
0.000161394
0.000183865
0.00024613
0.000366642
0.000537191
0.000741535
0.000981339
0.00127866
0.0015933
0.00166309
0.00182591
0.0162879
0.0173772
0.0109459
0.00691631
0.00384601
0.00166856
0.000778262
0.000613163
0.000302914
0.000188754
0.000198884
0.000240737
0.000305864
0.000419557
0.000593911
0.000825098
0.00110469
0.00145466
0.00161468
0.00181792
0.014158
0.0152589
0.0110383
0.0075243
0.00473957
0.0020283
0.000854758
0.00070397
0.000436468
0.00026424
0.000244541
0.00026264
0.000310504
0.000384526
0.00050453
0.000693915
0.000938396
0.00128215
0.00151194
0.00177322
0.0125507
0.0134993
0.0110876
0.00822237
0.00582129
0.00263805
0.000992233
0.000816725
0.00059292
0.000401281
0.000324754
0.000317531
0.00033553
0.000394539
0.00050148
0.000639318
0.000829323
0.00113501
0.00138695
0.00167012
0.0113415
0.0119688
0.010919
0.00863765
0.00674894
0.00338481
0.00121007
0.000975606
0.000776809
0.00059203
0.000462683
0.000401849
0.000407025
0.000441204
0.000518413
0.000642877
0.000797458
0.00104275
0.00123531
0.00147432
0.0102901
0.0105387
0.0104196
0.00862415
0.00693482
0.00416766
0.00155438
0.00118982
0.000993884
0.000820584
0.000660661
0.0005461
0.000521818
0.000532573
0.000571644
0.000674271
0.000809239
0.000964591
0.00105736
0.0013796
0.00944021
0.00934069
0.00969018
0.00844041
0.00686206
0.00464948
0.00201322
0.00148273
0.00127931
0.0010991
0.000918038
0.00076242
0.000679977
0.000670684
0.000692636
0.000756536
0.000832061
0.000927136
0.00102854
0.00162676
0.00868129
0.00829651
0.00879449
0.00801081
0.00659994
0.00463604
0.00254735
0.00184395
0.00163749
0.00143437
0.00122558
0.00103381
0.000899135
0.000850496
0.000847805
0.00085269
0.000871856
0.000955235
0.0011297
0.00522947
0.00795411
0.00741001
0.00791404
0.00743073
0.00619714
0.00450151
0.00279659
0.00200251
0.00179416
0.00171425
0.00157347
0.00139569
0.00123721
0.00113564
0.00103413
0.000965922
0.000982293
0.00122214
0.00278412
0.0502638
0.00743748
0.00679175
0.00720097
0.00678079
0.00553182
0.00396088
0.00267755
0.00195024
0.00175459
0.00173515
0.00169365
0.00160509
0.00148926
0.00134456
0.00113977
0.00108306
0.00117329
0.00274763
0.0170131
0.263697
0.00598089
0.00512038
0.00528947
0.00509719
0.00446623
0.00369887
0.00286449
0.00219057
0.00191102
0.00185268
0.00185294
0.00182288
0.00173762
0.00156319
0.00145599
0.00168965
0.00504542
0.0472259
0.255666
1.50244
0.0167444
0.0209346
0.0218887
0.0222509
0.0225354
0.0224713
0.021849
0.020028
0.0175904
0.0153333
0.0132748
0.0115568
0.0102147
0.00920844
0.00830034
0.00758513
0.00696208
0.00636034
0.00591489
0.00474947
0.021074
0.0334114
0.0355225
0.0362154
0.0366977
0.036535
0.0355599
0.0315615
0.0252009
0.0199348
0.016847
0.0144144
0.0121097
0.0101158
0.00837671
0.00705168
0.00603491
0.00527104
0.0046755
0.00360757
0.0220879
0.0356722
0.0379184
0.0369995
0.0372473
0.0370842
0.0360547
0.0317276
0.0210224
0.0127575
0.0105242
0.0104294
0.0101969
0.00959646
0.00852016
0.0072738
0.00608602
0.00521271
0.00446205
0.00348251
0.0224717
0.036863
0.0377776
0.0331972
0.0290581
0.036316
0.0414976
0.0425905
0.0188136
0.00452598
0.00503763
0.0057317
0.00641454
0.00662394
0.00642455
0.00588836
0.00515673
0.00450456
0.0037364
0.00314575
0.0226556
0.0373203
0.0379041
0.0311788
0.00199682
0.000390028
0.000917319
0.00162032
0.00248197
0.00334378
0.00363522
0.00360216
0.00340742
0.0030906
0.00250611
0.00253328
0.0223207
0.0366441
0.0371006
0.0361316
2.47174e-05
9.65565e-05
0.00019634
0.000341822
0.000584854
0.000931563
0.00127261
0.00163339
0.00175559
0.0017209
0.00155423
0.0018578
0.0214509
0.035155
0.0355508
0.0405922
6.40012e-05
0.000137638
0.000187741
0.000240836
0.000307789
0.000398317
0.00051052
0.000660358
0.000823662
0.00097189
0.000991981
0.00135513
0.0194815
0.030718
0.0307939
0.0406229
0.000175302
0.000272701
0.000328933
0.000395717
0.000471847
0.000574361
0.000709239
0.000813223
0.000896128
0.000976333
0.000978055
0.00117956
0.0170141
0.024363
0.0197705
0.0170858
0.00198112
1.34093e-05
3.53689e-05
0.000104862
9.18932e-05
0.000146907
0.00021632
0.000305109
0.000406035
0.000530182
0.00067264
0.000844403
0.00105484
0.00110874
0.00108383
0.00119947
0.0148245
0.0191828
0.0118209
0.00437364
0.000471208
0.000101025
0.000114236
0.000212375
0.00013032
0.000122682
0.00014413
0.000203248
0.000303913
0.000438791
0.000596275
0.000785949
0.000991548
0.00122111
0.00125572
0.00131713
0.0128512
0.0161729
0.00977609
0.00493933
0.00111055
0.000241041
0.000179339
0.000276354
0.000187918
0.000141581
0.00015305
0.000190955
0.000253307
0.000352507
0.000493077
0.000678153
0.000891646
0.00114676
0.00130599
0.00147768
0.0112217
0.0138477
0.00991141
0.00570795
0.00191241
0.000438588
0.000247419
0.000354871
0.000272008
0.000192587
0.000190841
0.000208704
0.000248993
0.000308343
0.000406874
0.000567169
0.000774161
0.00104687
0.0012637
0.00148998
0.0099593
0.0116938
0.00985061
0.00648965
0.00288605
0.000756827
0.00033095
0.000443079
0.000374975
0.000286072
0.00025227
0.000251173
0.00026452
0.000311103
0.000405265
0.000539111
0.00070932
0.000963844
0.00119399
0.00144596
0.00902325
0.00985591
0.00941829
0.00677494
0.00378529
0.00118655
0.000441781
0.00056043
0.000506978
0.00042002
0.000349772
0.000314692
0.00031683
0.000346757
0.000424618
0.000548665
0.000696478
0.000911418
0.00110034
0.00131728
0.00817486
0.00826287
0.00849668
0.00659978
0.00401379
0.00162651
0.000586709
0.000706699
0.000661443
0.000585211
0.000492014
0.000415753
0.000415578
0.00043233
0.000480593
0.000583002
0.000709243
0.000862476
0.000962568
0.00120434
0.00750818
0.00704261
0.00737175
0.00611865
0.00396411
0.00201598
0.000776682
0.000836779
0.000860496
0.000792991
0.000683797
0.000578022
0.000554347
0.000562834
0.000593228
0.000660375
0.000734294
0.000823718
0.000915944
0.00132645
0.00691834
0.00609097
0.00625931
0.00543064
0.00372835
0.0020418
0.000982331
0.000981547
0.00107099
0.00101747
0.000914228
0.000791705
0.000730481
0.00072174
0.000732843
0.000749357
0.000770985
0.00084058
0.000972961
0.0032663
0.00633199
0.00535241
0.0054017
0.00477316
0.00335768
0.00197303
0.00111465
0.00103502
0.0011125
0.00122204
0.00116405
0.00107471
0.000997301
0.000953301
0.000904354
0.000852248
0.000860259
0.000999746
0.00182881
0.0296828
0.00589779
0.0047615
0.0046422
0.00397544
0.00266389
0.00169346
0.00109532
0.00101126
0.00107964
0.00122017
0.00130464
0.00127588
0.00122259
0.00114462
0.00100895
0.000950479
0.00100245
0.00182316
0.00957032
0.162989
0.00474095
0.00363468
0.00353582
0.00321789
0.00260797
0.00193998
0.0014272
0.00121736
0.00119032
0.00127561
0.00144187
0.00147734
0.0014455
0.00133875
0.00123742
0.00136105
0.00323886
0.0284943
0.160149
1.08142
0.0120672
0.0141081
0.0145033
0.0143651
0.0142124
0.0139191
0.0133568
0.012266
0.0111063
0.0101994
0.00930752
0.00845265
0.00771571
0.00714233
0.00657476
0.00609634
0.00565261
0.00519951
0.00482301
0.00388054
0.0142126
0.0311638
0.033833
0.0345455
0.0339317
0.0318254
0.0297163
0.026196
0.0212012
0.0169199
0.014048
0.0107719
0.00819825
0.00643259
0.00509244
0.00417401
0.00358836
0.00323987
0.00287717
0.00256048
0.0146528
0.0342399
0.0369887
0.0361828
0.0346206
0.0278962
0.024595
0.0212268
0.0139587
0.00833359
0.00687943
0.00662413
0.00607843
0.0051243
0.00390164
0.0029289
0.002374
0.00221961
0.00205148
0.00223016
0.0145307
0.0355967
0.037326
0.0199091
0.0104417
0.0112053
0.0242857
0.000826677
2.76473e-05
0.000237027
0.000636832
0.00122309
0.00194201
0.00218991
0.00206995
0.00179036
0.00151757
0.00144768
0.00139704
0.00182015
0.0143123
0.0349205
0.0355246
0.000449418
1.07926e-06
1.35639e-05
3.76628e-05
0.00010533
0.000256712
0.000483518
0.000651904
0.000733187
0.000742185
0.000755652
0.000761112
0.00133926
0.0138581
0.0320255
0.0272408
0.0262301
1.97816e-05
4.76658e-05
5.69046e-05
7.6953e-05
0.000111907
0.000162866
0.000221712
0.000293347
0.000359089
0.000422852
0.000454249
0.000956702
0.0131899
0.0292805
0.0240892
0.0270923
7.87909e-05
0.000146387
0.000151589
0.000159528
0.000177194
0.000210978
0.000252981
0.000300074
0.000347249
0.000400964
0.000432243
0.000766775
0.0120669
0.0252707
0.0204709
0.000608065
0.000217098
0.000308979
0.00035022
0.000399221
0.000449813
0.000517653
0.000626352
0.000629497
0.000607228
0.000576888
0.000555396
0.000730205
0.0108639
0.0200868
0.0126327
0.000114683
6.06372e-07
1.41517e-05
6.27822e-05
0.000179704
0.000108875
0.000164491
0.000232721
0.000312381
0.000393083
0.000490249
0.000601284
0.000750546
0.000892671
0.000878172
0.000806191
0.000854767
0.00995293
0.015798
0.00694338
0.000193328
1.1214e-05
3.87247e-05
0.000123322
0.000265837
0.000153072
0.000119889
0.000140697
0.000200227
0.000291996
0.000406402
0.000537638
0.000701813
0.000859097
0.00105414
0.00106084
0.00106433
0.00907949
0.0130778
0.00591718
0.000553118
3.80054e-05
4.8633e-05
0.000128661
0.000304836
0.000211535
0.000138658
0.000146347
0.000176523
0.000234607
0.000324369
0.00044668
0.000605218
0.000786404
0.00099332
0.00114329
0.00127917
0.00824818
0.0101172
0.006042
0.00115191
0.000118969
6.80836e-05
0.000137165
0.000351064
0.00028098
0.000190068
0.000175675
0.000189776
0.000223522
0.000273219
0.000358213
0.000497364
0.000679196
0.000908429
0.00110798
0.00132284
0.00754532
0.00782868
0.00578977
0.00196274
0.000306074
0.000103266
0.000155429
0.000397586
0.000353594
0.000271274
0.000228371
0.000223471
0.000234111
0.000269402
0.000340941
0.00045757
0.000611602
0.000832637
0.00105071
0.00129558
0.00700916
0.00628418
0.00505144
0.00231142
0.000569835
0.000158312
0.000190219
0.000466257
0.000443736
0.000373687
0.000307458
0.000271383
0.000270339
0.000290006
0.000352802
0.000463379
0.000597747
0.000791982
0.000989215
0.00121539
0.00647923
0.0050932
0.00397117
0.00220555
0.000744162
0.000227025
0.000235884
0.000557146
0.000545311
0.00049681
0.000419824
0.000348708
0.000342541
0.000354529
0.000398197
0.000489398
0.000607953
0.000770265
0.00089995
0.00108506
0.00603485
0.00424515
0.00305691
0.00193562
0.000828323
0.000313687
0.000283408
0.000554758
0.000705539
0.000653334
0.000566962
0.000474526
0.000457292
0.000465686
0.000492992
0.000554676
0.000634403
0.000733558
0.000815671
0.00109287
0.00561709
0.003676
0.0025057
0.00165264
0.000820426
0.000381751
0.000329652
0.000538353
0.000804791
0.000817168
0.000749981
0.000646931
0.000601776
0.000601437
0.000613083
0.000638426
0.00067013
0.000734176
0.00082861
0.00162934
0.00517928
0.00331705
0.0023301
0.00155408
0.000811469
0.000435622
0.000379495
0.000516041
0.000787113
0.000984283
0.000946324
0.000876815
0.000815368
0.000790503
0.000775843
0.000741696
0.000740851
0.000801156
0.00105508
0.00948692
0.00481332
0.00294267
0.00211793
0.00146607
0.000798923
0.000454993
0.000405892
0.000503622
0.000720298
0.000962123
0.00109018
0.00106556
0.00102412
0.000979804
0.000903237
0.00082576
0.000838053
0.00105837
0.00294721
0.0559478
0.0038738
0.00257404
0.00225861
0.00186709
0.00137053
0.000966831
0.000757893
0.000692586
0.00078787
0.000968213
0.00119553
0.00126941
0.00125289
0.00118938
0.00108085
0.00109633
0.00165247
0.00954342
0.0566819
0.588007
0.0101435
0.0110777
0.0113582
0.0112621
0.0110866
0.0108369
0.0104521
0.0096833
0.00890289
0.00838724
0.0078636
0.00730672
0.00679039
0.00636462
0.00592123
0.00552185
0.00513671
0.00473359
0.00439329
0.00352038
0.0110732
0.0173401
0.017733
0.0107221
0.00893763
0.0078563
0.00684315
0.00554171
0.00397701
0.00236805
0.00231697
0.00480464
0.00464504
0.00416493
0.0035395
0.0030278
0.00270714
0.00255256
0.00234282
0.00223718
0.0113728
0.0179
0.0119866
0.00844618
0.00846592
0.0093113
0.00971273
0.00672296
0.00391146
0.00115328
0.000835193
0.00116777
0.00124312
0.00119003
0.00105067
0.00100991
0.00105106
0.00127415
0.00140088
0.00186478
0.0112835
0.0108119
0.00890311
0.00035885
0.000893317
0.0024819
0.0281523
0.000365992
4.09027e-05
4.05418e-06
1.60779e-05
5.51046e-05
0.00013894
0.000227377
0.000283007
0.000339555
0.00042564
0.00061954
0.00075386
0.00146461
0.0110922
0.00879609
0.00929366
0.000721311
1.85829e-06
1.67979e-05
2.37323e-05
3.65745e-05
5.80762e-05
8.92113e-05
0.000126017
0.000171081
0.000224923
0.000320889
0.000395171
0.00107605
0.0108022
0.00763881
0.00975686
0.0132682
2.87422e-05
6.55596e-05
7.11373e-05
7.97144e-05
9.57623e-05
0.000119073
0.000145397
0.00017944
0.000223603
0.000286429
0.000329419
0.00079752
0.0104004
0.00663043
0.00957769
0.0292917
0.000106163
0.000177175
0.000181494
0.000187175
0.00019704
0.000215634
0.000236893
0.00025582
0.000278429
0.000318838
0.000352872
0.000656284
0.00966193
0.00530565
0.00663264
0.000486585
0.000264121
0.000329344
0.000364553
0.000405175
0.000449038
0.000503326
0.000602814
0.000619198
0.000591781
0.000544589
0.000504259
0.000654834
0.00887314
0.00381447
0.00388662
5.31262e-05
1.10839e-06
2.2723e-05
8.83581e-05
0.000227645
0.000112705
0.000159188
0.000227081
0.000304697
0.000380833
0.00046661
0.000567637
0.000691646
0.00084036
0.000834598
0.000764182
0.000791958
0.00833876
0.00210305
0.00104405
2.99405e-06
1.24781e-05
5.32578e-05
0.000152451
0.000299843
0.000166852
0.000113413
0.000130699
0.000185991
0.000272579
0.000377128
0.000494573
0.000643885
0.000792384
0.000974651
0.000997579
0.000998022
0.00779493
0.00189902
0.000690617
1.28572e-05
1.85953e-05
5.7869e-05
0.000155018
0.000333197
0.000230347
0.000133916
0.000136857
0.000161115
0.000212725
0.000293703
0.000402277
0.000547763
0.000713563
0.000908958
0.0010477
0.00118652
0.0072226
0.00469618
0.00105185
4.8383e-05
3.00896e-05
6.53508e-05
0.000159094
0.000370127
0.000296444
0.00018877
0.000163575
0.000174402
0.000202263
0.000243313
0.000315088
0.000437779
0.000603635
0.000814978
0.00100405
0.00121943
0.00670218
0.00459719
0.00121565
0.000134002
4.95994e-05
7.93841e-05
0.000167392
0.000408555
0.000360563
0.000267638
0.000214686
0.00020438
0.000211347
0.000237633
0.000290854
0.000389267
0.00053168
0.000736625
0.000943037
0.00119474
0.00628428
0.00418381
0.00120678
0.000233191
7.8381e-05
9.9747e-05
0.000183319
0.000462928
0.000436548
0.000359869
0.000288724
0.000244903
0.000238701
0.000251462
0.000297873
0.000393133
0.000516584
0.000696079
0.000888339
0.00113471
0.00585513
0.00360443
0.00111252
0.000296744
0.000112184
0.000123446
0.000200767
0.000543574
0.000522261
0.00046769
0.000389674
0.000311587
0.000292152
0.000299079
0.000333149
0.000412224
0.000521813
0.000679375
0.000831288
0.00101764
0.0054754
0.00310902
0.00107429
0.000356573
0.000153665
0.000155463
0.000216629
0.000538811
0.000657998
0.000608774
0.000521954
0.000424363
0.000388799
0.000393556
0.000413101
0.000463729
0.000541573
0.000654435
0.000738648
0.000947737
0.00510771
0.00278498
0.00111361
0.000444601
0.000204798
0.000195374
0.000237989
0.00050508
0.000760671
0.000752807
0.000687313
0.000582833
0.000525441
0.000516155
0.000522324
0.00054195
0.000577059
0.000639079
0.00071151
0.00107526
0.00471547
0.00261568
0.00133577
0.000644255
0.000300922
0.000252607
0.000276513
0.000456867
0.000740326
0.000915665
0.000867576
0.000791065
0.000725849
0.000693134
0.000678953
0.000653249
0.000639729
0.000668994
0.000769127
0.00276758
0.00438253
0.00239347
0.00145006
0.000779715
0.000376718
0.000292425
0.000308955
0.000433037
0.000666424
0.000900862
0.00100163
0.000970435
0.000924897
0.000880755
0.000827401
0.000736436
0.000714567
0.000771302
0.00109396
0.0156711
0.00351041
0.00224136
0.00187788
0.00149178
0.00108492
0.000788133
0.000630667
0.000596061
0.000710155
0.000897071
0.00110632
0.00117452
0.0011599
0.00111172
0.00100525
0.00094706
0.00108703
0.00288958
0.016426
0.324786
0.00979252
0.0106485
0.0109392
0.0108938
0.0107179
0.0104668
0.0100965
0.00935861
0.00858861
0.00808392
0.00757744
0.00704209
0.00655397
0.00614917
0.00573233
0.0053522
0.00498125
0.00459307
0.00426382
0.00340006
0.0106204
0.0082254
0.00488828
0.00340874
0.00325246
0.00299649
0.00283418
0.00230755
0.00150427
0.000586278
0.000506167
0.00338943
0.0040446
0.00376913
0.00327834
0.00284024
0.00256276
0.00243638
0.00225397
0.00215689
0.0109194
0.00521666
0.00497601
0.00512585
0.00678139
0.00697229
0.00732837
0.00499566
0.00217583
0.000356676
0.000173035
0.000298129
0.000488881
0.000623765
0.000686832
0.000758787
0.000880971
0.00116889
0.00131441
0.00179259
0.0108884
0.00322711
0.00493231
0.00149674
0.00224875
2.22045e-16
0.021819
0.000412773
2.81857e-05
4.06867e-06
8.70606e-06
1.95232e-05
4.19887e-05
8.07786e-05
0.000136853
0.000218839
0.000330976
0.00054606
0.000688585
0.00140159
0.0107039
0.00295479
0.00574433
9.59249e-05
2.56002e-06
2.12004e-05
2.68866e-05
3.64938e-05
5.55792e-05
8.6e-05
0.000120333
0.000161494
0.000211999
0.00030364
0.000376245
0.00103328
0.0104336
0.00297875
0.00705812
0.000316287
3.92953e-05
8.14721e-05
8.70919e-05
9.41002e-05
0.000107734
0.000129367
0.000153575
0.00018412
0.000224895
0.00028776
0.000331551
0.000774715
0.0100519
0.00284742
0.0074562
0.0241588
0.000129062
0.000205055
0.000209141
0.000213999
0.000222026
0.000236748
0.000255242
0.000270971
0.000289442
0.00032492
0.000357537
0.000643549
0.00934091
0.00230961
0.00501441
0.000303139
0.000285596
0.000353383
0.000386206
0.000422557
0.00046227
0.000508792
0.00059581
0.000622841
0.000598741
0.000555596
0.000511822
0.000651702
0.00858742
0.0015697
0.00237787
3.32336e-05
1.71083e-06
2.9873e-05
0.000105495
0.000247494
0.000110049
0.000162174
0.000235079
0.000313812
0.000388599
0.00046666
0.000558594
0.000670271
0.000825883
0.000828516
0.000766817
0.000789208
0.0080865
0.000599316
0.000385279
3.10731e-06
1.64152e-05
6.49387e-05
0.000168774
0.000307754
0.000165269
0.000108847
0.000126808
0.000183807
0.000271089
0.000370927
0.000480342
0.000622909
0.000773646
0.000954795
0.000990162
0.000991875
0.00757356
0.000481592
0.000176613
7.52002e-06
2.12748e-05
6.94026e-05
0.000171928
0.000337935
0.000229272
0.000129314
0.000131645
0.000154141
0.000203646
0.000282657
0.000387548
0.000529884
0.000693585
0.000888991
0.0010236
0.00116768
0.00702629
0.0034216
0.000310262
1.94004e-05
3.08323e-05
7.55593e-05
0.000176113
0.00037282
0.000295136
0.000183415
0.000155577
0.000165043
0.000191801
0.000234157
0.000303732
0.000422787
0.000584158
0.000790361
0.000975423
0.00118781
0.00652781
0.00410079
0.000521491
4.45524e-05
4.97735e-05
8.79743e-05
0.000183351
0.000409147
0.000358261
0.000260716
0.000202744
0.000192892
0.000200787
0.000225735
0.000272351
0.000362358
0.0005002
0.000702658
0.000906563
0.00115829
0.00612006
0.00382518
0.000671055
8.74511e-05
7.52021e-05
0.000106876
0.000196504
0.000457662
0.000429257
0.000348246
0.000273251
0.000231357
0.00022501
0.000235548
0.00027565
0.000360499
0.000477113
0.000654639
0.000844003
0.00109438
0.00570541
0.00334348
0.000741213
0.000146313
0.000102692
0.000127891
0.000212068
0.000536782
0.000509552
0.000449037
0.000370562
0.000295246
0.000269463
0.000273569
0.000300714
0.000373117
0.00048053
0.00063442
0.000788943
0.000984143
0.00533455
0.00291248
0.000813759
0.000228827
0.000137988
0.000155355
0.000225071
0.000536886
0.000633452
0.00058649
0.000501573
0.000405783
0.000355449
0.000356413
0.000371224
0.000417993
0.000495797
0.000613447
0.000705357
0.000890502
0.00497241
0.00263195
0.000935075
0.000341493
0.000184283
0.00019306
0.000242758
0.000507224
0.000749233
0.000728926
0.000664296
0.000560597
0.00048613
0.000471666
0.000476726
0.00049372
0.000531083
0.000596464
0.00065792
0.000952796
0.00458883
0.00249562
0.00122683
0.000563484
0.00027598
0.000250769
0.000277767
0.000460576
0.000733363
0.000897038
0.000844358
0.000761277
0.000684295
0.000646194
0.000629512
0.000609429
0.000594639
0.000613789
0.000689367
0.00187774
0.00426418
0.00230674
0.00136529
0.000709623
0.000350975
0.000291244
0.000309743
0.000436209
0.000665202
0.00089193
0.000973875
0.000937743
0.000883629
0.000832938
0.000783271
0.000700798
0.000656971
0.000689369
0.000863712
0.00947373
0.00339796
0.00216835
0.00181282
0.00142712
0.00103585
0.000758441
0.000613203
0.00059006
0.00070543
0.000890217
0.00108908
0.0011419
0.00112208
0.00107099
0.000971553
0.00088687
0.000956479
0.00193879
0.00990071
0.255024
0.00979088
0.0106471
0.0109444
0.0109045
0.010707
0.0104473
0.0100815
0.00935617
0.00858891
0.00808048
0.00757041
0.00703226
0.00654271
0.00613699
0.00571819
0.00533694
0.00496595
0.00457834
0.00425009
0.00339016
0.0106225
0.00820305
0.00476838
0.00340329
0.00330951
0.00297763
0.00280179
0.00229515
0.00147747
0.000575247
0.000506253
0.00334592
0.0040154
0.00373946
0.00324727
0.00280931
0.00253514
0.00241263
0.00223426
0.00214374
0.0109151
0.00530048
0.00498748
0.00511657
0.00698239
0.00693399
0.00722224
0.00496695
0.00211324
0.000342622
0.000170481
0.000291238
0.000476217
0.000607594
0.000669823
0.000742236
0.000865321
0.00115297
0.00129934
0.00177769
0.0108841
0.00326521
0.00499172
0.00159256
0.00616022
0.000144905
0.0170858
0.00021764
2.05399e-05
4.25111e-06
9.02403e-06
1.95867e-05
4.10622e-05
7.82872e-05
0.000133275
0.000215059
0.000327419
0.000540707
0.000681892
0.00138775
0.0107159
0.00297587
0.00583475
1.504e-06
2.60571e-06
2.20832e-05
2.81708e-05
3.7889e-05
5.67636e-05
8.73778e-05
0.000123344
0.00016557
0.000216108
0.000305713
0.000376615
0.00102258
0.0104501
0.00303061
0.00719585
0.00302007
4.31632e-05
8.58508e-05
9.17895e-05
9.92863e-05
0.000113521
0.000135933
0.000160697
0.000191532
0.000231805
0.000294616
0.000338519
0.000774242
0.010062
0.00286712
0.00751429
0.0272448
0.000147106
0.000218709
0.000222084
0.000226591
0.000234648
0.000250016
0.000269312
0.00028476
0.000302158
0.00033582
0.000367286
0.000646446
0.00934159
0.00232592
0.00504965
0.000737827
0.000322102
0.000380909
0.000413649
0.000451715
0.000492955
0.000539436
0.000624752
0.000647995
0.000622245
0.000576766
0.000526246
0.000659285
0.00858837
0.00157724
0.00243795
4.18119e-05
2.1943e-06
3.67595e-05
0.000118849
0.000259851
0.000106172
0.000178158
0.000258262
0.000340985
0.000417604
0.000495692
0.000586498
0.000698257
0.000852671
0.000854246
0.000786781
0.000801723
0.00808946
0.000599112
0.000372496
3.50153e-06
1.82166e-05
6.93726e-05
0.000176375
0.000314979
0.000163389
0.000112889
0.000134525
0.000198315
0.000290839
0.000393168
0.000504243
0.000648488
0.000799495
0.000980365
0.00101251
0.00100768
0.00758375
0.00049064
0.000170086
8.0288e-06
2.31336e-05
7.38471e-05
0.000179372
0.000346527
0.000229121
0.000131905
0.000137023
0.000161852
0.000215338
0.000297664
0.000405668
0.000550959
0.000716578
0.000912275
0.00104532
0.00118495
0.00704204
0.00333419
0.000296872
1.96313e-05
3.27276e-05
8.0309e-05
0.00018372
0.000381863
0.000297976
0.000184888
0.000159837
0.000171249
0.00019933
0.000243043
0.000314972
0.000437376
0.000601718
0.000809433
0.000994935
0.00120441
0.00654618
0.00406635
0.00050002
4.40474e-05
5.20392e-05
9.34374e-05
0.000191488
0.000418011
0.00036265
0.000262691
0.000205741
0.000197948
0.000206931
0.000232099
0.000279285
0.000371674
0.000512083
0.000716645
0.000922448
0.00117372
0.0061369
0.00379179
0.000646508
8.58557e-05
7.86733e-05
0.000113311
0.000206001
0.000464884
0.00043427
0.000351922
0.000276388
0.000235623
0.0002304
0.000241313
0.000282232
0.000367691
0.000485072
0.00066443
0.000856312
0.00110772
0.00571819
0.00330905
0.000718053
0.000143837
0.000107099
0.000134905
0.000223409
0.000547185
0.000517074
0.000454409
0.000374423
0.000298825
0.000274198
0.00027886
0.000307148
0.000380399
0.000487869
0.000642245
0.000798195
0.000993842
0.00534176
0.00287964
0.000793598
0.00022583
0.000142911
0.000162223
0.000236998
0.000551346
0.000640328
0.000594259
0.000507839
0.000409992
0.000360734
0.000362296
0.000378238
0.000425601
0.000502725
0.00061953
0.000710787
0.000896045
0.0049749
0.00260481
0.000918275
0.00033789
0.00018927
0.000199637
0.000254117
0.000524783
0.000764825
0.000738797
0.000671924
0.000566753
0.000492812
0.000479242
0.000484775
0.000501457
0.000537751
0.000601429
0.000662059
0.000957452
0.00458865
0.0024756
0.00121326
0.000557602
0.000279365
0.000257591
0.000287896
0.000479849
0.00075144
0.000909628
0.000854631
0.000769466
0.000692615
0.000655533
0.000638551
0.000617222
0.000600251
0.000618204
0.000693306
0.00187489
0.00426323
0.00229375
0.00135496
0.000702976
0.000353009
0.000298058
0.000319015
0.000450244
0.00068257
0.000907646
0.000984755
0.000947619
0.000893079
0.000842381
0.000792026
0.000708213
0.000661667
0.000693641
0.00086676
0.00942254
0.0033972
0.00216439
0.00180686
0.00141649
0.00102751
0.000754566
0.000614844
0.000599343
0.00071815
0.000904809
0.00110108
0.00115128
0.00113105
0.00107943
0.000979304
0.00089255
0.000960883
0.00193534
0.00979237
0.252856
0.0101397
0.0110801
0.011376
0.0112819
0.011066
0.0107936
0.010412
0.00966384
0.0088825
0.00836604
0.00783831
0.00728214
0.00676891
0.00634468
0.00590023
0.00549799
0.00511006
0.00470514
0.00436379
0.0034944
0.0110663
0.0172644
0.0162697
0.0105197
0.00895798
0.00754231
0.00658699
0.00538527
0.00378167
0.00225387
0.00225278
0.00477262
0.00460786
0.0041216
0.00349025
0.00297456
0.00265353
0.00250081
0.00229431
0.00219911
0.0113478
0.0179026
0.0118948
0.00860103
0.00982592
0.00934698
0.00948428
0.00659666
0.00365128
0.00107408
0.000816206
0.00114055
0.00120561
0.00115023
0.00101257
0.000973417
0.00101425
0.00123272
0.0013587
0.0018192
0.0112711
0.0110238
0.00882276
0.00108967
0.0056754
2.22045e-16
0.0187994
0.000173246
2.63309e-05
4.30553e-06
1.57737e-05
5.18494e-05
0.000127161
0.000211861
0.000269026
0.000328289
0.000415364
0.000604104
0.000734229
0.00142518
0.0111183
0.0090299
0.00877103
1.31585e-06
2.65511e-06
1.92007e-05
2.6463e-05
4.04192e-05
6.35309e-05
9.62737e-05
0.000134761
0.000181734
0.000235774
0.000326997
0.000397223
0.00104904
0.0108409
0.00805255
0.0101328
0.00679272
4.21924e-05
7.78305e-05
8.33605e-05
9.2051e-05
0.000109003
0.000133696
0.000161046
0.000195983
0.000240722
0.000305087
0.000348661
0.000795499
0.0104295
0.00684641
0.00979351
0.0309569
0.000144278
0.000212723
0.000214898
0.000218803
0.000227455
0.000245714
0.000266801
0.000284604
0.000305961
0.00034448
0.000377107
0.000662891
0.00966987
0.00546927
0.00666016
0.000192981
0.000327381
0.000394216
0.000433058
0.000476419
0.00052066
0.000574716
0.000670807
0.000679054
0.000645524
0.000592635
0.000538408
0.000673396
0.00887827
0.00384252
0.00375613
2.68714e-05
2.00541e-06
3.32371e-05
0.000115296
0.000266948
0.000116826
0.000194664
0.000279782
0.000366847
0.000447141
0.000535066
0.000635259
0.000760654
0.000906743
0.000898728
0.0008151
0.000824223
0.00835299
0.00218556
0.00105935
3.52044e-06
1.50492e-05
6.3049e-05
0.000176217
0.000338436
0.000176439
0.000127275
0.000151466
0.000220537
0.000319182
0.000431806
0.000555044
0.00070857
0.00085745
0.00103834
0.00105453
0.00104172
0.00782037
0.00203564
0.00072595
1.42066e-05
2.17324e-05
6.81239e-05
0.00017877
0.00037383
0.000246862
0.000146587
0.000153862
0.000182463
0.000242746
0.000332466
0.000449602
0.000602169
0.000772216
0.000968476
0.00110378
0.00123096
0.00726139
0.00474116
0.00106168
4.9105e-05
3.44198e-05
7.60881e-05
0.000182775
0.00041233
0.000321393
0.000202183
0.000178691
0.000192786
0.000222624
0.000267485
0.000345965
0.000477528
0.000650821
0.000866128
0.00105567
0.00125973
0.00674675
0.00460323
0.00115981
0.000124527
5.53898e-05
9.11982e-05
0.00019113
0.000450194
0.000390466
0.000285383
0.000229437
0.000220147
0.000228434
0.000255392
0.000310662
0.000413514
0.000563788
0.000775674
0.000985796
0.00123158
0.00632492
0.00414638
0.00113114
0.000208395
8.45737e-05
0.00011275
0.000207274
0.000499494
0.000467888
0.000383428
0.000306044
0.000258475
0.000253306
0.000267533
0.000316426
0.000415497
0.00054075
0.000724504
0.000920862
0.00116439
0.00588638
0.00354287
0.00103
0.000267342
0.000118636
0.000137184
0.000225359
0.000585266
0.000557332
0.000495364
0.000410084
0.000325682
0.000306213
0.000314079
0.000350702
0.000432701
0.000543559
0.000701669
0.000853613
0.0010362
0.00549336
0.00304313
0.00100667