/*--------------------------------*- C++ -*----------------------------------*\
  =========                 |
  \\      /  F ield         | OpenFOAM: The Open Source CFD Toolbox
   \\    /   O peration     | Website:  https://openfoam.org
    \\  /    A nd           | Version:  9
     \\/     M anipulation  |
\*---------------------------------------------------------------------------*/
FoamFile
{
    format      ascii;
    class       volScalarField;
    location    "0.003";
    object      rhoE;
}
// * * * * * * * * * * * * * * * * * * * * * * * * * * * * * * * * * * * * * //

dimensions      [1 -1 -2 0 0 0 0];

internalField   nonuniform List<scalar> 
9720
(
1.11098e+08
1.2095e+08
1.28596e+08
1.34601e+08
1.42585e+08
1.44482e+08
1.44667e+08
1.35691e+08
1.21065e+08
1.0477e+08
9.01239e+07
7.89549e+07
7.13072e+07
6.60604e+07
6.26821e+07
6.0098e+07
5.82984e+07
5.66844e+07
5.52209e+07
5.30363e+07
1.20645e+08
1.29502e+08
1.35528e+08
1.38131e+08
1.47383e+08
1.52307e+08
1.51543e+08
1.36311e+08
1.08675e+08
8.27611e+07
6.80405e+07
6.01305e+07
5.56297e+07
5.29424e+07
5.11201e+07
4.98399e+07
4.88162e+07
4.77021e+07
4.66931e+07
4.50133e+07
1.27923e+08
1.35069e+08
1.4023e+08
1.38332e+08
1.47353e+08
1.56249e+08
1.55967e+08
1.37108e+08
9.53373e+07
6.12993e+07
5.14211e+07
4.92544e+07
4.93642e+07
4.9826e+07
5.00396e+07
5.01193e+07
4.99351e+07
4.94004e+07
4.8717e+07
4.72666e+07
1.34043e+08
1.37805e+08
1.38474e+08
1.28431e+08
1.24902e+08
1.55171e+08
1.6939e+08
1.56808e+08
9.61544e+07
3.33382e+07
3.48976e+07
3.77717e+07
4.13283e+07
4.36794e+07
4.54524e+07
4.69645e+07
4.80896e+07
4.85824e+07
4.85888e+07
4.78342e+07
1.42189e+08
1.47052e+08
1.47275e+08
1.26219e+08
2.60688e+07
2.56999e+07
2.85415e+07
3.29594e+07
3.86002e+07
4.3337e+07
4.5133e+07
4.6402e+07
4.71564e+07
4.72063e+07
4.69799e+07
4.61254e+07
1.4414e+08
1.51766e+08
1.55437e+08
1.54884e+08
3.05318e+07
3.33061e+07
3.44777e+07
3.67731e+07
3.99184e+07
4.4485e+07
4.7066e+07
4.83415e+07
4.90644e+07
4.88922e+07
4.82148e+07
4.66332e+07
1.43714e+08
1.50119e+08
1.53868e+08
1.6804e+08
3.85113e+07
4.18869e+07
4.2429e+07
4.32959e+07
4.50014e+07
4.76865e+07
5.07028e+07
5.1526e+07
5.19746e+07
5.14421e+07
5.021e+07
4.76107e+07
1.33942e+08
1.33556e+08
1.33517e+08
1.52064e+08
4.78488e+07
4.66007e+07
4.82409e+07
4.94472e+07
5.10496e+07
5.33651e+07
5.60796e+07
5.74518e+07
5.75068e+07
5.69537e+07
5.52978e+07
5.08239e+07
1.18999e+08
1.05742e+08
9.21939e+07
8.91487e+07
2.42411e+07
3.08733e+07
3.90561e+07
4.81703e+07
1.68243e+07
2.27493e+07
3.21554e+07
3.92114e+07
4.47919e+07
4.95553e+07
5.39042e+07
5.81639e+07
6.00842e+07
6.00383e+07
5.89399e+07
5.47104e+07
1.02784e+08
8.05435e+07
5.97513e+07
3.30823e+07
2.5867e+07
3.33172e+07
4.19294e+07
4.68397e+07
2.49052e+07
1.46282e+07
1.75507e+07
2.45602e+07
3.25575e+07
4.00871e+07
4.68749e+07
5.29233e+07
5.79214e+07
6.02678e+07
6.0252e+07
5.76117e+07
8.84145e+07
6.63992e+07
5.03347e+07
3.46202e+07
2.87744e+07
3.46185e+07
4.25926e+07
4.83782e+07
3.45239e+07
1.85538e+07
1.47165e+07
1.63884e+07
2.17036e+07
2.8983e+07
3.67228e+07
4.40972e+07
5.09483e+07
5.66621e+07
5.88411e+07
5.85324e+07
7.75798e+07
5.88702e+07
4.83233e+07
3.74077e+07
3.30375e+07
3.69791e+07
4.35924e+07
4.96678e+07
4.10892e+07
2.65803e+07
1.71527e+07
1.53332e+07
1.65461e+07
2.04557e+07
2.71342e+07
3.46112e+07
4.21118e+07
4.97794e+07
5.52106e+07
5.66752e+07
7.02229e+07
5.46361e+07
4.8519e+07
4.07694e+07
3.84171e+07
4.00656e+07
4.53555e+07
5.1458e+07
4.63518e+07
3.46744e+07
2.34983e+07
1.71375e+07
1.70048e+07
1.83786e+07
2.19133e+07
2.72924e+07
3.42183e+07
4.24899e+07
5.00113e+07
5.26573e+07
6.51829e+07
5.21099e+07
4.90575e+07
4.30965e+07
4.29114e+07
4.43947e+07
4.80257e+07
5.3886e+07
5.09629e+07
4.20955e+07
3.12437e+07
2.20145e+07
1.88995e+07
1.91947e+07
2.06967e+07
2.384e+07
2.94378e+07
3.72776e+07
4.41485e+07
4.66011e+07
6.19509e+07
5.04148e+07
4.93661e+07
4.4902e+07
4.46888e+07
4.68759e+07
5.07907e+07
5.65168e+07
5.53527e+07
4.88233e+07
3.91119e+07
2.93185e+07
2.32778e+07
2.11463e+07
2.17845e+07
2.41589e+07
2.76789e+07
3.23232e+07
3.56754e+07
4.00602e+07
5.94693e+07
4.92261e+07
4.95257e+07
4.64742e+07
4.59467e+07
4.81312e+07
5.16071e+07
5.76962e+07
5.94324e+07
5.49057e+07
4.65508e+07
3.71549e+07
2.93284e+07
2.49938e+07
2.46399e+07
2.51327e+07
2.62241e+07
2.79618e+07
3.16178e+07
3.94007e+07
5.77439e+07
4.82709e+07
4.94113e+07
4.76737e+07
4.67308e+07
4.88701e+07
5.20511e+07
5.77863e+07
6.08093e+07
5.96909e+07
5.34321e+07
4.49092e+07
3.6706e+07
3.13201e+07
2.91258e+07
2.6816e+07
2.71492e+07
2.91152e+07
3.24094e+07
4.11725e+07
5.61889e+07
4.72154e+07
4.89385e+07
4.82356e+07
4.68576e+07
4.86937e+07
5.15431e+07
5.7173e+07
6.06459e+07
6.14579e+07
5.89356e+07
5.27139e+07
4.53485e+07
3.9864e+07
3.47502e+07
2.9111e+07
2.95962e+07
3.13065e+07
3.56994e+07
5.24795e+07
5.47639e+07
4.62393e+07
4.82892e+07
4.82719e+07
4.66859e+07
4.80076e+07
5.03727e+07
5.53795e+07
5.94604e+07
6.13311e+07
6.05367e+07
5.75057e+07
5.25361e+07
4.67658e+07
3.841e+07
3.31524e+07
3.35025e+07
3.61408e+07
4.47469e+07
6.16965e+07
5.26308e+07
4.46011e+07
4.68657e+07
4.75026e+07
4.58471e+07
4.63845e+07
4.78145e+07
5.08966e+07
5.49209e+07
5.83305e+07
5.97473e+07
5.84391e+07
5.47513e+07
4.91472e+07
4.2675e+07
4.15484e+07
4.28441e+07
5.35202e+07
6.25172e+07
5.95055e+07
1.02108e+08
1.11337e+08
1.18602e+08
1.24146e+08
1.31314e+08
1.32522e+08
1.32153e+08
1.23257e+08
1.09587e+08
9.43743e+07
8.08652e+07
7.05923e+07
6.35701e+07
5.88374e+07
5.57143e+07
5.3454e+07
5.1944e+07
5.05453e+07
4.92465e+07
4.74134e+07
1.11089e+08
1.19536e+08
1.25336e+08
1.27092e+08
1.35841e+08
1.40705e+08
1.39461e+08
1.25056e+08
9.91797e+07
7.48509e+07
6.10254e+07
5.38265e+07
4.98249e+07
4.74942e+07
4.58415e+07
4.46997e+07
4.38615e+07
4.28898e+07
4.19563e+07
4.05168e+07
1.18099e+08
1.24959e+08
1.30679e+08
1.28305e+08
1.36379e+08
1.46195e+08
1.4527e+08
1.27616e+08
8.84785e+07
5.59556e+07
4.6211e+07
4.40735e+07
4.42671e+07
4.49392e+07
4.52827e+07
4.54958e+07
4.5474e+07
4.50832e+07
4.44837e+07
4.32361e+07
1.23861e+08
1.27186e+08
1.29003e+08
1.19909e+08
1.199e+08
1.49445e+08
1.61716e+08
1.49476e+08
9.19231e+07
3.07039e+07
3.2003e+07
3.38909e+07
3.68709e+07
3.94416e+07
4.11035e+07
4.2616e+07
4.38191e+07
4.43469e+07
4.43563e+07
4.37231e+07
1.30922e+08
1.34991e+08
1.35171e+08
1.15774e+08
2.35199e+07
2.4723e+07
2.68728e+07
3.03853e+07
3.50018e+07
3.97747e+07
4.15141e+07
4.28728e+07
4.36654e+07
4.36752e+07
4.33667e+07
4.25076e+07
1.31987e+08
1.3986e+08
1.44882e+08
1.47784e+08
2.98383e+07
3.29381e+07
3.34695e+07
3.49905e+07
3.74016e+07
4.11923e+07
4.39964e+07
4.52384e+07
4.59874e+07
4.58329e+07
4.5088e+07
4.3465e+07
1.30998e+08
1.37955e+08
1.43441e+08
1.6015e+08
3.77287e+07
4.0974e+07
4.09443e+07
4.12506e+07
4.2357e+07
4.44158e+07
4.74847e+07
4.871e+07
4.9209e+07
4.88587e+07
4.76662e+07
4.51118e+07
1.21606e+08
1.22713e+08
1.24751e+08
1.45819e+08
4.61468e+07
4.47009e+07
4.58075e+07
4.67839e+07
4.80123e+07
4.99425e+07
5.25414e+07
5.44717e+07
5.47022e+07
5.44785e+07
5.32055e+07
4.91649e+07
1.07557e+08
9.63296e+07
8.53061e+07
8.69303e+07
2.30605e+07
2.90274e+07
3.71896e+07
4.59534e+07
1.50768e+07
2.04185e+07
2.92192e+07
3.59416e+07
4.10672e+07
4.57103e+07
4.99717e+07
5.41798e+07
5.6913e+07
5.71369e+07
5.65403e+07
5.31456e+07
9.23587e+07
7.23975e+07
5.37682e+07
2.96831e+07
2.41047e+07
3.2153e+07
4.09684e+07
4.5433e+07
2.25309e+07
1.24954e+07
1.4995e+07
2.1309e+07
2.89219e+07
3.62589e+07
4.2885e+07
4.86883e+07
5.36656e+07
5.70118e+07
5.72766e+07
5.56418e+07
7.90907e+07
5.90705e+07
4.45051e+07
3.09928e+07
2.61605e+07
3.26447e+07
4.08523e+07
4.62683e+07
3.14704e+07
1.57712e+07
1.26389e+07
1.41073e+07
1.90345e+07
2.59281e+07
3.31291e+07
4.00118e+07
4.64879e+07
5.24504e+07
5.5743e+07
5.61776e+07
6.91187e+07
5.22606e+07
4.2604e+07
3.29323e+07
2.96302e+07
3.42276e+07
4.10766e+07
4.70724e+07
3.77003e+07
2.30452e+07
1.46965e+07
1.31984e+07
1.42568e+07
1.76473e+07
2.35917e+07
3.06848e+07
3.7971e+07
4.55615e+07
5.20143e+07
5.43035e+07
6.23624e+07
4.85511e+07
4.29767e+07
3.58407e+07
3.43021e+07
3.6693e+07
4.21528e+07
4.82687e+07
4.2537e+07
3.08419e+07
2.05793e+07
1.4802e+07
1.44e+07
1.54375e+07
1.85084e+07
2.39499e+07
3.09063e+07
3.89325e+07
4.68064e+07
5.04175e+07
5.78266e+07
4.64322e+07
4.38706e+07
3.8682e+07
3.90365e+07
4.05447e+07
4.42359e+07
5.01945e+07
4.6985e+07
3.81765e+07
2.80208e+07
1.91549e+07
1.58918e+07
1.614e+07
1.81409e+07
2.1486e+07
2.68794e+07
3.40463e+07
4.12928e+07
4.4534e+07
5.48591e+07
4.49492e+07
4.44073e+07
4.04262e+07
4.07884e+07
4.33995e+07
4.73273e+07
5.28003e+07
5.11591e+07
4.47585e+07
3.54884e+07
2.57878e+07
1.99682e+07
1.85645e+07
1.94039e+07
2.20361e+07
2.54912e+07
2.99518e+07
3.36565e+07
3.74508e+07
5.273e+07
4.39403e+07
4.47528e+07
4.20401e+07
4.21658e+07
4.47312e+07
4.84942e+07
5.45647e+07
5.53328e+07
5.06444e+07
4.25457e+07
3.33131e+07
2.61381e+07
2.26457e+07
2.24872e+07
2.31863e+07
2.41969e+07
2.55487e+07
2.84726e+07
3.57182e+07
5.13305e+07
4.32125e+07
4.48364e+07
4.33469e+07
4.30084e+07
4.55386e+07
4.90318e+07
5.47809e+07
5.75742e+07
5.55404e+07
4.90955e+07
4.0815e+07
3.3483e+07
2.88198e+07
2.69513e+07
2.48887e+07
2.47016e+07
2.62157e+07
2.92534e+07
3.70817e+07
5.00217e+07
4.23331e+07
4.45276e+07
4.39795e+07
4.31144e+07
4.53884e+07
4.86695e+07
5.4466e+07
5.76516e+07
5.81799e+07
5.47644e+07
4.85316e+07
4.19299e+07
3.68465e+07
3.25593e+07
2.6969e+07
2.6646e+07
2.82682e+07
3.17459e+07
4.62727e+07
4.87811e+07
4.14572e+07
4.39716e+07
4.40438e+07
4.28857e+07
4.46352e+07
4.74532e+07
5.29957e+07
5.68188e+07
5.82013e+07
5.72678e+07
5.42667e+07
4.9534e+07
4.4158e+07
3.66285e+07
3.02244e+07
3.0428e+07
3.22637e+07
3.92909e+07
5.58395e+07
4.70105e+07
4.00765e+07
4.27695e+07
4.34337e+07
4.20918e+07
4.30074e+07
4.49241e+07
4.88328e+07
5.30611e+07
5.60973e+07
5.72116e+07
5.58861e+07
5.23873e+07
4.69648e+07
4.01684e+07
3.79181e+07
3.89077e+07
4.74743e+07
5.66009e+07
5.87476e+07
9.91689e+07
1.08365e+08
1.1537e+08
1.21066e+08
1.27623e+08
1.28458e+08
1.27395e+08
1.18371e+08
1.04885e+08
8.99841e+07
7.69771e+07
6.71757e+07
6.05102e+07
5.6005e+07
5.29671e+07
5.07788e+07
4.92612e+07
4.78699e+07
4.66e+07
4.47224e+07
1.08285e+08
1.16491e+08
1.21756e+08
1.23018e+08
1.3076e+08
1.35366e+08
1.33426e+08
1.19221e+08
9.42433e+07
7.08439e+07
5.77572e+07
5.12457e+07
4.77472e+07
4.56382e+07
4.40765e+07
4.29177e+07
4.20439e+07
4.10796e+07
4.01569e+07
3.86811e+07
1.15173e+08
1.21446e+08
1.2685e+08
1.23165e+08
1.29538e+08
1.39795e+08
1.38312e+08
1.20878e+08
8.32419e+07
5.26459e+07
4.35165e+07
4.18051e+07
4.22804e+07
4.3169e+07
4.36984e+07
4.39754e+07
4.39714e+07
4.35915e+07
4.29914e+07
4.16434e+07
1.20542e+08
1.22218e+08
1.22007e+08
1.09198e+08
1.1346e+08
1.42648e+08
1.53313e+08
1.40206e+08
8.44895e+07
2.90332e+07
3.04931e+07
3.23895e+07
3.53802e+07
3.80493e+07
3.96348e+07
4.09985e+07
4.20057e+07
4.23818e+07
4.22721e+07
4.15077e+07
1.26634e+08
1.29541e+08
1.26498e+08
1.08163e+08
2.04515e+07
2.34823e+07
2.56615e+07
2.90887e+07
3.34765e+07
3.86689e+07
4.09041e+07
4.22062e+07
4.29176e+07
4.27665e+07
4.21776e+07
4.09308e+07
1.2732e+08
1.33922e+08
1.37963e+08
1.40753e+08
2.97742e+07
3.23586e+07
3.2781e+07
3.42578e+07
3.68622e+07
4.05987e+07
4.40751e+07
4.52203e+07
4.59291e+07
4.5717e+07
4.47243e+07
4.25947e+07
1.25929e+08
1.31833e+08
1.3681e+08
1.51743e+08
3.77606e+07
4.1005e+07
4.09357e+07
4.11105e+07
4.2057e+07
4.40879e+07
4.71282e+07
4.91139e+07
4.94846e+07
4.91751e+07
4.78917e+07
4.47768e+07
1.16769e+08
1.1743e+08
1.19113e+08
1.38941e+08
4.57393e+07
4.45266e+07
4.52323e+07
4.60997e+07
4.70775e+07
4.87935e+07
5.15425e+07
5.43761e+07
5.47756e+07
5.45594e+07
5.34185e+07
4.91792e+07
1.03183e+08
9.22612e+07
8.1452e+07
8.17258e+07
1.99479e+07
2.89656e+07
3.77711e+07
4.67855e+07
1.36067e+07
1.97249e+07
2.81329e+07
3.44854e+07
3.90863e+07
4.35012e+07
4.77569e+07
5.20656e+07
5.57996e+07
5.66115e+07
5.62e+07
5.29206e+07
8.83719e+07
6.88895e+07
5.0567e+07
2.70315e+07
2.21913e+07
3.13816e+07
4.04187e+07
4.425e+07
2.03766e+07
1.08982e+07
1.34306e+07
1.9526e+07
2.66368e+07
3.33774e+07
3.97812e+07
4.56353e+07
5.10923e+07
5.5418e+07
5.62219e+07
5.48079e+07
7.55508e+07
5.60633e+07
4.16888e+07
2.87094e+07
2.43324e+07
3.17056e+07
4.03139e+07
4.51058e+07
2.92353e+07
1.38611e+07
1.11685e+07
1.25095e+07
1.7015e+07
2.33421e+07
3.01672e+07
3.69199e+07
4.34472e+07
4.99143e+07
5.38953e+07
5.45541e+07
6.5888e+07
4.97938e+07
4.03231e+07
3.08012e+07
2.76617e+07
3.30872e+07
4.04324e+07
4.59585e+07
3.5539e+07
2.07184e+07
1.29177e+07
1.14728e+07
1.24041e+07
1.55668e+07
2.10753e+07
2.78087e+07
3.49326e+07
4.24895e+07
4.9294e+07
5.23599e+07
5.93569e+07
4.64402e+07
4.08898e+07
3.38751e+07
3.20005e+07
3.55152e+07
4.12602e+07
4.69178e+07
4.01792e+07
2.80959e+07
1.81267e+07
1.27764e+07
1.22852e+07
1.32107e+07
1.59919e+07
2.11792e+07
2.79425e+07
3.56047e+07
4.35919e+07
4.842e+07
5.49712e+07
4.44672e+07
4.19352e+07
3.70509e+07
3.71989e+07
3.90166e+07
4.31088e+07
4.8534e+07
4.43932e+07
3.49355e+07
2.48921e+07
1.65923e+07
1.35058e+07
1.36637e+07
1.55667e+07
1.87458e+07
2.38422e+07
3.05844e+07
3.83598e+07
4.28836e+07
5.20665e+07
4.30646e+07
4.26409e+07
3.87555e+07
3.96896e+07
4.2535e+07
4.60797e+07
5.11866e+07
4.83927e+07
4.12056e+07
3.19229e+07
2.26017e+07
1.7007e+07
1.58717e+07
1.67524e+07
1.92231e+07
2.27513e+07
2.75305e+07
3.23015e+07
3.56353e+07
5.00051e+07
4.20612e+07
4.3064e+07
4.02847e+07
4.11139e+07
4.38466e+07
4.80249e+07
5.37448e+07
5.25378e+07
4.6907e+07
3.87078e+07
2.96454e+07
2.27936e+07
1.97532e+07
1.96268e+07
2.04765e+07
2.18894e+07
2.35551e+07
2.57396e+07
3.15483e+07
4.86036e+07
4.13238e+07
4.31875e+07
4.14637e+07
4.20148e+07
4.48119e+07
4.84697e+07
5.40182e+07
5.59409e+07
5.22432e+07
4.52241e+07
3.68992e+07
2.9881e+07
2.54625e+07
2.37903e+07
2.23641e+07
2.20385e+07
2.28577e+07
2.55744e+07
3.21156e+07
4.73159e+07
4.04732e+07
4.2925e+07
4.20122e+07
4.20558e+07
4.48514e+07
4.83234e+07
5.38174e+07
5.64053e+07
5.61303e+07
5.14828e+07
4.45114e+07
3.77722e+07
3.26752e+07
2.92664e+07
2.46003e+07
2.31235e+07
2.44411e+07
2.68396e+07
3.84545e+07
4.61136e+07
3.96193e+07
4.2391e+07
4.19942e+07
4.15972e+07
4.40304e+07
4.72495e+07
5.26809e+07
5.59147e+07
5.65552e+07
5.49074e+07
5.09814e+07
4.56658e+07
4.05508e+07
3.43508e+07
2.71083e+07
2.62491e+07
2.72326e+07
3.22518e+07
5.01091e+07
4.43109e+07
3.82164e+07
4.11089e+07
4.12772e+07
4.04631e+07
4.20249e+07
4.44075e+07
4.85343e+07
5.24477e+07
5.48219e+07
5.52082e+07
5.34298e+07
4.98992e+07
4.46104e+07
3.75082e+07
3.30852e+07
3.34416e+07
3.94375e+07
5.05922e+07
6.28596e+07
9.56525e+07
1.04704e+08
1.11534e+08
1.17204e+08
1.23047e+08
1.23609e+08
1.22278e+08
1.13055e+08
9.98398e+07
8.53927e+07
7.30362e+07
6.37449e+07
5.73971e+07
5.31412e+07
5.02579e+07
4.82579e+07
4.68542e+07
4.56034e+07
4.44469e+07
4.25333e+07
1.04608e+08
1.12785e+08
1.17792e+08
1.18742e+08
1.25816e+08
1.30364e+08
1.28363e+08
1.14151e+08
8.96589e+07
6.68789e+07
5.455e+07
4.86912e+07
4.55339e+07
4.36098e+07
4.21541e+07
4.1075e+07
4.02671e+07
3.94305e+07
3.86304e+07
3.71737e+07
1.11229e+08
1.17542e+08
1.22792e+08
1.18173e+08
1.23702e+08
1.34943e+08
1.33743e+08
1.1619e+08
7.91e+07
4.91894e+07
4.06056e+07
3.95865e+07
4.02941e+07
4.13381e+07
4.19605e+07
4.22794e+07
4.23275e+07
4.20365e+07
4.15605e+07
4.029e+07
1.1598e+08
1.17406e+08
1.16024e+08
1.02153e+08
1.07401e+08
1.37435e+08
1.47528e+08
1.3406e+08
7.77998e+07
2.64605e+07
2.82481e+07
3.02842e+07
3.36572e+07
3.64918e+07
3.80223e+07
3.92823e+07
4.01807e+07
4.05678e+07
4.05695e+07
3.99229e+07
1.21392e+08
1.23854e+08
1.20054e+08
1.04054e+08
1.93333e+07
2.22279e+07
2.43755e+07
2.74975e+07
3.1545e+07
3.66847e+07
3.98708e+07
4.11921e+07
4.20167e+07
4.20205e+07
4.14882e+07
4.01045e+07
1.21855e+08
1.28091e+08
1.32347e+08
1.34751e+08
2.8891e+07
3.20594e+07
3.23375e+07
3.35802e+07
3.59753e+07
3.9328e+07
4.32089e+07
4.44229e+07
4.51367e+07
4.5156e+07
4.43512e+07
4.21684e+07
1.20505e+08
1.26308e+08
1.31534e+08
1.45186e+08
3.79179e+07
4.05041e+07
4.03836e+07
4.04597e+07
4.11365e+07
4.28585e+07
4.55537e+07
4.7958e+07
4.82977e+07
4.81041e+07
4.70937e+07
4.41544e+07
1.11836e+08
1.12727e+08
1.14694e+08
1.32651e+08
4.62063e+07
4.25887e+07
4.37154e+07
4.47058e+07
4.55794e+07
4.69329e+07
4.92745e+07
5.23828e+07
5.31083e+07
5.28488e+07
5.18583e+07
4.80417e+07
9.88127e+07
8.85779e+07
7.84862e+07
7.85719e+07
1.89995e+07
2.7865e+07
3.59464e+07
4.42907e+07
1.21941e+07
1.74575e+07
2.54544e+07
3.19623e+07
3.66412e+07
4.07368e+07
4.46096e+07
4.86299e+07
5.25329e+07
5.41706e+07
5.39235e+07
5.10435e+07
8.45369e+07
6.60423e+07
4.85752e+07
2.6005e+07
2.1548e+07
3.0852e+07
3.92134e+07
4.21337e+07
1.92075e+07
9.59026e+06
1.17927e+07
1.7476e+07
2.42078e+07
3.04588e+07
3.63087e+07
4.17201e+07
4.69238e+07
5.15892e+07
5.32533e+07
5.22578e+07
7.22318e+07
5.36901e+07
3.98405e+07
2.74864e+07
2.34796e+07
3.11231e+07
3.92052e+07
4.30626e+07
2.77233e+07
1.23493e+07
9.8677e+06
1.10993e+07
1.50475e+07
2.064e+07
2.6768e+07
3.30343e+07
3.91931e+07
4.55394e+07
5.01315e+07
5.11069e+07
6.29434e+07
4.77363e+07
3.8577e+07
2.92109e+07
2.64102e+07
3.23424e+07
3.94196e+07
4.40129e+07
3.36933e+07
1.89835e+07
1.15316e+07
1.01475e+07
1.08006e+07
1.34581e+07
1.83073e+07
2.44484e+07
3.10575e+07
3.81533e+07
4.46916e+07
4.84224e+07
5.66069e+07
4.44948e+07
3.91019e+07
3.22224e+07
3.02672e+07
3.46462e+07
4.01716e+07
4.49484e+07
3.78971e+07
2.59559e+07
1.62798e+07
1.12057e+07
1.05004e+07
1.13786e+07
1.38527e+07
1.84229e+07
2.46308e+07
3.16596e+07
3.8812e+07
4.44431e+07
5.23691e+07
4.25553e+07
4.01079e+07
3.51632e+07
3.52138e+07
3.78301e+07
4.18543e+07
4.63708e+07
4.15911e+07
3.21738e+07
2.2377e+07
1.44167e+07
1.16264e+07
1.18125e+07
1.33523e+07
1.62002e+07
2.08358e+07
2.67789e+07
3.37891e+07
3.95677e+07
4.95413e+07
4.11539e+07
4.08094e+07
3.67908e+07
3.84012e+07
4.15187e+07
4.44811e+07
4.87684e+07
4.51735e+07
3.78168e+07
2.86087e+07
1.96531e+07
1.46147e+07
1.36157e+07
1.43326e+07
1.63496e+07
1.95476e+07
2.40358e+07
2.9342e+07
3.32554e+07
4.75785e+07
4.01739e+07
4.12482e+07
3.82183e+07
3.98242e+07
4.29053e+07
4.67891e+07
5.16769e+07
4.91199e+07
4.2968e+07
3.46816e+07
2.59648e+07
1.96676e+07
1.68818e+07
1.66017e+07
1.72469e+07
1.8891e+07
2.11664e+07
2.34477e+07
2.7551e+07
4.62256e+07
3.94675e+07
4.14094e+07
3.92988e+07
4.07654e+07
4.37582e+07
4.72022e+07
5.2188e+07
5.28266e+07
4.80008e+07
4.06662e+07
3.26448e+07
2.61475e+07
2.19379e+07
2.02194e+07
1.91956e+07
1.92351e+07
1.95561e+07
2.14055e+07
2.73367e+07
4.5023e+07
3.87096e+07
4.12144e+07
3.98494e+07
4.08998e+07
4.39519e+07
4.71669e+07
5.19738e+07
5.38588e+07
5.22899e+07
4.6772e+07
3.96741e+07
3.3313e+07
2.82715e+07
2.51983e+07
2.17925e+07
1.97668e+07
2.03844e+07
2.23274e+07
2.98186e+07
4.38971e+07
3.79558e+07
4.07883e+07
3.9936e+07
4.04872e+07
4.32889e+07
4.63436e+07
5.10379e+07
5.35033e+07
5.34088e+07
5.08747e+07
4.6091e+07
4.05742e+07
3.55669e+07
3.07501e+07
2.42491e+07
2.18804e+07
2.25761e+07
2.50999e+07
3.89258e+07
4.20043e+07
3.65383e+07
3.955e+07
3.93436e+07
3.92682e+07
4.12549e+07
4.36602e+07
4.73437e+07
5.04315e+07
5.20448e+07
5.15335e+07
4.93363e+07
4.57525e+07
4.09812e+07
3.44834e+07
2.85532e+07
2.81915e+07
3.05835e+07
3.94157e+07
5.67757e+07
9.38888e+07
1.02955e+08
1.098e+08
1.15226e+08
1.20787e+08
1.21201e+08
1.19895e+08
1.10803e+08
9.75277e+07
8.3054e+07
7.08642e+07
6.17936e+07
5.56164e+07
5.14551e+07
4.87116e+07
4.68459e+07
4.55455e+07
4.43973e+07
4.33122e+07
4.1338e+07
1.02551e+08
1.10694e+08
1.15706e+08
1.16474e+08
1.23475e+08
1.28049e+08
1.26058e+08
1.12004e+08
8.7526e+07
6.47234e+07
5.25835e+07
4.70336e+07
4.40413e+07
4.22192e+07
4.08805e+07
3.99137e+07
3.91998e+07
3.84749e+07
3.77729e+07
3.63107e+07
1.09104e+08
1.15286e+08
1.20118e+08
1.14296e+08
1.21105e+08
1.32826e+08
1.31622e+08
1.14152e+08
7.71199e+07
4.71424e+07
3.85794e+07
3.79197e+07
3.8799e+07
3.99982e+07
4.07921e+07
4.12133e+07
4.13329e+07
4.11286e+07
4.07457e+07
3.94852e+07
1.14119e+08
1.15334e+08
1.13226e+08
9.80427e+07
1.0435e+08
1.34596e+08
1.44451e+08
1.3131e+08
7.63812e+07
2.51058e+07
2.67694e+07
2.87596e+07
3.23403e+07
3.53983e+07
3.69619e+07
3.82465e+07
3.91569e+07
3.9639e+07
3.97862e+07
3.92264e+07
1.19209e+08
1.21355e+08
1.17222e+08
1.0155e+08
1.81913e+07
2.15512e+07
2.34783e+07
2.63446e+07
3.03303e+07
3.52708e+07
3.91622e+07
4.06012e+07
4.16302e+07
4.18086e+07
4.13389e+07
3.9823e+07
1.19623e+08
1.25536e+08
1.29638e+08
1.31412e+08
2.89835e+07
3.20023e+07
3.21597e+07
3.32088e+07
3.54611e+07
3.86685e+07
4.26779e+07
4.43039e+07
4.50103e+07
4.51371e+07
4.44551e+07
4.21435e+07
1.181e+08
1.2367e+08
1.28803e+08
1.41407e+08
3.708e+07
3.96511e+07
3.95529e+07
3.95872e+07
4.01719e+07
4.17884e+07
4.45656e+07
4.73266e+07
4.7746e+07
4.77212e+07
4.69031e+07
4.402e+07
1.09508e+08
1.1029e+08
1.12148e+08
1.28673e+08
4.38431e+07
4.06676e+07
4.19422e+07
4.30388e+07
4.39827e+07
4.53286e+07
4.76246e+07
5.08837e+07
5.21736e+07
5.2043e+07
5.12303e+07
4.76245e+07
9.66704e+07
8.66195e+07
7.65133e+07
7.58965e+07
1.77676e+07
2.81584e+07
3.63402e+07
4.3513e+07
1.14133e+07
1.62356e+07
2.39672e+07
3.03018e+07
3.50224e+07
3.90518e+07
4.27188e+07
4.68138e+07
5.10569e+07
5.31098e+07
5.29638e+07
5.02639e+07
8.25729e+07
6.44654e+07
4.73162e+07
2.53511e+07
2.13623e+07
3.14593e+07
3.93901e+07
4.12633e+07
1.85084e+07
8.94616e+06
1.10181e+07
1.64934e+07
2.30666e+07
2.90016e+07
3.45447e+07
4.00226e+07
4.54111e+07
5.01831e+07
5.211e+07
5.1218e+07
7.05676e+07
5.25262e+07
3.89196e+07
2.68674e+07
2.33063e+07
3.16371e+07
3.92799e+07
4.21436e+07
2.66591e+07
1.1597e+07
9.26649e+06
1.04896e+07
1.42093e+07
1.94804e+07
2.53299e+07
3.15734e+07
3.77279e+07
4.39777e+07
4.86954e+07
4.97408e+07
6.15423e+07
4.68529e+07
3.78788e+07
2.87385e+07
2.61649e+07
3.27067e+07
3.93207e+07
4.30264e+07
3.23407e+07
1.80158e+07
1.08756e+07
9.52399e+06
1.00556e+07
1.26338e+07
1.72552e+07
2.33087e+07
2.97535e+07
3.65724e+07
4.28716e+07
4.67602e+07
5.53484e+07
4.37163e+07
3.84858e+07
3.19598e+07
2.99299e+07
3.49136e+07
3.99081e+07
4.38909e+07
3.65578e+07
2.48464e+07
1.52592e+07
1.0386e+07
9.73041e+06
1.05423e+07
1.31384e+07
1.75435e+07
2.33072e+07
2.99306e+07
3.6675e+07
4.24946e+07
5.11616e+07
4.17704e+07
3.94451e+07
3.4631e+07
3.46428e+07
3.79276e+07
4.14565e+07
4.52318e+07
4.01066e+07
3.06194e+07
2.0876e+07
1.33117e+07
1.07271e+07
1.10305e+07
1.24226e+07
1.48701e+07
1.91925e+07
2.4815e+07
3.14085e+07
3.76502e+07
4.84058e+07
4.03587e+07
4.00877e+07
3.61422e+07
3.81379e+07
4.16374e+07
4.40369e+07
4.75482e+07
4.33967e+07
3.58265e+07
2.67387e+07
1.82136e+07
1.35659e+07
1.25968e+07
1.31052e+07
1.47111e+07
1.76822e+07
2.19051e+07
2.72632e+07
3.19097e+07
4.65005e+07
3.93812e+07
4.04782e+07
3.74113e+07
3.95437e+07
4.31173e+07
4.65274e+07
5.06168e+07
4.7338e+07
4.09368e+07
3.27382e+07
2.43375e+07
1.82299e+07
1.52786e+07
1.4887e+07
1.53233e+07
1.69507e+07
1.95473e+07
2.22424e+07
2.59744e+07
4.51717e+07
3.86755e+07
4.06116e+07
3.83723e+07
4.05193e+07
4.38639e+07
4.69195e+07
5.14621e+07
5.12541e+07
4.6025e+07
3.8618e+07
3.07021e+07
2.41115e+07
1.97944e+07
1.8041e+07
1.70871e+07
1.7547e+07
1.80282e+07
1.95359e+07
2.50204e+07
4.4008e+07
3.79637e+07
4.04405e+07
3.89216e+07
4.07036e+07
4.40368e+07
4.69178e+07
5.12993e+07
5.27086e+07
5.04573e+07
4.46013e+07
3.73593e+07
3.07748e+07
2.55972e+07
2.25008e+07
1.98668e+07
1.81467e+07
1.83584e+07
2.02604e+07
2.61686e+07
4.29116e+07
3.7268e+07
4.00809e+07
3.91151e+07
4.03059e+07
4.34127e+07
4.61864e+07
5.04388e+07
5.24422e+07
5.19267e+07
4.89022e+07
4.35592e+07
3.76529e+07
3.24547e+07
2.81221e+07
2.27122e+07
1.98114e+07
2.03908e+07
2.21125e+07
3.29803e+07
4.0918e+07
3.58062e+07
3.88362e+07
3.86063e+07
3.89353e+07
4.11983e+07
4.34559e+07
4.68361e+07
4.95414e+07
5.07459e+07
4.97008e+07
4.71283e+07
4.32341e+07
3.85322e+07
3.26747e+07
2.65842e+07
2.55286e+07
2.66313e+07
3.33585e+07
5.02155e+07
9.38991e+07
1.02998e+08
1.09864e+08
1.15174e+08
1.20505e+08
1.20751e+08
1.19538e+08
1.10728e+08
9.75355e+07
8.30691e+07
7.08299e+07
6.17088e+07
5.55093e+07
5.13521e+07
4.86237e+07
4.67654e+07
4.54746e+07
4.43355e+07
4.32589e+07
4.13019e+07
1.02592e+08
1.10795e+08
1.15843e+08
1.16376e+08
1.23172e+08
1.275e+08
1.25598e+08
1.11877e+08
8.75765e+07
6.48632e+07
5.2656e+07
4.6953e+07
4.38963e+07
4.20646e+07
4.07381e+07
3.97975e+07
3.91074e+07
3.83985e+07
3.77055e+07
3.62586e+07
1.09147e+08
1.15396e+08
1.20282e+08
1.13825e+08
1.20925e+08
1.32285e+08
1.31161e+08
1.13946e+08
7.72461e+07
4.74614e+07
3.88499e+07
3.78749e+07
3.86416e+07
3.97971e+07
4.05964e+07
4.10586e+07
4.12185e+07
4.1044e+07
4.06747e+07
3.94253e+07
1.14284e+08
1.1565e+08
1.1391e+08
9.64092e+07
1.04689e+08
1.33483e+08
1.43315e+08
1.301e+08
7.56226e+07
2.53996e+07
2.70342e+07
2.89251e+07
3.23437e+07
3.52273e+07
3.67637e+07
3.80401e+07
3.8977e+07
3.94916e+07
3.96568e+07
3.91192e+07
1.19413e+08
1.21583e+08
1.17236e+08
9.92736e+07
1.72943e+07
2.16506e+07
2.36085e+07
2.64377e+07
3.03134e+07
3.51508e+07
3.89968e+07
4.04415e+07
4.14683e+07
4.1648e+07
4.11868e+07
3.9691e+07
1.19976e+08
1.25906e+08
1.29914e+08
1.30789e+08
2.87492e+07
3.18853e+07
3.20588e+07
3.31369e+07
3.54061e+07
3.86425e+07
4.26611e+07
4.42976e+07
4.50134e+07
4.51299e+07
4.44266e+07
4.20803e+07
1.18316e+08
1.2389e+08
1.29024e+08
1.40633e+08
3.67233e+07
3.9512e+07
3.94307e+07
3.95105e+07
4.01521e+07
4.18348e+07
4.47535e+07
4.75426e+07
4.79592e+07
4.79103e+07
4.70665e+07
4.41122e+07
1.09425e+08
1.10214e+08
1.12115e+08
1.2795e+08
4.32746e+07
4.07846e+07
4.19079e+07
4.30108e+07
4.40281e+07
4.54578e+07
4.78535e+07
5.12135e+07
5.24528e+07
5.23061e+07
5.14616e+07
4.7772e+07
9.65702e+07
8.65597e+07
7.64891e+07
7.55863e+07
1.72006e+07
2.85441e+07
3.65541e+07
4.31089e+07
1.09325e+07
1.67304e+07
2.44827e+07
3.06703e+07
3.53199e+07
3.93346e+07
4.30023e+07
4.71595e+07
5.14368e+07
5.33685e+07
5.31884e+07
5.04141e+07
8.24891e+07
6.43591e+07
4.72371e+07
2.52517e+07
2.12896e+07
3.13105e+07
3.90109e+07
4.05817e+07
1.76681e+07
8.87403e+06
1.10538e+07
1.67002e+07
2.33518e+07
2.93104e+07
3.48509e+07
4.03126e+07
4.56995e+07
5.04413e+07
5.23026e+07
5.13622e+07
7.05506e+07
5.249e+07
3.89407e+07
2.69449e+07
2.32735e+07
3.15183e+07
3.89418e+07
4.15857e+07
2.5657e+07
1.13398e+07
9.22275e+06
1.04992e+07
1.43694e+07
1.97263e+07
2.5585e+07
3.17971e+07
3.79259e+07
4.41511e+07
4.88495e+07
4.98881e+07
6.16097e+07
4.69568e+07
3.80668e+07
2.90072e+07
2.62775e+07
3.26843e+07
3.9059e+07
4.25672e+07
3.15343e+07
1.75139e+07
1.0726e+07
9.4895e+06
1.01032e+07
1.27226e+07
1.73658e+07
2.34266e+07
2.98644e+07
3.66675e+07
4.29876e+07
4.69334e+07
5.54819e+07
4.39183e+07
3.87445e+07
3.23771e+07
3.02222e+07
3.50613e+07
3.97797e+07
4.35171e+07
3.59106e+07
2.43011e+07
1.49556e+07
1.0275e+07
9.68968e+06
1.05443e+07
1.31634e+07
1.76011e+07
2.33723e+07
3.00001e+07
3.67907e+07
4.26874e+07
5.1326e+07
4.20091e+07
3.97259e+07
3.50373e+07
3.50571e+07
3.83036e+07
4.15252e+07
4.49618e+07
3.9632e+07
3.01423e+07
2.05031e+07
1.31138e+07
1.06461e+07
1.09967e+07
1.24544e+07
1.49291e+07
1.92504e+07
2.48802e+07
3.15247e+07
3.78338e+07
4.85729e+07
4.06043e+07
4.03641e+07
3.65189e+07
3.85502e+07
4.21391e+07
4.43504e+07
4.74009e+07
4.30644e+07
3.54421e+07
2.63626e+07
1.79353e+07
1.34025e+07
1.25456e+07
1.31223e+07
1.47745e+07
1.77447e+07
2.19762e+07
2.73665e+07
3.20521e+07
4.66634e+07
3.96103e+07
4.07296e+07
3.77308e+07
3.99151e+07
4.35309e+07
4.68704e+07
5.06344e+07
4.71067e+07
4.06472e+07
3.24162e+07
2.40452e+07
1.80232e+07
1.52302e+07
1.49079e+07
1.53691e+07
1.69981e+07
1.95984e+07
2.23002e+07
2.60503e+07
4.53173e+07
3.88756e+07
4.08305e+07
3.8628e+07
4.08421e+07
4.42329e+07
4.72359e+07
5.15686e+07
5.11276e+07
4.58203e+07
3.83756e+07
3.0468e+07
2.39516e+07
1.97721e+07
1.80863e+07
1.71341e+07
1.75984e+07
1.80757e+07
1.9578e+07
2.50562e+07
4.41382e+07
3.81405e+07
4.06316e+07
3.91246e+07
4.09702e+07
4.4336e+07
4.7157e+07
5.1392e+07
5.26854e+07
5.03245e+07
4.44447e+07
3.72236e+07
3.06963e+07
2.56172e+07
2.25583e+07
1.99212e+07
1.81801e+07
1.83674e+07
2.02737e+07
2.61654e+07
4.30266e+07
3.74254e+07
4.02525e+07
3.92881e+07
4.05239e+07
4.3638e+07
4.6337e+07
5.0501e+07
5.24316e+07
5.1863e+07
4.88165e+07
4.34826e+07
3.7613e+07
3.24686e+07
2.81595e+07
2.27579e+07
1.98108e+07
2.03959e+07
2.21042e+07
3.29584e+07
4.10122e+07
3.5935e+07
3.89818e+07
3.87464e+07
3.90842e+07
4.13393e+07
4.34955e+07
4.68417e+07
4.95414e+07
5.07334e+07
4.96569e+07
4.70625e+07
4.31787e+07
3.85073e+07
3.26774e+07
2.65929e+07
2.55232e+07
2.66332e+07
3.33445e+07
5.02054e+07
9.56564e+07
1.04869e+08
1.11789e+08
1.17e+08
1.22412e+08
1.2268e+08
1.21527e+08
1.12761e+08
9.96502e+07
8.52365e+07
7.28412e+07
6.35295e+07
5.71955e+07
5.29626e+07
5.01138e+07
4.81347e+07
4.67472e+07
4.54997e+07
4.43461e+07
4.24465e+07
1.04499e+08
1.1283e+08
1.17947e+08
1.18422e+08
1.2517e+08
1.29359e+08
1.27404e+08
1.13697e+08
8.93159e+07
6.66751e+07
5.43378e+07
4.83603e+07
4.51799e+07
4.32924e+07
4.18927e+07
4.08697e+07
4.01016e+07
3.92809e+07
3.84827e+07
3.70354e+07
1.11072e+08
1.17463e+08
1.22757e+08
1.17032e+08
1.23256e+08
1.3399e+08
1.32723e+08
1.15624e+08
7.86767e+07
4.89777e+07
4.04201e+07
3.91307e+07
3.9825e+07
4.09424e+07
4.16751e+07
4.20892e+07
4.21975e+07
4.1933e+07
4.14513e+07
4.01581e+07
1.16347e+08
1.1795e+08
1.17035e+08
9.86365e+07
1.06811e+08
1.34728e+08
1.44372e+08
1.31759e+08
7.62042e+07
2.6511e+07
2.81087e+07
3.00494e+07
3.32939e+07
3.61172e+07
3.77034e+07
3.90471e+07
4.00323e+07
4.0481e+07
4.0493e+07
3.98271e+07
1.21912e+08
1.24433e+08
1.2029e+08
1.00755e+08
1.78709e+07
2.26073e+07
2.46267e+07
2.75659e+07
3.1441e+07
3.64366e+07
3.96659e+07
4.10088e+07
4.18591e+07
4.18769e+07
4.13428e+07
3.99549e+07
1.2249e+08
1.2865e+08
1.32707e+08
1.33116e+08
2.93897e+07
3.25323e+07
3.27401e+07
3.38779e+07
3.61705e+07
3.94363e+07
4.32305e+07
4.44463e+07
4.51514e+07
4.51486e+07
4.43055e+07
4.20573e+07
1.20736e+08
1.26421e+08
1.31514e+08
1.43317e+08
3.72082e+07
4.07882e+07
4.07029e+07
4.08224e+07
4.14956e+07
4.31849e+07
4.59238e+07
4.82789e+07
4.8581e+07
4.8358e+07
4.73265e+07
4.43348e+07
1.11725e+08
1.12338e+08
1.1412e+08
1.30082e+08
4.42992e+07
4.31045e+07
4.41737e+07
4.51921e+07
4.61048e+07
4.74931e+07
4.98797e+07
5.29548e+07
5.34779e+07
5.31891e+07
5.21468e+07
4.82399e+07
9.85562e+07
8.79504e+07
7.75641e+07
7.62156e+07
1.74269e+07
2.84062e+07
3.6126e+07
4.308e+07
1.15686e+07
1.84172e+07
2.67756e+07
3.31423e+07
3.76608e+07
4.15984e+07
4.53442e+07
4.93504e+07
5.32419e+07
5.46267e+07