/*--------------------------------*- C++ -*----------------------------------*\
  =========                 |
  \\      /  F ield         | OpenFOAM: The Open Source CFD Toolbox
   \\    /   O peration     | Website:  https://openfoam.org
    \\  /    A nd           | Version:  9
     \\/     M anipulation  |
\*---------------------------------------------------------------------------*/
FoamFile
{
    format      ascii;
    class       volVectorField;
    location    "0.003";
    object      rhoU;
}
// * * * * * * * * * * * * * * * * * * * * * * * * * * * * * * * * * * * * * //

dimensions      [1 -2 -1 0 0 0 0];

internalField   nonuniform List<vector> 
9720
(
(-32768.9 -32823.7 -7911.56)
(-28014.9 -38730.1 -8755.52)
(-24481.9 -42973.7 -8571.97)
(-19747.3 -46911.1 -9720.89)
(-13755.9 -52481.9 -10530)
(-4443.11 -54776.1 -10695.4)
(5836.02 -55437 -11026.2)
(17265.4 -51429 -10246.4)
(26681.4 -43804.9 -8843.44)
(30915.5 -34151.6 -7549.56)
(31628.8 -25735.3 -6382.23)
(30898 -19560.4 -5461.94)
(29924.3 -15399.3 -4959.44)
(29085.8 -12418.5 -4352.76)
(28358.3 -10525 -4232.58)
(27721.5 -9002 -3831.93)
(27219 -7794.42 -3468.27)
(26505.8 -7037.81 -3309.02)
(25817.1 -6339.9 -3120.27)
(24538.5 -5422.8 -2726.94)
(-38512.2 -28110.5 -8717.18)
(-33317.4 -33631.2 -8942.96)
(-29391.1 -37483.1 -8244.37)
(-24458.4 -41108.9 -9645.62)
(-18784.9 -48815.4 -11074.1)
(-7380.09 -53618.8 -11213.3)
(5363.43 -54400.3 -11593)
(19633.2 -48504.2 -10225)
(29951.2 -35037 -7780.32)
(30828.3 -21012.5 -5905.02)
(29131 -12724.2 -4786.44)
(27524.9 -8267.95 -4114.63)
(26368 -5917.05 -3938.95)
(25631.8 -4638.45 -3582.26)
(24999.9 -3990.83 -3627.94)
(24514.6 -3557.97 -3445.44)
(24071 -3168.25 -3155.64)
(23448.9 -2904.72 -3034.55)
(22839.2 -2660.4 -2924.11)
(21676.3 -2314.38 -2577.58)
(-42618.7 -24615.1 -8397.99)
(-37040.3 -29771.7 -8027.55)
(-32932.8 -33370.6 -7489.61)
(-29312.5 -37543.8 -8577.34)
(-22868.6 -46665.9 -10667.2)
(-9972.15 -53245.1 -11029.8)
(5008.35 -53879.9 -11097.7)
(21819.8 -47093.3 -9410.89)
(30935.6 -27461 -6241.13)
(26106.7 -11683.2 -3864.18)
(23889.7 -6077.54 -3235.63)
(23622.2 -3433.71 -2828.43)
(24023.1 -2031.31 -2728.83)
(24482.2 -1292.21 -2562.43)
(24718.1 -995.758 -2753.41)
(24837.6 -864.171 -2748.85)
(24748.7 -709.064 -2722.16)
(24384.9 -658.845 -2726.39)
(23906.1 -601.432 -2693.2)
(22800.8 -522.641 -2440.21)
(-46685.2 -19813.4 -9347.01)
(-40900.3 -24707 -9073.33)
(-37430.8 -29662.5 -7872.7)
(-31599.2 -31852 -8213.4)
(-26788.6 -38945.2 -9508.86)
(-16293 -50036.1 -11289.6)
(680.653 -55035.1 -12576.3)
(18969.1 -50923.1 -11455.7)
(30919.2 -27110.8 -7140.11)
(16586.1 -3006.97 -2193.62)
(17507.1 -1321.29 -2544.09)
(18866.3 11.6755 -2678.29)
(20535.6 847.205 -2708.93)
(21717 1261.83 -2468.81)
(22577.8 1505.5 -2573.88)
(23325 1546.74 -2538.41)
(23830 1587.56 -2466)
(23931.5 1543.66 -2551.64)
(23751.6 1475.95 -2658.24)
(22937.5 1322.13 -2528.41)
(-52358.9 -13641.6 -10156.1)
(-48733.9 -18696 -10507.8)
(-46661.4 -23089.9 -9922.05)
(-39594.2 -26911.8 -8455.82)
(13450.9 -1600.64 -2373.69)
(13520.8 47.5489 -1748.91)
(14822.7 530.042 -2020.23)
(16760.6 1436.94 -2327.7)
(19159.6 2641.38 -2568.26)
(21322.6 3343.28 -2622.44)
(22161.1 3651.42 -2787.1)
(22823.4 3596.71 -2703.6)
(23199.1 3459.72 -2689.19)
(23143.5 3238.7 -2873.72)
(22923.5 2957.79 -2956.44)
(22141.4 2648.23 -2749.62)
(-54654.2 -4318.09 -10643.7)
(-53427.9 -7194.41 -11105.5)
(-52976.2 -9811.72 -10824.4)
(-49840.2 -16292 -11035.8)
(15860 1119.03 -1962.99)
(17050.8 1828.7 -1924.99)
(17564.8 1997.4 -2051.62)
(18584.6 2387.96 -2269.34)
(19874.2 3287.41 -2485.59)
(21785.2 4314.09 -2629.12)
(22865.7 4929.45 -2844.81)
(23422.5 5068.09 -2794.63)
(23725.8 4990.43 -2835.45)
(23557.7 4757.77 -3001)
(23164.5 4376.77 -3024.45)
(22105.3 3894.92 -2795.88)
(-55075.2 5880.16 -11021.1)
(-53946.8 5476.87 -11567.4)
(-53321 5110.55 -11094.6)
(-54779.9 858.162 -12619.3)
(19212.2 3487.62 -2169.65)
(20469 4327.52 -2193.49)
(20686.3 4483.07 -2295.27)
(21060.1 4677.38 -2402.44)
(21797.9 5080.33 -2516.2)
(22866.7 5897.49 -2625.5)
(24052.9 6624.01 -2836.06)
(24369.1 6769.92 -2793.52)
(24523.8 6724.24 -2817.19)
(24205.6 6455.7 -2932.4)
(23606 5943.45 -2934.15)
(22157.2 5196.61 -2714.04)
(-50740.3 17226.9 -10320.3)
(-47487.5 19629 -10330.7)
(-45877 21899.4 -9601.98)
(-49539.8 19294.5 -11519.2)
(22643.8 6173.88 -2538.25)
(21663 6594.39 -2152.6)
(22369.5 6541.31 -2237.02)
(22932.7 6531.91 -2292.7)
(23639.6 6747.99 -2381.07)
(24658.9 7174.85 -2486.1)
(25807.7 7765.46 -2689.93)
(26338.4 8141.43 -2788.9)
(26327.1 8177.03 -2800.58)
(26009.4 8070.37 -2848.31)
(25243.5 7613.3 -2830.57)
(23076.9 6602.45 -2621.35)
(-42968.4 26411.3 -9005.94)
(-33865.7 29477.9 -8084.44)
(-26257.9 30277 -6738.86)
(-24521.4 29497.9 -7590.63)
(-1469.18 12559.4 -2187.97)
(1098.88 16002.7 -2035.23)
(3553.53 19456.6 -2249.86)
(6239.4 22824.5 -2408.16)
(5365.38 6090.64 -768.356)
(9546.67 5746.05 -912.711)
(13818.4 7016.87 -1338.61)
(17036.1 7784.94 -1771.48)
(19563.1 8263.19 -2059.51)
(21746 8697.68 -2120.44)
(23696.1 9283.82 -2189.82)
(25582.5 9761.97 -2370.43)
(26435.9 9877.42 -2602.41)
(26416 9727.8 -2703.95)
(25981.7 9294.36 -2711.37)
(24057.7 8231.3 -2575.66)
(-33399.6 30458.6 -7746.55)
(-20230.9 30166.4 -6228.56)
(-11183.3 25534.2 -4337.65)
(-2877.03 16412.4 -2558.08)
(19.1345 13558.6 -1889.02)
(1823.93 17059.4 -1980.47)
(4364.65 20522.9 -2146.31)
(6679.59 21819.6 -2059.56)
(6002.82 10595.7 -979.184)
(5018.51 5208.42 -583.193)
(6848.3 5188.84 -772.851)
(9874.48 6456.07 -1080.14)
(13288.2 7806.69 -1357.08)
(16551.7 8898.05 -1476.3)
(19500.5 9847.85 -1661.81)
(22143.7 10639.2 -1880.68)
(24328.3 11137.4 -2199.05)
(25388.4 11169.1 -2487.22)
(25494.8 10782.7 -2578.17)
(24383.1 9779.33 -2539.57)
(-25164.4 31110.3 -6582.45)
(-12258 28505.7 -5067.86)
(-5815.88 23400.6 -3603.23)
(-1245.43 17305.8 -2872.87)
(538.644 14885 -2188.79)
(2008.36 17627.8 -2121.78)
(4516.51 20790.4 -2268.74)
(6590.99 22498.6 -2132.94)
(7366.85 14895.5 -1283.79)
(5323.75 7322.48 -837.545)
(5074.72 5197.85 -631.283)
(6179.65 5129.77 -516.003)
(8321.11 6204.37 -663.703)
(11226.5 7662.2 -908.628)
(14383.9 9083.22 -1325.64)
(17469.3 10344.8 -1561.06)
(20353.6 11348.6 -1836.2)
(22750.6 11953.9 -2204.49)
(23833.8 11813.9 -2326.26)
(23748.5 11065.7 -2366.03)
(-19153.2 30412.8 -5655.68)
(-7996.27 26988.1 -4357.07)
(-3289.92 23185.3 -3107.59)
(26.7207 18642.7 -2916.78)
(1442.82 16752.5 -2486.7)
(2411.76 18670.6 -2345.74)
(4719.13 21216.6 -2375.45)
(6584.98 23100.5 -2178.62)
(8047.94 17904.4 -1683.21)
(6853.55 10694.4 -1090.86)
(5258.27 6509.02 -545.834)
(5295.43 5367.87 -371.487)
(6014.2 5282.75 -518.841)
(7530.4 6028.7 -795.016)
(10049.1 7508.13 -1148.88)
(12973.2 9168.94 -1266.87)
(15994 10582.1 -1453.9)
(19071 11746.6 -1692.91)
(21390.5 12273 -1801.73)
(22012.4 11855.1 -1971.1)
(-15115 29502.9 -5132.13)
(-5754.92 25917.9 -4136.6)
(-1954.41 23622.6 -2947.52)
(819.022 20246.7 -2885.07)
(2584.24 19055.7 -2709.58)
(3272.9 19937.5 -2551.79)
(5124.16 21970.4 -2488.59)
(6821.95 23886 -2264.42)
(8474.32 20304.5 -1950.77)
(8203.57 14183.4 -1294.89)
(6628.42 8988.35 -623.919)
(5396.17 6244.76 -503.375)
(5716.93 5780.61 -711.285)
(6419.05 5801.97 -888.074)
(7748.06 6560.09 -961.999)
(9796.75 7828.88 -836.998)
(12429.8 9326.53 -942.712)
(15547.4 10940.3 -1044.02)
(18436.7 12250.6 -1253.15)
(19460.4 12108.9 -1631.91)
(-12217.5 28722.7 -4497.1)
(-4533.55 25244 -3736.52)
(-1249.21 24118.4 -2733.14)
(1234.03 21429.9 -2608.23)
(3256.63 21125.4 -2746.42)
(4230.5 21757.3 -2674.47)
(5884.38 23033.8 -2600.58)
(7241.05 24948.8 -2374.26)
(8901.64 22417.6 -1992.77)
(9258.27 17434.2 -1342.12)
(8179.69 12102.7 -789.326)
(6424.5 8073.32 -719.31)
(5897.1 6623.34 -844.523)
(6320.38 6362.83 -870.842)
(7029.76 6541.96 -714.26)
(8278.06 7137.22 -461.302)
(10191.3 8495.09 -570.18)
(12891.4 10294.6 -694.765)
(15350.9 11730.2 -1114.85)
(16338.9 11381.7 -1594.43)
(-10372.3 28043.8 -4349.64)
(-3913.27 24666 -3745.76)
(-964.51 24397 -2890.26)
(1479.66 22312.4 -2685.94)
(3564.62 21958.1 -2890.53)
(4842.95 22792.3 -2876.66)
(6516.39 24126.5 -2796.78)
(7805.43 26038.8 -2604.11)
(9444.98 24388.7 -2065.42)
(10166.2 20373.8 -1493.43)
(9597.17 15335.7 -1161.27)
(8046.46 10835.9 -1038.15)
(6910.77 8207.05 -888.408)
(6653.68 7176.91 -668.767)
(7068.7 7042.03 -380.803)
(8003.51 7402.19 -252.804)
(9073.27 8285.15 -470.202)
(10644.7 9300.55 -749.705)
(11804.5 9842.95 -1237.6)
(13374.1 10116.8 -1551.14)
(-8883.4 27445 -3924.65)
(-3496.58 24222.9 -3533.78)
(-839.075 24553.7 -2853.99)
(1524.55 23089.8 -2633.85)
(3506.72 22618 -2784.52)
(4976.22 23344.4 -2809.97)
(6654.44 24441.4 -2746.66)
(8129.23 26487.4 -2677.68)
(9870.84 26187.8 -2271.21)
(10910.2 23030.9 -1720.9)
(10798.5 18470.8 -1384.04)
(9727.16 13922.6 -1123.82)
(8331.59 10497.3 -726.726)
(7472.18 8628.44 -358.388)
(7576.9 8100.92 -185.83)
(7942.97 7923.53 -334.242)
(8264.64 8020.68 -695.882)
(8907.12 8134.59 -1014.8)
(9947 8802.74 -1229.02)
(12505.2 10364.5 -1297.46)
(-7697.52 26972.8 -3541.17)
(-3115.97 23813.1 -3219.31)
(-687.043 24498.5 -2793.84)
(1572.37 23629.7 -2546.85)
(3363.43 23009.7 -2753.15)
(4912.7 23655.1 -2844.49)
(6609.8 24593.1 -2760.79)
(8175.05 26480 -2685.75)
(9931.52 26797.3 -2487.14)
(11342.1 25129 -2067.17)
(11735.7 21386.9 -1677.94)
(11124.1 17067.2 -1311.58)
(9894.03 13320.5 -803.267)
(8993.83 10799.5 -423.739)
(8702.11 9482.04 -377.127)
(8182.85 8416.65 -658.305)
(8226.03 8220.31 -946.748)
(8785.14 8411.82 -1047.6)
(9721.56 9210.66 -940.547)
(12845.9 11152.1 -961.326)
(-6955.14 26284.9 -3369.34)
(-2858.68 23218.8 -3084.91)
(-639.337 24163.1 -2784.21)
(1528.48 23762.2 -2624.35)
(3157.82 22985.1 -2930.33)
(4683.97 23487.5 -3012.73)
(6350.54 24284.3 -2872.8)
(8060.11 26127.8 -2738.25)
(9775.31 26718.4 -2579.99)
(11292.9 25941.7 -2360.48)
(12267.2 23707.4 -2080.03)
(12252.4 20215.7 -1573.68)
(11525.1 16598.7 -903.462)
(10916.9 13767.8 -534.679)
(9942.23 11397.9 -638.123)
(8443.58 9236.67 -948.073)
(8590.91 8900.69 -1023.13)
(9181.91 9109.54 -899.882)
(10581.4 10413.6 -803.416)
(16905.6 14150.8 -744.806)
(-6268.45 25613.5 -3168.54)
(-2618.27 22626.5 -2960.64)
(-582.166 23701.6 -2735.41)
(1461.57 23594.4 -2726.7)
(2891.1 22786.5 -2998.11)
(4316.35 23090.6 -3034.3)
(5858.02 23709.4 -2869.96)
(7570.61 25304.6 -2723.29)
(9343.39 26232.9 -2595.36)
(10899.7 25984.5 -2463.23)
(12024.5 24555.7 -2225.99)
(12627.9 22309.1 -1714.06)
(12723.5 19399.1 -1130.38)
(12308.9 16279.6 -958.453)
(10518 12693 -1130.27)
(9209.87 10405.3 -1147.94)
(9552.42 10003.4 -887.535)
(10594.2 10656.2 -758.646)
(13782.9 13766.2 -648.737)
(20391.1 16985 -505.994)
(-5366.57 24359.7 -2764.49)
(-2279.84 21486.9 -2603.8)
(-505.871 22613.9 -2467.39)
(1311.97 22777.9 -2580.15)
(2599.73 22010.3 -2776.75)
(3850.34 22013.4 -2799.1)
(5142.25 22272 -2661.17)
(6565.2 23124.9 -2533.07)
(8222.54 24168 -2471.85)
(9845.7 24713 -2438.66)
(11216.1 24266.9 -2278.01)
(12129.5 22727.8 -1887.36)
(12488.9 20270 -1514.67)
(11898 17255.5 -1467.2)
(10690 14244.3 -1457.84)
(10884.8 13172.9 -1221.07)
(11593 13329.7 -894.528)
(14427.2 17178.8 -703.144)
(17220.2 20611.1 -487.415)
(16502.8 16435.1 -802.797)
(-30697.5 -30764.3 -5329.84)
(-26388.4 -36437.5 -5841.32)
(-23167.2 -40533.2 -5571.96)
(-18837.7 -44396.6 -6350.25)
(-13182.5 -49699.3 -6937.49)
(-4299.62 -51709.7 -7083.71)
(5346.86 -52152.3 -7287.29)
(15970.5 -48080.2 -6639.83)
(24593.6 -40770.8 -5631.03)
(28371.7 -31634.1 -4704.26)
(28901.4 -23723.9 -3911.54)
(28106.6 -17971.8 -3319.58)
(27124.3 -14124.5 -3054.11)
(26313.7 -11378.2 -2675.74)
(25596.5 -9621.45 -2665.6)
(25012.3 -8247.23 -2421.33)
(24583.8 -7140.77 -2219.62)
(23950.8 -6447.87 -2150.88)
(23325.7 -5811.61 -2048.87)
(22203.3 -4985.92 -1833.18)
(-36210.7 -26514.7 -5839.96)
(-31520.7 -31885 -5805.55)
(-27868.8 -35688.3 -5031.78)
(-23393.2 -39296 -5833.64)
(-18026 -46866.5 -7073.22)
(-7019.78 -51448.4 -7377.45)
(4983.58 -51896.1 -7669.55)
(18274.7 -46062.8 -6611.62)
(27723.9 -33079 -4869.68)
(28326.7 -19745.6 -3593.61)
(26577.3 -11917 -2819.97)
(25064.1 -7727.74 -2413.5)
(24013.4 -5534.43 -2416.41)
(23351.6 -4336.35 -2232.41)
(22755 -3747.54 -2334.06)
(22298.9 -3343.39 -2248.45)
(21914.5 -2968.43 -2093.97)
(21356.6 -2718.8 -2038.66)
(20788.4 -2483.68 -1990.95)
(19750 -2160.78 -1798.48)
(-40186.1 -23322.3 -5524.17)
(-35170.5 -28305.1 -4949.49)
(-31608.8 -32164.5 -4359.23)
(-28856.6 -36600.5 -4931.78)
(-21984.3 -45465.7 -6942.05)
(-9477.1 -51911.3 -7627.87)
(4827.72 -52044.8 -7736.53)
(20689.7 -45341.6 -6383.03)
(29006.9 -26409.1 -3899.15)
(24098.7 -11195 -2293.86)
(21792.7 -5848.07 -1825.45)
(21469.9 -3359.62 -1512.49)
(21862.7 -2023.11 -1527.03)
(22376.7 -1314.18 -1483.97)
(22647.8 -1044.41 -1723.61)
(22803.7 -919.123 -1788.53)
(22776.5 -765.279 -1830.03)
(22478.8 -710.994 -1895.34)
(22046.9 -645.037 -1906.85)
(21055.2 -557.919 -1762.02)
(-44180.1 -18882.8 -6126.02)
(-39045.7 -23619.6 -5515.12)
(-36392.9 -29361.7 -4675.42)
(-30772 -31332.6 -5582.26)
(-25892.5 -39628.1 -7026.78)
(-15612.1 -50016.2 -8678.54)
(906.083 -54536.4 -9666.14)
(18438 -50208.9 -8461.96)
(29848 -26900.3 -4195.7)
(15424.6 -2938.55 -1212.28)
(16302.2 -1435.4 -1429.48)
(17244.4 -261.932 -1497.68)
(18641.8 547.258 -1584.01)
(19902.8 961.988 -1487.17)
(20694.6 1213.41 -1645.15)
(21419 1266.16 -1698.4)
(21948.6 1311.38 -1707.27)
(22076.4 1264.29 -1808.9)
(21919.3 1197.01 -1901.12)
(21195.3 1086.89 -1832.09)
(-49467.9 -13026.8 -6580.38)
(-46375.4 -17841 -6564.18)
(-44859 -22155.7 -6410.9)
(-38347.9 -25794.9 -6147.79)
(12317.9 -1649.8 -1013.26)
(13075.3 -12.1494 -1207.65)
(14091.1 428.722 -1343.3)
(15705.7 1102.84 -1432.78)
(17715.6 2166.18 -1502.41)
(19873.1 2876.54 -1616.51)
(20664.3 3203.68 -1860.74)
(21325.9 3213.85 -1914.22)
(21698 3088.59 -1994.82)
(21626.7 2894.81 -2163.27)
(21383.4 2600.09 -2257.89)
(20631.6 2296.31 -2120.84)
(-51496 -4293.3 -6881.61)
(-51134 -7055.27 -7091.27)
(-51500.8 -9583.4 -7308.75)
(-49535.1 -15842.9 -8316.78)
(15517.9 1019.18 -1522.9)
(16857 1643.98 -1470.61)
(17099.9 1758.77 -1483.98)
(17814.6 2048.66 -1502.06)
(18876.2 2720.75 -1517.05)
(20458.7 3735.79 -1608.52)
(21644.1 4351.51 -1897.63)
(22153.4 4549.72 -1976.15)
(22446.2 4515.18 -2104.7)
(22277.7 4322.79 -2288.98)
(21856.1 3926.28 -2371.63)
(20803.8 3452.4 -2211.58)
(-51725.7 5267.92 -7190.12)
(-51416.6 4871.66 -7572.02)
(-51544 4591.6 -7673.45)
(-54168.4 759.073 -9484.59)
(18819.8 3176.32 -1679.15)
(20026.4 3927.77 -1611.4)
(20020 4015.7 -1589.54)
(20168.9 4158.06 -1587.46)
(20687.6 4451.11 -1542.68)
(21556.9 5128.78 -1509.51)
(22784.4 5889.31 -1775.26)
(23256.2 6126.46 -1873.14)
(23417.5 6112.41 -1982.88)
(23166.1 5911.96 -2155.05)
(22573.6 5420.84 -2282.55)
(21158.9 4709.61 -2172.16)
(-47493 15747.8 -6744.42)
(-45299.7 18016.5 -6853.91)
(-44472.2 20374.6 -6814.17)
(-49175.6 18205.9 -8712)
(21920.2 5491.87 -1809.07)
(20798.5 5993.47 -1520.97)
(21279 5905.06 -1549.23)
(21744.9 5861.31 -1517.75)
(22314.6 5989.89 -1521.76)
(23194.2 6327.22 -1500.54)
(24349.2 6852.78 -1562.26)
(25152.7 7278.8 -1803.32)
(25205.9 7369.41 -1938.3)
(25028.8 7339.3 -2051.47)
(24409.9 7001.87 -2180.71)
(22433.7 6107.65 -2133.75)
(-40043.9 24201 -5849.34)
(-32111.4 27107.8 -5308.67)
(-25406.7 28178.1 -4593.41)
(-24888.4 28685.4 -5024.41)
(-1357.75 12037.7 -1156.77)
(945.99 15152.5 -1570.3)
(3145.1 18628.9 -1715.88)
(5540.2 21885.6 -1747.25)
(4689 5450.85 -382.299)
(8603.3 4994.57 -550.11)
(12609.1 6164.05 -879.079)
(15678.7 6892.65 -1154.24)
(18023.1 7319.25 -1319)
(20149.2 7713.07 -1302)
(22085.5 8228.93 -1274.45)
(23964.4 8715.77 -1414.49)
(25159.3 8968.33 -1711.72)
(25251.2 8877.46 -1924.65)
(25012.7 8562.17 -2063.82)
(23448.2 7698.67 -2090.31)
(-30958.2 27842.4 -4953.95)
(-19041.2 27529.3 -3976.38)
(-10707.9 23257.7 -2766.12)
(-2758.97 14935.2 -1532.45)
(-16.4975 12763.9 -1354.01)
(1554.98 16532 -1478.51)
(3847.33 20093.3 -1539.49)
(6016.38 21170 -1424.12)
(5228.06 9598.58 -550.31)
(4247.43 4414.17 -348.318)
(5864.65 4344.65 -402.598)
(8630.26 5468.7 -598.357)
(11883.9 6770.07 -827.249)
(15046.2 7839.33 -933.115)
(17921.6 8722.91 -977.999)
(20471.5 9465.33 -1068.84)
(22645.3 10011.7 -1342.62)
(24104.6 10224.2 -1684.84)
(24324.2 9922.55 -1923.87)
(23611.7 9163.41 -2046.77)
(-23190.7 28335.9 -4151.94)
(-11471.3 25825.7 -3121.68)
(-5594.32 21062.1 -2132.96)
(-1341.67 15810.3 -1607.62)
(447.482 13736.5 -1409.27)
(1671.85 16751.7 -1462.6)
(3941.48 20040.6 -1504.47)
(5887.19 21555.9 -1415.25)
(6468.69 13637.7 -743.856)
(4442.97 6251.6 -416.137)
(4345.19 4440.01 -310.432)
(5353.38 4358.37 -225.325)
(7351.02 5354.09 -373.049)
(10084.8 6723.09 -524.59)
(13025.2 8005.66 -749.766)
(15927.7 9151.79 -868.04)
(18684.1 10104.4 -1079.06)
(21172.4 10815.7 -1425.93)
(22665.5 10923.6 -1724.02)
(22860 10352.5 -1919.19)
(-17581.3 27574 -3527.38)
(-7446.3 24408.6 -2653.75)
(-3207.69 20817.1 -1740.19)
(-213.501 16789 -1577.47)
(1123.74 15325.4 -1466.21)
(1990.18 17482.4 -1476.91)
(4087.4 20143.3 -1491.9)
(5824.6 21952.8 -1376.51)
(7117.69 16503.8 -980.775)
(5821.79 9351.86 -539.529)
(4465.81 5614.44 -236.116)
(4568 4623.75 -153.761)
(5211.21 4524.27 -251.304)
(6539.32 5150.64 -396.322)
(8805.1 6430.97 -637.081)
(11604.7 7969.02 -714.517)
(14548.1 9363.84 -860.033)
(17569.2 10585.7 -1083.65)
(20234.7 11360.1 -1314.25)
(21164.3 11099.3 -1594.87)
(-13843.5 26648.9 -3221.52)
(-5345.71 23450.8 -2596.99)
(-1919.13 21272 -1704.41)
(559.648 18149.5 -1632.92)
(2134.72 17365.8 -1544.77)
(2679.29 18549.4 -1512.07)
(4383.45 20637.2 -1462.46)
(5958.48 22505.7 -1380.6)
(7491.34 18722.1 -1144.69)
(7139.13 12707.2 -699.904)
(5737.24 7930.78 -314.892)
(4650.71 5420.07 -247.319)
(4869.94 4910.04 -360.749)
(5452.37 4874.88 -470.844)
(6639.83 5490.06 -568.983)
(8688.47 6793.23 -488.258)
(11320.5 8327.19 -553.499)
(14337.8 9897.62 -631.012)
(17349 11279.1 -859.381)
(18723.8 11371.4 -1292.86)
(-11170.9 25892.7 -2808.07)
(-4201.41 22867.2 -2366.27)
(-1246.82 21877.5 -1625.52)
(957.173 19535.3 -1551.87)
(2792.94 19512.1 -1667.43)
(3661.57 20156.2 -1610.6)
(5053.8 21503.5 -1458.93)
(6298.34 23377.3 -1360.48)
(7849.88 20764 -1132.13)
(8176.13 15891 -762.144)
(7216.19 10902.2 -403.552)
(5560.66 7062.84 -339.099)
(4977.6 5622.02 -443.387)
(5360.92 5388.93 -516.376)
(6210.43 5741.5 -477.407)
(7508.64 6424.16 -269.093)
(9384.74 7694.29 -307.01)
(11868.4 9294.11 -380.667)
(14452.4 10835.2 -762.149)
(15692 10770.3 -1270.23)
(-9459 25227.2 -2768.06)
(-3641.65 22339.6 -2431.29)
(-989.972 22231.4 -1832.81)
(1201.97 20364.7 -1704.23)
(3113.18 20316.6 -1902.43)
(4278.91 21369.4 -1889.59)
(5794.52 22743.9 -1713.56)
(6813.18 24522.1 -1465.61)
(8328.93 22665.1 -1123.33)
(9023.27 18763.3 -794.82)
(8526.91 13971.7 -591.66)
(7006.61 9595.33 -536.248)
(5903.2 7121.55 -509.77)
(5858.94 6342.11 -438.255)
(6324.03 6302.97 -252.086)
(7340.88 6745.65 -92.6157)
(8423.31 7573.2 -235.826)
(9914.22 8550.26 -448.5)
(11191.8 9242.21 -932.586)
(12569.3 9414.67 -1271.57)
(-8118.59 24692.4 -2504.17)
(-3253.66 21942 -2323.24)
(-867.072 22446.2 -1869.96)
(1262.6 21132.2 -1752.53)
(3112.82 20994.3 -1942.92)
(4478.92 21930.6 -1945.87)
(6025.06 23191.7 -1784.66)
(7240.4 25242.8 -1680.45)
(8802.09 24524.7 -1289.96)
(9743.68 21348.1 -903.575)
(9651.35 16961.9 -692.752)
(8594.85 12579.1 -577.45)
(7376.67 9431.42 -397.708)
(6773.7 7861.01 -187.178)
(6912.38 7437.17 -41.1923)
(7340.16 7310.26 -127.584)
(7658.08 7390.94 -430.732)
(8190.11 7439.61 -720.882)
(9027.73 7934.45 -995.738)
(11379.9 9345.29 -1066.83)
(-7035.61 24309.5 -2287.72)
(-2891.01 21608.4 -2151.7)
(-714.571 22468.5 -1885.82)
(1318.84 21709.1 -1756.01)
(2991.59 21393.2 -2017.62)
(4450.96 22255 -2070.72)
(6016.51 23372.9 -1879.92)
(7346.51 25284.2 -1785.27)
(9007 25505.4 -1586.6)
(10244.2 23489.7 -1195.54)
(10558.4 19761.9 -910.478)
(9972.65 15632.6 -716.773)
(8959.68 12234.3 -432.955)
(8231.01 10011.5 -187.515)
(8012.01 8837.25 -158.553)
(7605.7 7826.98 -403.974)
(7537.72 7518.14 -706.771)
(7984.88 7591.81 -860.427)
(8799.83 8274.12 -771.79)
(11515.1 10025.5 -644.447)
(-6359.57 23715.1 -2207.66)
(-2651.54 21093.8 -2085.04)
(-663.875 22210.6 -1937.54)
(1278.13 21886.6 -1852.36)
(2821.1 21364.4 -2191.03)
(4255.87 22092.9 -2273.07)
(5817.37 23120.9 -2049.94)
(7316.81 25062.9 -1893.5)
(8909.11 25528.5 -1775.39)
(10354.2 24660.3 -1545.67)
(11172.9 22146.7 -1287.56)
(11147.5 18724.2 -952.244)
(10555.6 15429.9 -491.769)
(9996.99 12812.8 -233.677)
(9265.37 10722.9 -351.43)
(7847.1 8588.07 -677.939)
(7760.08 8080.7 -838.79)
(8285.03 8214.25 -723.799)
(9360.06 9221.5 -490.425)
(14762.8 12527 -72.9546)
(-5734.95 23115.7 -2094.64)
(-2422.58 20554 -2024.78)
(-598.801 21801.7 -1933.74)
(1217.36 21755.1 -1938.39)
(2542.88 21156.1 -2282.49)
(3858.79 21668.8 -2374.33)
(5326.8 22519.4 -2191.29)
(6945.75 24361 -2034.5)
(8573.65 25185.3 -1921.66)
(10030.3 24763.7 -1797.84)
(11131.8 23332.4 -1602.45)
(11736.6 21144.3 -1196.48)
(11828.4 18382.3 -722.68)
(11506.6 15465.7 -616.225)
(10005.6 12157 -843.975)
(8417.85 9544.83 -940.826)
(8650.25 9108.93 -730.032)
(9431.03 9452.39 -452.309)
(11992.2 11954.3 -45.9622)
(18606.5 15529.7 695.44)
(-4925.01 22022.6 -1868.34)
(-2110.99 19546.1 -1822.29)
(-520.362 20836.1 -1777.88)
(1106.4 21044.8 -1860.18)
(2256.58 20434.6 -2135.28)
(3398.9 20615.8 -2215.22)
(4633.95 21109.3 -2114.52)
(6044 22325.6 -2024.96)
(7665.69 23454.3 -1973.99)
(9200.5 23855.3 -1938.8)
(10489.3 23323.7 -1814.3)
(11352.2 21819.6 -1489.64)
(11743.3 19492 -1171.3)
(11282 16572.3 -1156.84)
(10036.1 13474.6 -1199.61)
(9892.11 12064.2 -1003.21)
(10514.2 12050.9 -585.508)
(12851.2 15094.4 -49.7227)
(15753.6 18799.5 690.823)
(16900 16820.6 404.071)
(-30242.8 -30165.6 -3893.87)
(-26212.6 -35774.5 -4285.56)
(-23195 -39754.7 -4110.02)
(-19099.4 -43879.1 -4665.6)
(-13420.3 -49139.1 -5129.78)
(-4526.64 -51111.9 -5297.9)
(4976.44 -51242 -5405.89)
(15380.4 -47071.1 -4978.99)
(23696.9 -39704.4 -4187.97)
(27241 -30674.3 -3439.26)
(27682.7 -22964.9 -2834.86)
(26869.1 -17420.9 -2391.98)
(25910.6 -13736.8 -2194.91)
(25124.5 -11094.4 -1904.89)
(24421.2 -9378.07 -1885.39)
(23839.7 -8064.23 -1716.25)
(23395.4 -6993.13 -1590.18)
(22778.8 -6295.81 -1533.65)
(22163.6 -5696.95 -1464.3)
(21027.4 -4892.76 -1321.37)
(-35847.5 -26070.1 -4296.2)
(-31418.7 -31242.2 -4275.36)
(-27883.8 -34963.5 -3721.33)
(-23770.2 -38790.5 -4171.24)
(-18089.2 -46259.5 -5100.53)
(-7118.07 -50726.2 -5426.57)
(4645.9 -50768.5 -5615.36)
(17636.2 -44880.7 -4940.2)
(26640.2 -31998.6 -3570.66)
(27043 -19034.3 -2544.63)
(25338.1 -11529.8 -1967.85)
(23994.4 -7556.15 -1698.2)
(23116.1 -5473.82 -1718.43)
(22528.2 -4302.92 -1576.23)
(21971.1 -3724.04 -1637.11)
(21505 -3316.27 -1577.06)
(21100.7 -2953.25 -1489.97)
(20556.7 -2695.96 -1449.34)
(19999.2 -2475.81 -1418.11)
(18949.3 -2164.77 -1293.73)
(-39756.7 -23020 -4144.47)
(-34990.1 -27647.1 -3767.15)
(-31722.3 -31734.2 -3397.25)
(-29367 -35990.1 -3376.96)
(-21650.5 -44575.1 -4735.41)
(-9309.19 -50853.3 -5387.86)
(4638.89 -50635.6 -5529.83)
(20054.2 -43842.9 -4763.66)
(27646.2 -25148.5 -2726.42)
(22845.5 -10655.4 -1546.29)
(20642.6 -5646.48 -1165.54)
(20468.4 -3383.67 -969.591)
(20972 -2151.91 -1052.63)
(21568 -1440.95 -1042.8)
(21920 -1158.35 -1239.34)
(22104.7 -1007.67 -1289.79)
(22093.7 -856.872 -1325.02)
(21818.2 -791.321 -1380.6)
(21400 -737.1 -1393.7)
(20378.7 -657.135 -1304.38)
(-43655.8 -18904.3 -4662.5)
(-38465.8 -23480.8 -4315.49)
(-35492.9 -29141.3 -3801.86)
(-29581.8 -29866.9 -3704.3)
(-25224.2 -38608.6 -4504.24)
(-15008.1 -48739.7 -6179.52)
(892.989 -52929.9 -6971.89)
(17803.4 -48200.1 -6193.25)
(27953.8 -25041.6 -2912.46)
(14681.8 -2836.72 -800.434)
(15613.2 -1411.55 -906.14)
(16558.8 -287.637 -889.322)
(17975 457.904 -1015.53)
(19280.9 772.022 -1025.58)
(20038.7 993.342 -1198.21)
(20691.2 1053.19 -1286.98)
(21138.2 1082.75 -1337.56)
(21219.8 1028.03 -1419.5)
(21036.1 944.678 -1478.86)
(20288.4 847.565 -1414.18)
(-48668.9 -13334.2 -5078.86)
(-45712.4 -17948.2 -5161.77)
(-43496.7 -21308.3 -4870.94)
(-36868.9 -24681.7 -4831.79)
(10810.3 -1895.59 -637.211)
(12483.3 -73.6021 -894.22)
(13522.8 371.009 -980.122)
(15130.6 935.553 -1087.28)
(17083.2 1890.88 -1132.47)
(19415.9 2603.34 -1222.32)
(20446 2941.19 -1437.6)
(21054.3 2996.7 -1491.29)
(21390.9 2866.88 -1558.07)
(21267.5 2674.39 -1660.66)
(20917.2 2386.94 -1714.32)
(20016.4 2072.82 -1602.43)
(-50650.8 -4717.76 -5156.21)
(-50237.7 -7371.48 -5271.32)
(-50361.7 -9569.37 -5249.78)
(-48230.7 -15057.7 -5942.69)
(15482.4 927.448 -1216.64)
(16567.8 1546.31 -1099.59)
(16755.8 1605.98 -1099.61)
(17445.4 1848.78 -1134.78)
(18643.2 2320.91 -1188.85)
(20239.4 3264.69 -1263.95)
(21737.5 3925.68 -1512.7)
(22195.4 4168.4 -1570.53)
(22470.8 4184.01 -1635.26)
(22284.4 4065.54 -1721.02)
(21757 3703.85 -1775.47)
(20492.1 3208.8 -1664.42)
(-50698.8 4688.17 -5279.88)
(-50226.8 4235.7 -5443.61)
(-50164.9 4167.58 -5361.84)
(-52457.8 576.063 -6707.67)
(18775.5 3098.55 -1295.14)
(20000.5 3694.17 -1088.52)
(19973.6 3712.6 -1084.46)
(20053.5 3791.24 -1096.16)
(20491.9 4012.89 -1124.23)
(21401.6 4522.87 -1122.87)
(22655.5 5315.11 -1350.24)
(23449.6 5720.41 -1498.57)
(23558.6 5733.65 -1562.1)
(23335.7 5602.3 -1638.87)
(22705.4 5185.68 -1707.53)
(21066 4475.16 -1626.08)
(-46510 14854.8 -4885.95)
(-44333 16932.9 -4829.54)
(-43380.4 19184.9 -4660.01)
(-47969.8 17124.1 -6342.09)
(21667.4 5263.18 -1286.15)
(20665.5 5683.6 -1006.96)
(20975.7 5554.98 -974.805)
(21357 5472.7 -1032.93)
(21809.9 5521.71 -1089.55)
(22584 5768.31 -1117.66)
(23811.2 6235.28 -1185.19)
(25049.2 6719.4 -1404.32)
(25181.2 6908.86 -1583.61)
(25036.9 6908.08 -1638.36)
(24491.9 6678.94 -1687.94)
(22468.4 5870.02 -1624.76)
(-39205.4 23118.8 -4232.74)
(-31576.5 25867.6 -3722.57)
(-25004.7 26852.4 -3069.88)
(-24612.1 26892 -3778.82)
(-1807.97 10569.5 -964.541)
(781.627 15113.4 -1324.03)
(2869.95 18830.4 -1338.89)
(5161.54 22158.1 -1306.13)
(4614.92 4475.31 -256.371)
(8350.62 4608.34 -335.369)
(12156.7 5720.07 -564.593)
(15048.8 6383.65 -717.323)
(17159.7 6733.85 -836.131)
(19153.6 7032.24 -940.703)
(21070 7466.8 -1013.34)
(22983.7 7997.79 -1123.28)
(24620.9 8377.9 -1371.46)
(24977.7 8381.26 -1566.28)
(24823.2 8162.31 -1636.86)
(23357.1 7412.57 -1612.45)
(-30261.2 26671.7 -3583.28)
(-18721.8 26242.7 -2773.4)
(-10526.4 21920.8 -1842.45)
(-2902.32 13706.5 -1046.44)
(-171.2 11857.9 -966.045)
(1395.79 16126.4 -1179.53)
(3525.24 19759.6 -1197.55)
(5596.9 20554.3 -1033.95)
(4689.8 8642.08 -331.356)
(3732.57 3788.78 -276.545)
(5287.37 3796.13 -191.182)
(7937.89 4875.17 -317.246)
(10975.5 6077.36 -531.184)
(13879.6 7016.17 -718.862)
(16642 7818.84 -803.57)
(19195.1 8571.8 -836.588)
(21563.9 9223.57 -1011.9)
(23417.4 9604.42 -1279.42)
(23862.8 9419.37 -1488.03)
(23267.4 8786.98 -1564.77)
(-22636.6 27150.8 -3025.68)
(-11329.6 24617.2 -2222.19)
(-5613.44 19828.6 -1453.86)
(-1583.05 14762.8 -1170.43)
(238.581 12881.7 -1086.8)
(1421.49 16274 -1202.49)
(3557.28 19713.7 -1207.39)
(5462.64 20932.1 -1060.61)
(5872.69 12629.1 -605.254)
(3871.13 5487.17 -202.827)
(3829.75 3859.76 -170.72)
(4755.5 3789.98 -130.737)
(6609.7 4690.77 -291.479)
(9125.8 5937.02 -420.846)
(11899 7120.99 -544.123)
(14727.8 8230.06 -618.533)
(17500.8 9209.72 -755.176)
(20173.5 10047.5 -1030.02)
(21930.9 10319.8 -1317.91)
(22236 9837.29 -1479.37)
(-17154.2 26362.6 -2582.41)
(-7424.11 23355.8 -1933.56)
(-3402.48 19795.8 -1255.82)
(-542.311 15826.9 -1147.03)
(741.91 14448.2 -1221.16)
(1643.89 16919.2 -1265.2)
(3638 19770.1 -1233.58)
(5356.7 21325.5 -1114.62)
(6496.77 15514.4 -781.444)
(5133.82 8392.64 -361.141)
(3883.02 4913.69 -143.033)
(3975.59 4004.72 -136.782)
(4579.51 3905.66 -174.695)
(5815.63 4504.64 -218.021)
(7894.99 5661.26 -402.532)
(10556 7075.54 -503.446)
(13440.3 8448.41 -629.589)
(16429.1 9724.08 -828.037)
(19217.8 10624.8 -1043.75)
(20471.1 10501.4 -1267.35)
(-13525.7 25433.8 -2366.45)
(-5361.08 22526.4 -1908.78)
(-2140.18 20325.5 -1292.76)
(276.464 17271.7 -1217.22)
(1629.87 16388.8 -1290.55)
(2090.33 18033.4 -1352.02)
(3829.71 20161.2 -1266.22)
(5406.64 21775.9 -1159.54)
(6828.4 17639.5 -908.208)
(6359.5 11557.9 -559.981)
(4970.98 7000.53 -293.161)
(3997.36 4713.44 -177.902)
(4196.47 4208.84 -196.115)
(4715.76 4165.21 -225.036)
(5780.69 4683.44 -376.36)
(7727.32 5921.43 -379.332)
(10284 7447.68 -464.159)
(13164 8984.56 -541.333)
(16240.8 10380 -702.886)
(18092.1 10736.7 -1013.73)
(-10924.5 24681.5 -2057.23)
(-4201.05 21990.1 -1731.2)
(-1421.77 20984.7 -1235.78)
(652.411 18797.5 -1207.97)
(2319.67 18723.6 -1375.3)
(3004.74 19521.5 -1428.27)
(4292.7 20996 -1267.19)
(5644.8 22513.9 -1173.93)
(7101.52 19566.3 -971.886)
(7286.24 14524.7 -728.137)
(6291.5 9703.66 -417.231)
(4783.6 6156.21 -217.118)
(4244.91 4806.72 -228.276)
(4570.86 4574.42 -318.396)
(5367.19 4907.64 -376.812)
(6586.92 5610.81 -254.21)
(8396.18 6797.47 -280.834)
(10760 8286.45 -318.292)
(13539.6 9940.01 -562.608)
(15211.7 10321.2 -917.452)
(-9241.25 24023.8 -2014.13)
(-3632.15 21499.3 -1760.03)
(-1132.32 21413 -1389.2)
(905.532 19607.8 -1345.8)
(2689.96 19882.2 -1572.92)
(3670.04 21046.3 -1658.46)
(5056.01 22223.4 -1460.41)
(6079.86 23711.3 -1236.39)
(7500.98 21388.5 -1009.1)
(8048.79 17260.2 -790.831)
(7495.37 12585.8 -541.462)
(6049.34 8438.23 -389.374)
(4969.3 6108.01 -359.961)
(4991.37 5458.58 -361.832)
(5470.69 5464.69 -275.059)
(6448.15 5908.68 -117.737)
(7605.28 6721.01 -177.832)
(9172.88 7818.36 -302.475)
(10793.6 8859.82 -654.847)
(12038.1 8978.94 -930.953)
(-7953.18 23490.7 -1828.93)
(-3237.65 21100.8 -1681.44)
(-979.729 21664.2 -1408.68)
(995.269 20332.6 -1403.21)
(2790.37 20547.4 -1590.89)
(3928.63 21588.8 -1691.75)
(5431.13 23013.5 -1565.55)
(6542.09 24834.2 -1426.83)
(7985.72 23251.8 -1110.26)
(8756.72 19772.8 -821.352)
(8588.06 15452.6 -604.115)
(7513.36 11235.4 -458.262)
(6348.21 8274.69 -326.751)
(5898.01 6899.71 -208.522)
(6039.99 6549.86 -86.6546)
(6512.4 6489.76 -88.2686)
(6969.2 6697.83 -285.122)
(7579.09 6894.26 -509.503)
(8248.44 7227.16 -755.467)
(10156.3 8225.43 -850.07)
(-6898.75 23095.3 -1687.26)
(-2883.37 20758.4 -1578.56)
(-823.936 21714.1 -1418.9)
(1055.25 20858.1 -1420.48)
(2698.46 20971.9 -1626.59)
(3988.51 21981.1 -1738.05)
(5460.82 23155.9 -1611.06)
(6727.68 24911.3 -1555.29)
(8317.68 24754 -1372.21)
(9353.48 22102.9 -1003.91)
(9525.13 18239.8 -728.279)
(8873.96 14191 -571.219)
(7915.96 10972.4 -391.224)
(7229.37 8927.6 -211.789)
(7025.61 7908.56 -132.113)