/*--------------------------------*- C++ -*----------------------------------*\
  =========                 |
  \\      /  F ield         | OpenFOAM: The Open Source CFD Toolbox
   \\    /   O peration     | Website:  https://openfoam.org
    \\  /    A nd           | Version:  9
     \\/     M anipulation  |
\*---------------------------------------------------------------------------*/
FoamFile
{
    format      ascii;
    class       volScalarField;
    location    "0.003";
    object      T;
}
// * * * * * * * * * * * * * * * * * * * * * * * * * * * * * * * * * * * * * //

dimensions      [0 0 0 1 0 0 0];

internalField   nonuniform List<scalar> 
9720
(
1399.33
1419.09
1432.2
1439.49
1444.98
1446.04
1443.66
1428.15
1401.1
1376.23
1354.16
1334.5
1316.29
1300.88
1286.85
1274.35
1262.24
1249.47
1237.02
1221.17
1418.66
1438.35
1449.95
1453.43
1457.51
1461.42
1458.54
1434.8
1386.07
1342.12
1313.58
1294.48
1278.76
1264.87
1251.42
1238.79
1226.37
1213.49
1201.05
1185.47
1431.32
1449.26
1460.17
1455.51
1458.46
1468.03
1467.56
1438.42
1370.97
1314.74
1291.59
1283.39
1277.56
1269.92
1259.5
1247.55
1234.78
1221.56
1208.78
1192.75
1438.8
1452.9
1455.47
1443.73
1426.52
1469.01
1485.62
1468.95
1376.54
1230.98
1234.89
1244.46
1252.25
1252.22
1248.68
1241.61
1232.28
1221.21
1209.61
1194.2
1444.64
1457.4
1458.48
1428.17
1189.36
1178.94
1194.96
1218.44
1242.51
1251.81
1250.15
1244.84
1235.95
1224.01
1211.25
1194.17
1445.65
1460.98
1467.41
1468.94
1185.16
1189.86
1196.72
1209.95
1228.1
1243.09
1244.89
1242.66
1236.42
1225.69
1212.79
1194.61
1442.65
1457
1465.22
1484.08
1200.49
1203.37
1205.98
1210.92
1220.42
1232.75
1240.23
1239.82
1236.35
1227.8
1215.66
1196.22
1426.15
1431.43
1433.62
1463.44
1214.89
1200.58
1203.8
1207.88
1213.97
1224.03
1234.85
1238.31
1237.35
1233.01
1223.99
1203.17
1398.64
1381.99
1365.93
1366.39
1185.23
1186.83
1201.59
1215.71
1127.29
1145.03
1161.78
1173.63
1184.67
1197.47
1211.71
1224.56
1229.8
1228.76
1223.79
1207.54
1373.76
1338.36
1311.16
1231.56
1182.87
1191.56
1205.21
1202.98
1149.13
1116.87
1123.52
1138.08
1152.97
1168.17
1184.28
1200.25
1213.13
1217.87
1216.89
1206.02
1351.83
1310.35
1288.99
1235.58
1198.52
1199.02
1208.14
1206.11
1167.24
1126.81
1106
1113.21
1127.41
1143.26
1159.24
1175.1
1189.92
1201.02
1204.1
1199.29
1332.44
1291.75
1281.12
1244.54
1220.31
1212.04
1213.58
1210.64
1178.99
1143.72
1115.82
1100.9
1104.91
1117.73
1135.77
1152.38
1166.34
1179.86
1188.04
1187.21
1314.52
1276.48
1275.48
1251.17
1242.37
1229.02
1222.95
1217.32
1190.2
1159.29
1132.81
1108.01
1097.91
1101.69
1114.27
1129.95
1144.44
1160.46
1170.27
1171.06
1299.39
1262.92
1268.02
1250.91
1250.48
1242.85
1234.34
1227.42
1203.05
1174.76
1149.8
1124.19
1104.69
1102.68
1104.72
1114.05
1129.45
1146.12
1150.19
1149.25
1285.59
1249.73
1257.78
1247.23
1248.73
1244.55
1240.87
1237.22
1217.1
1190.75
1165.87
1142.97
1120.19
1106.3
1105.92
1111.7
1121.05
1126.64
1122.65
1119.03
1273.28
1237.31
1246.07
1240.28
1243.4
1242.32
1240.33
1239.76
1229.04
1206.46
1181.77
1159.72
1137.24
1118.9
1114.54
1111.83
1104.31
1096.84
1096.01
1110.97
1261.32
1225.09
1233.52
1231.19
1234.58
1236.23
1236.77
1238.74
1232.59
1218.37
1196.53
1174.09
1152.61
1136.83
1127.7
1109.83
1091.41
1092.04
1096.9
1127.97
1248.63
1212.35
1220.5
1220.41
1222.92
1225.64
1228.24
1234.12
1231.13
1221.52
1206.71
1187.34
1168.47
1153.71
1134.9
1105.38
1093.75
1097.93
1111.14
1206.54
1236.22
1199.95
1207.84
1209.02
1210.49
1212.78
1216.24
1224.53
1225.71
1220.08
1208.57
1193.79
1176.57
1156.92
1131.61
1103.34
1101.33
1112.58
1166.27
1336.52
1220.4
1184.41
1191.85
1193.64
1193.64
1194.58
1196.92
1203.55
1208.71
1208.08
1202.81
1191.96
1176.57
1155.86
1127.41
1117.57
1133.01
1206.17
1333.77
1661.47
1386.09
1405.85
1418.94
1425.79
1430.53
1430.93
1427.94
1411.6
1383.88
1358.57
1336.84
1317.46
1299.25
1284.12
1270.2
1257.86
1246.01
1233.21
1220.6
1204.95
1405.53
1425.41
1437.07
1439.04
1442.2
1446.94
1443.77
1419.59
1370.6
1326.38
1297.55
1278.78
1263.48
1250.06
1236.84
1224.31
1212.12
1199.19
1186.43
1170.74
1418.41
1436.57
1448.23
1440.73
1442.48
1455.27
1454.72
1425.3
1358.8
1302.67
1277.23
1268.4
1263.16
1256.24
1246.51
1235.16
1222.83
1209.72
1196.71
1180.31
1425.72
1439.26
1441.39
1429.32
1414.85
1460.79
1476.05
1459.28
1368.99
1223.79
1223.16
1229.26
1236.99
1237.98
1235.33
1229.18
1220.52
1209.51
1197.74
1182.17
1430.61
1442.27
1441.98
1409.08
1183.48
1175.33
1186.61
1205.24
1226.8
1239.03
1238.13
1233.71
1225.49
1213.58
1200.81
1183.71
1430.49
1446.25
1454
1458.91
1178.59
1183.35
1188.11
1197.91
1213.87
1229.48
1233.37
1231.65
1226.22
1216.14
1203.56
1185.01
1426.75
1442.14
1452.68
1474.43
1191.15
1193.18
1193.97
1197.04
1204.54
1216.12
1226.27
1227.53
1225.29
1218.1
1206.85
1187.55
1409.63
1416.56
1421.45
1455.12
1201.8
1186.21
1188.92
1192.43
1197.62
1206.55
1218.05
1224.88
1224.74
1221.67
1214.41
1195.73
1381.2
1366.28
1353.29
1362.62
1188.32
1179.59
1194.16
1206.58
1135.2
1134.16
1145.86
1156.02
1166.15
1178.77
1193.28
1207.18
1215.61
1215.67
1212.62
1199.08
1355.66
1321.73
1297.11
1220.46
1173.92
1184.58
1197.93
1193.15
1141.25
1109.82
1111.95
1122.67
1136.05
1150.46
1165.84
1181.46
1195.28
1203.54
1203.82
1196.39
1334.01
1293.04
1272.01
1220.08
1185.51
1188.83
1198.15
1194.64
1155.22
1116.04
1095.85
1102.52
1114.89
1128.44
1142.1
1156.67
1171.29
1184.21
1190.92
1188.42
1314.9
1274.81
1263.95
1226.1
1204.35
1198.84
1200.79
1197.58
1164.7
1130.68
1105.75
1091.31
1094.05
1102.97
1118.04
1134.73
1149.34
1163.66
1175.12
1176.1
1296.99
1260.17
1259.71
1234.4
1226.14
1214.84
1208.13
1202.6
1174.19
1145.06
1121.93
1097.73
1083
1085.29
1097.11
1114.94
1130.4
1146.32
1157.94
1160.1
1282.21
1247.37
1253.67
1236.47
1238.73
1230.69
1219.43
1211.39
1186.31
1159.62
1137.47
1111.62
1088.39
1088.08
1092.58
1103.1
1117.22
1133.24
1138.81
1138.92
1268.63
1234.64
1244.59
1234.14
1237.76
1234.61
1229.18
1222.57
1200.33
1174.74
1151.78
1128.71
1105.1
1095.19
1095.59
1101.98
1110.26
1116.99
1114.27
1109.37
1256.62
1222.52
1233.74
1228.53
1233.26
1232.81
1230.1
1228.35
1213.58
1190.02
1166.48
1145.54
1124.93
1109.54
1105.49
1104.11
1098.44
1088.85
1084.26
1095.63
1245.04
1210.66
1221.73
1220.18
1224.94
1227.38
1227.67
1227.96
1220.35
1203.05
1180.84
1159.96
1141.17
1126.98
1118.73
1104.47
1082.4
1078.72
1082.69
1108.87
1232.4
1197.92
1208.75
1209.28
1213.08
1217.15
1220.16
1224.49
1219.87
1209.12
1192.39
1173.72
1157.38
1144.14
1127.46
1100.37
1081.36
1083.52
1093.35
1174.78
1219.87
1185.21
1195.73
1197.52
1200.41
1204.3
1208.56
1216.54
1215.92
1208.73
1196.88
1182.48
1166.39
1147.61
1124.9
1094.66
1087.43
1095.57
1137.18
1282.97
1204.26
1169.55
1179.31
1181.88
1183.36
1185.39
1188.9
1196.9
1201.36
1199.68
1193.14
1182.07
1166.93
1146.96
1119.31
1104.16
1115.82
1176.67
1282.27
1540.77
1380.97
1401.41
1414.34
1421.04
1424.5
1424.37
1420.86
1403.75
1375.58
1350.23
1329.04
1310.4
1292.78
1277.99
1264.21
1251.68
1239.46
1226.25
1213.05
1196.42
1401.15
1421.51
1432.44
1432.38
1434.34
1439.43
1435.98
1410.96
1361.87
1318.15
1290.17
1272.88
1258.92
1246.25
1233.35
1220.64
1208
1194.62
1181.29
1164.53
1414.05
1432.05
1443.33
1432.54
1432.04
1447.44
1446.78
1415.95
1350.06
1295.62
1271.22
1262.72
1258.13
1252.37
1243.64
1232.85
1220.61
1207.21
1193.72
1176.06
1420.76
1431.59
1431.25
1411.71
1404.66
1453.72
1467.71
1449.07
1356.9
1217.07
1219.11
1226.21
1233.48
1234.67
1232.22
1226.2
1217.33
1205.82
1193.36
1176.72
1423.94
1433.58
1429.11
1396.66
1167.16
1170.41
1180.54
1197.3
1218.42
1234.88
1235.09
1231.8
1224.02
1211.93
1198.36
1179.79
1423.33
1437.87
1445.16
1451.51
1174.42
1177.42
1180.87
1188.96
1204.99
1223.58
1231.05
1229.73
1224.78
1215.26
1202.53
1182.48
1419.4
1434.37
1445.22
1466.18
1186.18
1187.51
1187.16
1189.04
1195.07
1206.89
1219.51
1223.65
1222.02
1216.11
1205.66
1185.43
1402.31
1409.27
1414.42
1447.84
1195.06
1179.75
1181.1
1183.47
1187.4
1194.85
1206.78
1217.61
1218.77
1216.67
1210.65
1192.81
1373.58
1359.12
1346.45
1350.97
1162.41
1173.37
1188.24
1200.55
1139.44
1131.09
1139.3
1146.52
1154.16
1164.95
1178.87
1193.9
1205.77
1208.23
1206.38
1194.31
1347.83
1314.4
1289.99
1207.73
1163.04
1175.69
1187.63
1180.93
1132.91
1106.2
1107.29
1115.29
1125.39
1136.62
1150.41
1166.13
1181.74
1193.31
1195.51
1189.69
1326.56
1285.88
1264.45
1209.71
1174.61
1178.7
1187.63
1182.76
1143.47
1109.32
1089.3
1095.67
1106.26
1116.81
1128.28
1142.1
1157.13
1171.93
1180.98
1179.75
1307.9
1268.79
1257.31
1217.83
1192.58
1187.3
1189.57
1185.56
1151.38
1120.09
1097.91
1083.57
1086.96
1094.08
1105.58
1120.79
1135.93
1150.97
1164.11
1166.64
1290.3
1255.23
1254.16
1227.97
1214.89
1203.87
1195.84
1189.82
1159.54
1131.57
1111.06
1089.19
1070.82
1071.28
1081.75
1100.74
1117.49
1133.3
1146.93
1150.51
1275.69
1243.03
1249.46
1232.38
1233.27
1222.64
1207.77
1197.47
1170.41
1143.57
1123.19
1099.53
1073.61
1071.42
1076.28
1088.2
1102.75
1119.58
1129.16
1130.3
1262.17
1230.59
1241.46
1230.58
1233.97
1230.4
1220.4
1209.54
1183.95
1157.4
1135.6
1113.3
1088.1
1078.48
1079.86
1086.93
1095.98
1107.18
1107.38
1103.05
1249.99
1218.33
1231.18
1225.4
1231.04
1229.34
1224.43
1219.73
1198.63
1172.77
1149.73
1129.3
1109.32
1094.98
1090.44
1090.52
1088.68
1083.87
1074
1077.69
1238.08
1206.07
1219.22
1217.06
1223.59
1224.84
1222.85
1220.49
1209.74
1187.99
1164.74
1144.41
1126.82
1112.28
1103.48
1092.96
1073.48
1059.44
1061.08
1082.35
1225.1
1192.95
1205.95
1205.69
1211.55
1215.64
1217.09
1218.34
1211.3
1198.49
1178.93
1159.19
1142.7
1129.63
1115.89
1091.87
1062.8
1061.21
1067.15
1126.55
1212.05
1179.74
1192.42
1193.15
1197.94
1203.02
1206.82
1212.13
1209.16
1199.69
1186.53
1170.93
1154.6
1136.86
1115.43
1083.4
1064.87
1069.24
1093.91
1208.87
1195.56
1163.05
1174.7
1176.4
1179.38
1182.83
1186.7
1193.87
1196.41
1193
1184.39
1172.08
1156.69
1137.03
1110.55
1085.2
1088.53
1130.33
1210.36
1399.86
1376.09
1397.07
1410
1416.41
1419
1418.55
1414.79
1397.04
1368.24
1342.67
1321.84
1303.63
1286.35
1271.9
1258.37
1245.86
1233.54
1220.28
1206.93
1189.54
1396.67
1417.5
1428.27
1426.5
1428.03
1433.49
1430.25
1404.56
1354.41
1310.01
1282.46
1266.63
1253.78
1241.72
1229.15
1216.53
1203.82
1190.44
1177.05
1159.62
1409.46
1427.96
1439.39
1425.93
1424.12
1441.87
1441.88
1410.18
1342.43
1286.56
1262.29
1256.37
1253.04
1248.13
1239.92
1229.56
1217.51
1204.04
1190.39
1172.1
1415.4
1425.37
1423.24
1399.56
1395.43
1448.44
1462.27
1442.64
1346.42
1205.1
1208.33
1219.13
1230.34
1231.69
1229.14
1223.06
1213.99
1202.17
1189.41
1172.16
1417.53
1426.15
1419.9
1390.97
1165.62
1161.51
1172.23
1188.36
1209.52
1229.55
1231.94
1229.53
1222.79
1211.17
1197.32
1177.52
1416.76
1430.95
1438.61
1444.86
1166.82
1169.93
1173.75
1181.28
1196.52
1217.01
1227.78
1226.92
1222.55
1213.91
1201.77
1181.29
1412.87
1427.93
1439.3
1459.76
1177.71
1178.91
1179.04
1180.86
1186.04
1197.34
1211.59
1218.14
1217.06
1212.27
1203.14
1183.62
1395.85
1403.13
1408.71
1441.33
1189.39
1169.22
1172.16
1174.85
1178.41
1184.63
1195.64
1208.68
1211.88
1210.42
1205.48
1189.16
1367.19
1353.31
1341.6
1348.52
1163.17
1166.03
1174.21
1186.06
1133.39
1123.46
1129.54
1136.17
1143.34
1152.82
1165.56
1180.66
1194.56
1200.01
1199.08
1188.58
1341.49
1308.88
1285.7
1205.86
1159.72
1167.92
1176.91
1168.82
1122.84
1097.58
1097.75
1105
1114.52
1124.29
1136.74
1152.06
1168.31
1181.83
1186.69
1182.3
1320.38
1280.3
1259.15
1204.72
1169.48
1171.54
1177.46
1171.54
1133.06
1099.88
1078.8
1085.1
1095.34
1104.31
1114.26
1127.62
1142.93
1158.69
1170.21
1170.28
1301.91
1263.48
1251.61
1212.09
1184.62
1179.31
1179.76
1174.67
1140.34
1109.11
1087.14
1073.08
1076.48
1082.17
1091.41
1105.59
1121.12
1136.73
1151.12
1155.87
1284.45
1250.13
1248.19
1222.53
1205
1194.64
1185.45
1178.8
1147.4
1118.91
1099.16
1078.56
1056.97
1056.81
1065.1
1083.93
1102.47
1118.74
1133.15
1139.59
1269.78
1237.97
1243.77
1226.3
1225.07
1214.29
1196.89
1185.6
1156.71
1128.97
1109.1
1086.19
1058.45
1051.81
1055.91
1069.99
1086.87
1103.89
1116.16
1120.44
1256.18
1225.53
1236.14
1224.47
1227.88
1224.54
1210.65
1196.98
1169.14
1141.64
1119.6
1096.64
1069.54
1057.36
1059.03
1066.41
1077.24
1091.59
1096.27
1094.94
1243.84
1213.23
1226.21
1219.33
1225.8
1223.92
1216.73
1209.3
1184.31
1156.91
1132.83
1111.19
1090.02
1074.33
1068.62
1069.1
1069.55
1070.69
1063.68
1060.73
1231.75
1200.91
1214.5
1211.04
1219.5
1220.12
1215.72
1211.67
1197.7
1173.03
1148.06
1126.87
1109.16
1093.15
1081.97
1072.11
1056.31
1038.04
1034.83
1054.1
1218.68
1187.85
1201.33
1199.77
1208.2
1212.08
1211.15
1210.08
1201.63
1185.92
1163.66
1142.38
1125.44
1110.95
1097.74
1074.95
1040.52
1032.02
1036.59
1074.06
1205.46
1174.7
1187.87
1187.36
1194.58
1200.34
1202.38
1205
1200.32
1189.42
1174.12
1156.3
1139.34
1122.39
1101.44
1068.79
1037.96
1038.03
1048.85
1134.46
1188.17
1157.44
1169.7
1170.37
1175.12
1179.98
1183.17
1188.4
1189.1
1184.14
1173.44
1159.87
1144.19
1125.02
1099.39
1065.51
1058.4
1078.08
1137.4
1308.91
1373.4
1394.59
1407.6
1413.87
1416.19
1415.55
1411.67
1393.8
1364.44
1338.46
1317.41
1299.23
1282.18
1267.78
1254.53
1242.27
1230.11
1217.04
1203.8
1185.95
1393.94
1414.74
1425.4
1423.08
1424.87
1430.53
1427.32
1401.43
1350.3
1305.04
1276.85
1261.26
1248.97
1237.42
1225.36
1213.21
1200.83
1187.78
1174.7
1157.04
1406.62
1424.82
1435.59
1420.52
1420.61
1439.13
1439.35
1407.33
1337.95
1280.4
1254.88
1249.65
1247.14
1243.25
1236.01
1226.4
1214.84
1201.72
1188.37
1169.94
1412.5
1421.57
1418.5
1391.26
1391.59
1444.7
1458.77
1439.25
1342.06
1198.18
1200.37
1211.65
1225.42
1227.97
1225.62
1219.81
1210.97
1199.53
1187.27
1170.15
1414.4
1422.34
1415.17
1386.13
1155.41
1157.42
1166.38
1181.18
1201.92
1223.14
1228.22
1226.42
1220.86
1210.36
1197.06
1176.83
1413.58
1427.49
1435.24
1440.89
1164.23
1167.62
1170.52
1177.03
1190.67
1211.04
1224.31
1224.1
1220.67
1213
1201.78
1181.34
1409.54
1424.4
1435.89
1455.32
1171.5
1173.58
1173.69
1175.14
1179.76
1190.41
1205.79
1214.3
1213.78
1209.96
1201.99
1183.21
1392.33
1399.36
1404.79
1436.06
1180.34
1161.53
1164.94
1167.94
1171.82
1178
1188.73
1202.64
1208.09
1207.21
1203.17
1187.88
1363.63
1349.55
1337.56
1342.41
1153.42
1162.83
1171.22
1180.75
1124.37
1116.49
1121.84
1128.84
1136.75
1146.18
1158.27
1173.6
1189.21
1196.63
1196.27
1186.73
1338.08
1305.37
1281.88
1200.69
1156.95
1167.01
1174.63
1164.29
1118.06
1090.56
1090.59
1098.06
1108.34
1117.81
1129.67
1145.43
1162.98
1177.71
1183.73
1179.82
1317.12
1277.24
1256.36
1202.48
1166.47
1170.01
1174.55
1166.74
1126.94
1093.25
1071.61
1078.27
1088.64
1097.68
1107.74
1121.65
1137.82
1154.2
1166.59
1167.06
1298.82
1260.88
1249.16
1211.69
1181.32
1176.81
1175.98
1169.48
1133.8
1102.19
1079.73
1064.87
1069.52
1076.74
1085.94
1100.1
1115.84
1131.55
1146.21
1151.77
1281.58
1247.87
1245.61
1222.63
1201.09
1190.92
1180.76
1173.29
1141.1
1112.15
1091.2
1070.7
1049.69
1050.59
1059.19
1077.43
1095.73
1112.21
1126.88
1134.49
1266.89
1235.75
1241.09
1224.65
1221.24
1210.53
1191.44
1179.66
1150.1
1121.38
1100.36
1078.16
1050.87
1040.5
1044.36
1058.78
1077.21
1095.5
1108.6
1114.7
1253.34
1223.33
1233.57
1222.4
1225.31
1222.28
1205.91
1190.61
1161.73
1133.21
1110.62
1087.9
1060.43
1044.81
1045.69
1052.74
1065.26
1081.38
1088.56
1089.26
1241
1211.06
1223.83
1216.75
1223.47
1221.91
1213.18
1203.81
1176.97
1148.82
1124.45
1102.37
1079.58
1060.58
1053.77
1054.55
1056.34
1060.66
1056.99
1053.6
1228.82
1198.71
1212.26
1208.17
1217.75
1218.47
1212.43
1207.65
1191.77
1166.08
1140.53
1118.29
1098.39
1080.06
1067.41
1057.46
1043.84
1027.84
1021.34
1037.66
1215.75
1185.74
1199.26
1197.07
1207.16
1210.91
1208.47
1206.48
1197.36
1180.19
1156.9
1134.13
1115.15
1098.85
1084.44
1062.93
1028.98
1014.62
1019.44
1049.97
1202.51
1172.73
1186.04
1185.1
1193.92
1199.79
1200.56
1202.1
1196.57
1185.05
1168.59
1148.91
1130.24
1112.32
1091.83
1059.86
1023.35
1020.11
1026.9
1097.3
1184.65
1155.1
1167.69
1168.25
1174.04
1179.39
1181.95
1186.37
1186.21
1180.46
1168.54
1153.88
1137.14
1117.5
1091.99
1056.49
1040.41
1052.73
1099.97
1271.58
1373.3
1394.54
1407.66
1413.77
1415.74
1414.97
1411.2
1393.68
1364.46
1338.42
1317.23
1298.97
1281.92
1267.47
1254.16
1241.92
1229.8
1216.75
1203.54
1185.75
1393.86
1414.66
1425.46
1422.87
1424.33
1429.85
1426.76
1401.26
1350.47
1305.32
1276.87
1260.88
1248.39
1236.77
1224.72
1212.63
1200.34
1187.35
1174.31
1156.73
1406.49
1424.63
1435.48
1419.58
1420.28
1438.53
1438.82
1407.01
1338.39
1281.43
1255.62
1249.23
1246.21
1242.23
1235.12
1225.67
1214.24
1201.22
1187.94
1169.59
1412.64
1421.76
1418.98
1388.01
1392.89
1443.64
1457.74
1438.03
1341.25
1199.48
1201.77
1212.42
1225.05
1227.03
1224.68
1218.89
1210.17
1198.88
1186.72
1169.72
1414.84
1422.89
1415.4
1381.6
1147.46
1157.69
1166.84
1181.43
1201.52
1222.2
1227.23
1225.52
1220.03
1209.61
1196.31
1176.14
1414.03
1427.99
1435.58
1440.29
1163.58
1166.91
1169.93
1176.51
1190.13
1210.41
1223.75
1223.63
1220.35
1212.77
1201.52
1180.99
1409.75
1424.62
1436.11
1454.67
1168.74
1172.69
1172.92
1174.61
1179.44
1190.23
1205.9
1214.44
1213.9
1210.07
1202.1
1183.23
1392.27
1399.3
1404.81
1435.29
1177.3
1161.14
1164.42
1167.56
1171.74
1178.23
1189.18
1203.22
1208.49
1207.56
1203.48
1188.07
1363.51
1349.47
1337.53
1340.3
1144.21
1160.92
1169.84
1178.53
1124.86
1114.75
1121.35
1128.92
1137.13
1146.81
1158.99
1174.46
1190.11
1197.23
1196.78
1187.04
1337.94
1305.06
1281.33
1198.35
1155.04
1165.27
1172.69
1161.66
1115.36
1089.25
1089.79
1097.86
1108.51
1118.25
1130.32
1146.17
1163.77
1178.46
1184.32
1180.3
1317.12
1277.25
1256.36
1201.62
1165.22
1168.54
1172.84
1164.68
1123.69
1091
1070.69
1077.86
1088.91
1098.1
1108.22
1122.13
1138.31
1154.71
1167.1
1167.56
1299
1261.45
1250.16
1212.92
1181.22
1175.79
1174.62
1167.66
1131.05
1099.81
1078.52
1064.76
1069.81
1076.91
1086.05
1100.21
1115.95
1131.68
1146.5
1152.26
1281.91
1248.78
1246.9
1224.9
1202.19
1190.66
1179.81
1171.72
1138.81
1110.23
1089.96
1070.2
1049.6
1050.42
1059.03
1077.31
1095.61
1112.11
1127.05
1134.91
1267.35
1236.78
1242.37
1226.42
1222.85
1211.47
1191.13
1178.38
1148.23
1119.91
1099.34
1077.6
1050.62
1040.39
1044.39
1058.74
1077.05
1095.3
1108.74
1115.01
1253.85
1224.36
1234.74
1224
1226.8
1223.64
1206.53
1189.71
1160.29
1132.04
1109.71
1087.12
1059.59
1044.63
1045.75
1052.89
1065.25
1081.29
1088.75
1089.45
1241.46
1212.01
1224.88
1218.06
1224.85
1223.18
1214.02
1203.49
1175.92
1147.92
1123.69
1101.56
1078.65
1060.29
1053.98
1054.82
1056.5
1060.78
1057.2
1053.68
1229.22
1199.52
1213.18
1209.21
1218.95
1219.52
1213.21
1207.78
1191.17
1165.4
1139.92
1117.67
1097.8
1079.88
1067.71
1057.8
1044.19
1028.11
1021.42
1037.49
1216.09
1186.43
1200.05
1197.89
1208.13
1211.69
1209.1
1206.66
1197.12
1179.62
1156.38
1133.78
1114.98
1099.03
1084.83
1063.22
1029.16
1014.42
1019.29
1049.54
1202.8
1173.32
1186.73
1185.75
1194.69
1200.27
1200.97
1202.29
1196.4
1184.65
1168.16
1148.64
1130.19
1112.43
1091.92
1059.96
1023.17
1019.89
1026.62
1096.63
1184.88
1155.58
1168.25
1168.74
1174.59
1179.59
1182.07
1186.5
1186.12
1180.18
1168.15
1153.5
1136.87
1117.35
1091.96
1056.4
1040.15
1052.48
1099.47
1270.52
1375.83
1396.96
1410.15
1416.26
1418.22
1417.5
1413.86
1396.59
1367.85
1342.3
1321.37
1303.19
1286
1271.48
1257.95
1245.49
1233.22
1219.97
1206.63
1189.28
1396.32
1417.19
1428.18
1426.06
1427.15
1432.31
1429.14
1403.94
1353.66
1309.23
1281.4
1265.26
1252.36
1240.42
1228.01
1215.57
1203.01
1189.71
1176.37
1159.03
1408.98
1427.24
1438.7
1424.41
1423.7
1440.75
1440.79
1409.41
1341.28
1285.51
1260.99
1254.2
1250.77
1246.28
1238.53
1228.49
1216.64
1203.28
1189.68
1171.43
1415.5
1425.3
1423.69
1392.82
1396.11
1445.33
1458.96
1439.93
1342.49
1204.59
1207.56
1217.84
1228.46
1229.79
1227.39
1221.6
1212.84
1201.27
1188.66
1171.52
1418.29
1427.06
1420.24
1383.81
1152.08
1163.5
1173.06
1188.05
1208.16
1227.61
1230.16
1227.94
1221.45
1209.99
1196.16
1176.44
1417.44
1431.69
1439.14
1442.94
1166.48
1171.46
1174.65
1181.54
1196.1
1216.01
1226.62
1225.88
1221.78
1213.34
1201.26
1180.67
1413.08
1427.95
1439.16
1457.63
1171.41
1179.14
1179.41
1181.28
1186.36
1197.4
1211.57
1218.04
1216.96
1212.2
1203.13
1183.55
1395.47
1402.27
1407.48
1437.81
1181.1
1169.91
1172.77
1175.65
1179.35
1185.67
1196.75
1209.59
1212.32
1210.76
1205.71
1189.21
1366.65
1352.05
1339.73
1343.42
1150.61
1163.7
1169.14
1178.74
1129.38
1122.11
1130.8
1138.24
1145.56
1154.93
1167.38
1182.38
1196.15
1201.01
1199.92
1189.11
1341.23
1307.76
1283.73
1203.85
1161.07
1169.39
1177.15
1168.07
1121.46
1097.23
1098.72
1107.1
1116.73
1126.44
1138.77
1153.86
1170
1183.36
1187.87
1183.21
1320.53
1280.23
1259.26
1206.18
1170.89
1172.88
1177.74
1171.3
1130.48
1098.55
1079.59
1086.87
1097.65
1106.44
1116.13
1129.13
1144.28
1160.02
1171.44
1171.38
1302.52
1264.47
1253.16
1215.98
1186.37
1180.4
1179.98
1174.38
1138.12
1107.12
1086.92
1073.81
1077.86
1083.54
1092.66
1106.58
1122
1137.63
1152.17
1156.95
1285.41
1251.72
1250.13
1226.72
1207.26
1195.75
1185.54
1178.28
1145.41
1117.06
1098.19
1078.27
1056.65
1056.87
1065.51
1084.36
1102.9
1119.25
1133.94
1140.47
1270.94
1239.75
1245.72
1228.88
1227.39
1216.07
1197.1
1184.88
1154.8
1127.19
1107.78
1084.8
1057.42
1051.31
1055.69
1070.05
1087.01
1104.1
1116.65
1120.92
1257.38
1227.25
1237.91
1226.63
1229.81
1226.23
1211.32
1196.3
1167.44
1139.91
1118.02
1094.72
1067.42
1056.46
1058.55
1066.35
1077.38
1091.77
1096.47
1095.03
1244.91
1214.74
1227.71
1220.92
1227.5
1225.39
1217.42
1209.01
1182.81
1155.36
1131.39
1109.36
1087.72
1072.77
1067.86
1068.94
1069.76
1070.98
1063.8
1060.55
1232.63
1202.14
1215.72
1212.1
1220.82
1221.2
1216.3
1211.69
1196.68
1171.71
1146.79
1125.36
1107.29
1091.5
1080.95
1071.71
1056.66
1038.24
1034.65
1053.78
1219.4
1188.85
1202.3
1200.47
1209.17
1212.74
1211.53
1210.15
1201.08
1184.84
1162.58
1141.3
1124.24
1109.73
1096.77
1074.5
1040.17
1031.3
1036.1
1073.5
1206.04
1175.52
1188.68
1187.86
1195.29
1200.63
1202.5
1205.07
1199.88
1188.64
1173.21
1155.41
1138.44
1121.54
1100.82
1068.22
1037.08
1037.22
1048.03
1133.07
1188.59
1158.09
1170.36
1170.71
1175.54
1179.94
1182.96
1188.46
1188.82
1183.58
1172.64
1158.97
1143.33
1124.34
1098.9
1064.77
1057.28
1076.76
1135.64
1305.75
1380.71
1401.4
1414.63
1421.11
1423.93
1423.4
1419.94
1403.06
1374.82
1349.68
1328.74
1310.28
1292.75
1278
1264.26
1251.75
1239.51
1226.25
1213.02
1196.4
1400.8
1421.4
1432.62
1432.1
1433.63
1438.33
1434.98
1410.23
1360.45
1316.68
1289.02
1272.08
1258.37
1245.87
1233.08
1220.41
1207.76
1194.31
1180.92
1164.16
1413.59
1431.76
1443.38
1432.01
1431.56
1446.45
1446.01
1415.39
1347.74
1292.71
1268.73
1261.28
1257.42
1252.1
1243.57
1232.82
1220.48
1206.94
1193.31
1175.58
1420.68
1431.72
1431.59
1403.59
1401.93
1449.79
1463.51
1444.69
1349.3
1213.9
1216.08
1224.03
1232.54
1234.46
1232.17
1226.34
1217.44
1205.75
1193.12
1176.42
1424.35
1434.05
1429.15
1390.47
1160.49
1171.47
1180.97
1197.01
1217.98
1234.72
1234.93
1231.65
1223.83
1211.61
1197.98
1179.44
1423.71
1438.11
1445.06
1447.97
1173.43
1177.69
1180.93
1189.04
1205.31
1223.93
1230.95
1229.57
1224.66
1215.18
1202.48
1182.41
1419.36
1433.96
1444.47
1462.61
1180.59
1186.91
1186.67
1188.62
1194.86
1207.03
1219.79
1223.78
1222.14
1216.29
1205.9
1185.69
1401.71
1408.19
1413.03
1442.82
1193.36
1179.46
1180.77
1183.19
1187.31
1194.98
1207.27
1218.22
1219.24
1217.14
1211.11
1193.21
1373.11
1358.2
1345.43
1348.09
1154.17
1170.25
1180.33
1192.75
1135.42
1130.77
1139.04
1146.33
1154.06
1165.01
1179.15
1194.53
1206.65
1209.03
1207.17
1195.06
1347.74
1314.11
1289.89
1209.79
1166.66
1177.41
1188.61
1181.48
1131.78
1105.24
1106.7
1115.02
1125.33
1136.77
1150.81
1166.77
1182.62
1194.36
1196.63
1190.72
1326.76
1286.34
1265.63
1212.14
1177.77
1180.56
1188.25
1182.93
1142.56
1108.16
1088.66
1095.46
1106.15
1116.62
1128.34
1142.54
1157.89
1172.95
1182.27
1181.01
1308.36
1269.64
1258.79
1220.76
1195.23
1188.99
1190.12
1185.41
1150.51
1118.99
1097.27
1083.12
1086.34
1093.21
1105
1120.81
1136.45
1151.87
1165.36
1167.94
1290.95
1256.25
1255.43
1230.41
1217.04
1205.45
1196.3
1189.45
1158.42
1130.49
1110.23
1088.26
1069.22
1069.63
1080.47
1100.18
1117.63
1133.98
1148.02
1151.68
1276.44
1244.06
1250.46
1233.35
1234.47
1224.17
1208.29
1197.03
1169.07
1142.13
1121.87
1097.89
1071.54
1069.57
1074.8
1087.51
1102.75
1120.09
1129.98
1131.13
1262.91
1231.53
1242.21
1231.24
1234.79
1231.34
1220.9
1209.16
1182.63
1155.68
1133.83
1111.11
1085.4
1076.43
1078.28
1086.22
1095.9
1107.56
1107.92
1103.65
1250.62
1219.11
1231.69
1225.61
1231.58
1230.03
1224.7
1219.6
1197.45
1171.01
1147.78
1126.92
1106.31
1092.46
1088.7
1089.61
1088.61
1084.5
1074.62
1077.92
1238.59
1206.68
1219.52
1216.85
1223.75
1225.18
1223.03
1220.41
1208.91
1186.37
1162.83
1142.15
1124.01
1109.56
1101.37
1091.68
1073.41
1059.41
1060.96
1082.33
1225.49
1193.42
1206.11
1205.23
1211.48
1215.67
1217.13
1218.22
1210.68
1197.26
1177.28
1157.24
1140.42
1127.32
1114.1
1090.45
1061.85
1060.69
1066.67
1125.9
1212.35
1180.15
1192.56
1192.65
1197.76
1202.84
1206.69
1211.94
1208.58
1198.67
1185.2
1169.38
1152.97
1135.39
1113.96
1081.64
1063.67
1068.2
1092.71
1207.27
1195.73
1163.39
1174.86
1175.97
1179.12
1182.51
1186.35
1193.62
1195.89
1192.17
1183.23
1170.74
1155.32
1135.76
1109.28
1083.42
1086.62
1128.19
1208
1395.53
1385.87
1405.75
1418.98
1425.84
1430.3
1430.49
1427.47
1411.06
1383.37
1358.19
1336.7
1317.52
1299.43
1284.36
1270.47
1258.11
1246.23
1233.4
1220.77
1205.16
1405.24
1425.28
1437.14
1439.28
1442.18
1446.56
1443.25
1418.97
1369.88
1325.8
1297.36
1278.95
1263.83
1250.48
1237.28
1224.7
1212.42
1199.39
1186.55
1170.85
1418.2
1436.47
1448.39
1441.24
1442.76
1455.19
1454.33
1424.66
1358.02
1302.18
1277.15
1268.77
1263.69
1256.83
1247.06
1235.61
1223.12
1209.88
1196.77
1180.36
1425.58
1439.02
1441.08
1419.1
1410.08
1456.54
1470.66
1452.75
1360.95
1223.99
1224.04
1229.98
1237.69
1238.85
1236.2
1229.97
1221.1
1209.9
1198
1182.38
1430.49
1441.75
1440.9
1399.83
1170.8
1175.28
1186.61
1205.26
1227.35
1239.52
1238.49
1233.89
1225.49
1213.51
1200.76
1183.77
1430.4
1445.86
1453.24
1453.52
1175.97
1181.67
1186.08
1195.99
1212.85
1229.22
1233.34
1231.62
1226.21
1216.18
1203.65
1185.2
1426.35
1441.44
1451.79
1469
1184.88
1191.69
1192.4
1195.56
1203.32
1215.35
1226
1227.45
1225.28
1218.24
1207.1
1187.91
1408.96
1415.59
1420.33
1449.87
1194.64
1185.12
1187.68
1191.25
1196.56
1205.69
1217.68
1224.95
1224.89
1221.92
1214.71
1196.01
1380.6
1365.56
1352.77
1356.74
1171.98
1176.51
1188.45
1199.37
1136.45
1133.73
1145.81
1155.8
1165.69
1178.26
1192.96
1207.25
1216.01
1216.1
1213.06
1199.48
1355.16
1321.17
1296.87
1220.3
1175.25
1184.63
1196.22
1190.6
1139.53
1108.84
1111.37
1122.71
1136.18
1150.43
1165.87
1181.71
1195.75
1204.12
1204.42
1196.92
1333.64
1292.72
1272.02
1220.75
1187.15
1189.06
1196.84
1192.77
1152.74
1114.49
1094.9
1102.12
1114.87
1128.38
1142.08
1156.89
1171.74
1184.83
1191.67
1189.15
1314.66
1274.65
1263.97
1226.68
1205.86
1199.14
1199.91
1196.18
1162.45
1128.61
1104.65
1090.34
1093.21
1102.16
1117.41
1134.56
1149.63
1164.32
1176.05
1177.04
1296.86
1260.12
1259.61
1234.62
1227.29
1215.35
1207.59
1201.53
1172.25
1142.92
1120.42
1096.35
1080.88
1083.21
1095.54
1114.15
1130.38
1147.01
1159.03
1161.15
1282.1
1247.36
1253.51
1236.26
1238.98
1231.07
1219.16
1210.59
1184.63
1157.57
1135.6
1109.36
1085.76
1085.6
1090.52
1101.9
1116.99
1133.97
1139.89
1140.02
1268.53
1234.66
1244.43
1233.86
1237.84
1234.6
1229.05
1221.99
1199
1172.88
1149.72
1126.01
1101.99
1092.61
1093.46
1100.64
1110.05
1117.83
1115.44
1110.62
1256.52
1222.56
1233.6
1228.13
1233.16
1232.7
1230.02
1228.16
1212.72
1188.48
1164.49
1142.97
1122.02
1106.95
1103.31
1102.59
1098.22
1089.73
1085.05
1096.36
1244.93
1210.68
1221.61
1219.68
1224.74
1227.16
1227.59
1227.8
1219.87
1201.9
1179.13
1157.74
1138.57
1124.3
1116.23
1102.49
1081.62
1078.44
1082.74
1109.38
1232.31
1197.96
1208.69
1208.74
1212.82
1216.94
1220.09
1224.36
1219.45
1208.39
1191.11
1171.88
1155.08
1141.75
1125.2
1097.88
1080.24
1082.8
1092.8
1174.83
1219.79
1185.29
1195.75
1196.96
1200.15
1204.17
1208.53
1216.48
1215.59
1208.06
1195.92
1181.18
1164.79
1145.84
1122.75
1092.23
1085.91
1094.33
1135.99
1282.21
1204.19
1169.65
1179.33
1181.41
1183.16
1185.29
1188.81
1196.92
1201.16
1199.26
1192.37
1180.98
1165.6
1145.36
1117.28
1101.89
1113.52
1174.5
1280.04
1536.68
1399.24
1419.05
1432.16
1439.48
1445.09
1446.18
1443.83
1428.1
1401.15
1376.25
1354.18
1334.51
1316.32
1300.89
1286.85
1274.36
1262.25
1249.48
1237.04
1221.24
1418.51
1438.28
1449.93
1453.44
1457.86
1461.77
1458.74
1434.83
1386.7
1342.86
1314.28
1295.07
1279.25
1265.31
1251.84
1239.18
1226.72
1213.8
1201.33
1185.75
1431.29
1449.3
1460.34
1455.66
1459.16
1468.75
1467.69
1438.44
1372.8
1316.73
1293.07
1284.26
1278.03
1270.27
1259.78
1247.8
1235.02
1221.82
1209.08
1193.07
1438.77
1452.85
1455.34
1437.42
1421.67
1465.4
1480.02
1462.89
1374.09
1235.46
1238.55
1246.64
1253
1252.76
1249
1241.8
1232.45
1221.45
1209.89
1194.5
1444.4
1456.75
1457.34
1414.13
1188.54
1180.67
1196.72
1219.85
1243.25
1251.5
1249.73
1244.34
1235.51
1223.74
1211.16
1194.32
1445.15
1460.14
1466.18
1462.39
1178.57
1188.5
1195.7
1208.85
1227.06
1242.13
1244.08
1241.88
1235.74
1225.22
1212.56
1194.73
1441.76
1455.66
1463.61
1477.31
1191.22
1201.19
1204.11
1209.44
1219.09
1231.46
1239.28
1238.93
1235.57
1227.2
1215.3
1196.21
1424.87
1429.45
1431.15
1456.9
1202.8
1198.21
1201.71
1206.15
1212.51
1222.76
1233.75
1237.52
1236.6
1232.32
1223.36
1202.77
1397.16
1379.46
1362.44
1358.15
1179.45
1181.52
1196.46
1208.38
1134.45
1143.2
1159.83
1171.98
1183.32
1196.43
1210.87
1223.83
1229.18
1228.17
1223.26
1207.09
1372.32
1335.83
1307.85
1228.63
1182.74
1192.67
1206.28
1203.6
1149.16
1116.37
1122.61
1136.98
1151.91
1167.22
1183.44
1199.46
1212.4
1217.34
1216.4
1205.63
1350.58
1308.18
1286.17
1233.19
1198.66
1199.92
1208.83
1206.37
1167.12
1126.41
1105.48
1112.66
1126.67
1142.25
1158.12
1173.98
1188.95
1200.37
1203.71
1199.01
1331.42
1290.06
1279.02
1242.78
1220.44
1212.68
1213.88
1210.58
1178.5
1143.13
1115.33
1100.2
1104.28
1116.69
1134.33
1150.96
1165.21
1179.13
1187.79
1187.12
1313.73
1275.2
1273.95
1249.82
1242.18
1229.49
1223.01
1216.97
1189.35
1158.38
1132.14
1107.36
1096.3
1099.89
1112.41
1128.34
1143.27
1159.77
1170.16
1171.12
1298.71
1261.96
1266.91
1249.69
1249.96
1243.02
1234.34
1226.92
1202.07
1173.72
1148.94
1123.19
1102.9
1100.67
1102.76
1112.44
1128.33
1145.66
1150.19
1149.43