/*--------------------------------*- C++ -*----------------------------------*\
  =========                 |
  \\      /  F ield         | OpenFOAM: The Open Source CFD Toolbox
   \\    /   O peration     | Website:  https://openfoam.org
    \\  /    A nd           | Version:  9
     \\/     M anipulation  |
\*---------------------------------------------------------------------------*/
FoamFile
{
    format      ascii;
    class       volVectorField;
    location    "0.003";
    object      U;
}
// * * * * * * * * * * * * * * * * * * * * * * * * * * * * * * * * * * * * * //

dimensions      [0 1 -1 0 0 0 0];

internalField   nonuniform List<vector> 
9720
(
(-1087.53 -1089.35 -262.568)
(-824.031 -1139.21 -257.535)
(-672.456 -1180.38 -235.45)
(-518.095 -1230.77 -255.039)
(-347.345 -1325.21 -265.891)
(-110.933 -1367.62 -267.036)
(147.216 -1398.42 -278.141)
(471.038 -1403.09 -279.543)
(843.802 -1385.34 -279.675)
(1149.6 -1269.93 -280.731)
(1389.18 -1130.33 -280.316)
(1580.99 -1000.87 -279.477)
(1745.91 -898.463 -289.355)
(1891.35 -807.532 -283.046)
(2035.3 -755.389 -303.776)
(2170.84 -704.938 -300.075)
(2307.74 -660.841 -294.054)
(2452.56 -651.201 -306.181)
(2581.36 -633.902 -311.984)
(2800.5 -618.888 -311.217)
(-1134.49 -828.075 -256.789)
(-876.296 -884.549 -235.213)
(-729.536 -930.391 -204.639)
(-595.23 -1000.44 -234.74)
(-440.685 -1145.19 -259.793)
(-168.835 -1226.64 -256.528)
(124.374 -1261.5 -268.831)
(512.851 -1267.01 -267.094)
(1010.37 -1181.94 -262.462)
(1380.29 -940.803 -264.388)
(1609.65 -703.083 -264.477)
(1754.53 -527.027 -262.28)
(1876.88 -421.178 -280.376)
(1995.26 -361.072 -278.854)
(2111.75 -337.106 -306.453)
(2231.09 -323.814 -313.572)
(2354.62 -309.918 -308.684)
(2485.54 -307.895 -321.658)
(2605.5 -303.498 -333.582)
(2812.63 -300.306 -334.457)
(-1174.43 -678.313 -231.422)
(-921.621 -740.766 -199.738)
(-776.738 -787.064 -176.647)
(-710.12 -909.529 -207.793)
(-534.228 -1090.15 -249.195)
(-220.573 -1177.73 -243.967)
(110.969 -1193.81 -245.89)
(560.358 -1209.41 -241.682)
(1188.97 -1055.43 -239.87)
(1583.29 -708.549 -234.35)
(1761.39 -448.099 -238.564)
(1847.68 -268.578 -221.234)
(1936.08 -163.708 -219.923)
(2037.6 -107.548 -213.266)
(2143.68 -86.3572 -238.789)
(2258.7 -78.5867 -249.977)
(2380.29 -68.1965 -261.813)
(2510.87 -67.84 -280.731)
(2631.58 -66.2054 -296.467)
(2840.44 -65.1088 -303.993)
(-1227.31 -520.874 -245.723)
(-996.113 -601.731 -220.978)
(-905.222 -717.355 -190.393)
(-815.734 -822.259 -212.029)
(-739.394 -1074.93 -262.455)
(-358.295 -1100.33 -248.267)
(13.7512 -1111.87 -254.079)
(419.104 -1125.09 -253.101)
(1169.01 -1025.02 -269.958)
(1856.48 -336.572 -245.533)
(1890.48 -142.678 -274.721)
(1907.44 1.18043 -270.784)
(1973.42 81.4142 -260.321)
(2057.62 119.555 -233.913)
(2153.44 143.593 -245.493)
(2263.45 150.094 -246.325)
(2385.8 158.943 -246.89)
(2519.17 162.494 -268.6)
(2643.5 164.27 -295.857)
(2861.19 164.921 -315.39)
(-1323.07 -344.712 -256.637)
(-1143.82 -438.809 -246.625)
(-1090.27 -539.509 -231.834)
(-1082.6 -735.834 -231.202)
(1814.22 -215.89 -320.157)
(2021.61 7.10944 -261.494)
(1989.04 71.1254 -271.091)
(1929.08 165.387 -267.91)
(1928.91 265.923 -258.563)
(1991.42 312.244 -244.921)
(2074.65 341.833 -260.918)
(2177.45 343.142 -257.935)
(2297.24 342.591 -266.292)
(2431.14 340.213 -301.874)
(2558.66 330.142 -329.991)
(2782.7 332.825 -345.568)
(-1366.5 -107.964 -266.12)
(-1224.95 -164.948 -254.618)
(-1175.87 -217.784 -240.263)
(-1095.99 -358.264 -242.679)
(2140.19 151.005 -264.892)
(2264.14 242.828 -255.614)
(2250.57 255.927 -262.873)
(2198.34 282.467 -268.436)
(2127.74 351.951 -266.108)
(2130.93 421.984 -257.168)
(2178.04 469.548 -270.978)
(2251.61 487.197 -268.648)
(2346.9 493.641 -280.476)
(2463.58 497.552 -313.835)
(2580.26 487.521 -336.889)
(2788.97 491.412 -352.75)
(-1396.18 149.064 -279.389)
(-1260.95 128.016 -270.375)
(-1195.92 114.623 -248.836)
(-1115.28 17.4715 -256.919)
(2336.73 424.19 -263.889)
(2460.96 520.293 -263.721)
(2450.71 531.111 -271.921)
(2427.48 539.135 -276.915)
(2380.88 554.901 -274.833)
(2333.02 601.706 -267.873)
(2338.15 643.91 -275.689)
(2370.76 658.616 -271.769)
(2427.43 665.584 -278.854)
(2513.62 670.389 -304.514)
(2612.99 657.89 -324.786)
(2806.85 658.299 -343.811)
(-1398.49 474.802 -284.443)
(-1261.86 521.591 -274.512)
(-1207.2 576.256 -252.664)
(-1126.08 438.581 -261.842)
(2522.24 687.694 -282.73)
(2649.91 806.652 -263.315)
(2688.11 786.061 -268.82)
(2691.44 766.603 -269.078)
(2676.72 764.079 -269.609)
(2636.93 767.25 -265.854)
(2590.68 779.528 -270.026)
(2580.28 797.586 -273.218)
(2591.08 804.772 -275.629)
(2627.75 815.359 -287.768)
(2689.83 811.237 -301.611)
(2842.93 813.383 -322.935)
(-1376.95 846.365 -288.6)
(-1167.66 1016.37 -278.744)
(-1038.59 1197.56 -266.546)
(-992.832 1194.32 -307.332)
(-212.436 1816.03 -316.371)
(147.648 2150.17 -273.46)
(426.995 2337.92 -270.345)
(686.932 2512.88 -265.129)
(2025.02 2298.75 -289.996)
(2505.39 1507.97 -239.528)
(2652.27 1346.8 -256.929)
(2719.59 1242.77 -282.794)
(2766.9 1168.7 -291.285)
(2775.89 1110.26 -270.676)
(2748.84 1076.96 -254.028)
(2734.49 1043.45 -253.373)
(2734.76 1021.81 -269.216)
(2752.09 1013.47 -281.705)
(2786.83 996.923 -290.825)
(2899.25 991.974 -310.399)
(-1260.2 1149.23 -292.284)
(-924.904 1379.13 -284.754)
(-692.525 1581.2 -268.609)
(-323.386 1844.79 -287.535)
(2.82443 2001.38 -278.837)
(239.829 2243.13 -260.411)
(518.045 2435.89 -254.748)
(803.424 2624.48 -247.725)
(1441.02 2543.56 -235.059)
(2047.57 2125.05 -237.945)
(2380.49 1803.65 -268.645)
(2563.73 1676.2 -280.437)
(2687.69 1578.99 -274.484)
(2769.78 1489.01 -247.046)
(2801.47 1414.76 -238.738)
(2809.65 1349.94 -238.626)
(2824.52 1293.06 -255.311)
(2847.82 1252.83 -278.992)
(2876.56 1216.6 -290.893)
(2973.56 1192.61 -309.706)
(-1121.98 1387.08 -293.484)
(-689.995 1604.57 -285.267)
(-435.716 1753.13 -269.948)
(-134.983 1875.64 -311.367)
(71.3482 1971.65 -289.925)
(254.061 2229.96 -268.41)
(527.57 2428.51 -265.009)
(779.456 2660.71 -252.243)
(1318.09 2665.14 -229.699)
(1761.58 2422.94 -277.135)
(2087.45 2138.1 -259.674)
(2329.8 1933.99 -194.54)
(2517.36 1876.99 -200.788)
(2657.96 1814.08 -215.124)
(2744.27 1732.97 -252.917)
(2790.91 1652.69 -249.395)
(2833.63 1579.95 -255.636)
(2889.12 1518.04 -279.95)
(2934.74 1454.68 -286.44)
(3037.82 1415.48 -302.654)
(-993.979 1578.31 -293.508)
(-518.43 1749.74 -282.487)
(-261.25 1841.13 -246.772)
(2.72284 1899.7 -297.221)
(165.307 1919.38 -284.907)
(281.839 2181.86 -274.124)
(535.616 2408.06 -269.611)
(759.325 2663.76 -251.221)
(1221.63 2717.78 -255.502)
(1664.38 2597.12 -264.915)
(1915.56 2371.2 -198.845)
(2140.96 2170.25 -150.194)
(2350.51 2064.64 -202.777)
(2527.87 2023.77 -266.878)
(2649.13 1979.28 -302.865)
(2711 1916.02 -264.735)
(2782.91 1841.27 -252.975)
(2877.48 1772.36 -255.431)
(2955.68 1695.84 -248.958)
(3068.43 1652.54 -274.763)
(-893.147 1743.33 -303.258)
(-415.93 1873.18 -298.967)
(-159.825 1931.77 -241.038)
(79.6135 1968.09 -280.445)
(261.16 1925.75 -273.826)
(348.181 2121.01 -271.468)
(551.941 2366.51 -268.055)
(756.799 2649.82 -251.205)
(1149.74 2754.78 -264.669)
(1561 2698.85 -246.395)
(1880.71 2550.3 -177.027)
(2059.66 2383.56 -192.133)
(2250.85 2275.92 -280.044)
(2425.66 2192.48 -335.59)
(2550.89 2159.78 -316.719)
(2637.51 2107.71 -225.339)
(2733.4 2050.98 -207.31)
(2841.9 1999.76 -190.836)
(2930.66 1947.33 -199.198)
(3066.93 1908.34 -257.186)
(-803.48 1888.94 -295.751)
(-357.741 1992 -294.848)
(-105.373 2034.42 -230.543)
(118.263 2053.73 -249.959)
(306.757 1989.9 -258.698)
(413.816 2128.23 -261.609)
(595.274 2330.14 -263.079)
(758.694 2614.06 -248.767)
(1095.2 2758.11 -245.176)
(1468.47 2765.26 -212.876)
(1807.15 2673.86 -174.387)
(2035.17 2557.48 -227.865)
(2187.05 2456.39 -313.207)
(2337.63 2353.33 -322.086)
(2467.97 2296.72 -250.759)
(2604.08 2245.2 -145.114)
(2693.21 2244.96 -150.679)
(2797.8 2234.21 -150.783)
(2886.54 2205.71 -209.633)
(3089.31 2152.02 -301.469)
(-752.034 2033.28 -315.366)
(-334.631 2109.24 -320.307)
(-84.6673 2141.63 -253.715)
(142.661 2151.24 -258.964)
(336.744 2074.35 -273.064)
(462.276 2175.6 -274.587)
(631.946 2339.74 -271.225)
(772.779 2577.98 -257.821)
(1059.32 2735.36 -231.651)
(1393.92 2793.52 -204.77)
(1722.53 2752.49 -208.428)
(1983.36 2670.93 -255.891)
(2170.09 2577.14 -278.974)
(2302.46 2483.52 -231.423)
(2453.75 2444.49 -132.188)
(2601.31 2405.87 -82.1664)
(2670.72 2438.74 -138.404)
(2777.26 2426.57 -195.603)
(2893.42 2412.63 -303.35)
(3138.25 2373.91 -363.977)
(-702.081 2169.05 -310.176)
(-321.747 2228.93 -325.17)
(-77.1348 2257.18 -262.362)
(149.353 2262 -258.026)
(337.614 2177.58 -268.083)
(479.392 2248.92 -270.703)
(646.319 2373.9 -266.773)
(789.837 2573.52 -260.164)
(1027.33 2725.57 -236.382)
(1329.37 2806.23 -209.686)
(1637.68 2801.25 -209.901)
(1910.88 2735.07 -220.773)
(2113.59 2663.01 -184.359)
(2261.54 2611.49 -108.47)
(2426.85 2594.69 -59.5205)
(2552.37 2546.12 -107.404)
(2657.43 2578.98 -223.755)
(2809.68 2565.99 -320.113)
(2961.26 2620.61 -365.886)
(3119.11 2585.17 -323.62)
(-658.144 2306.2 -302.773)
(-307.865 2352.78 -318.075)
(-66.7228 2379.19 -271.326)
(158.688 2384.78 -257.036)
(335.854 2297.62 -274.915)
(486.581 2342.94 -281.734)
(653.544 2431.65 -272.973)
(798.907 2587.76 -262.465)
(1010.99 2727.86 -253.181)
(1273.86 2822.29 -232.167)
(1561.19 2845.07 -223.214)
(1829.05 2806.23 -215.653)
(2046.9 2755.78 -166.182)
(2253.14 2705.49 -106.155)
(2456.63 2676.81 -106.464)
(2588.77 2662.74 -208.265)
(2729.21 2727.32 -314.11)
(2888.79 2766.04 -344.479)
(2952.95 2797.76 -285.693)
(3038.69 2638.04 -227.401)
(-648.636 2451.33 -314.225)
(-305.845 2484.14 -330.05)
(-66.4133 2510.03 -289.22)
(161.992 2518.36 -278.134)
(334.064 2431.59 -309.998)
(490.173 2457.94 -315.279)
(658.467 2517.97 -297.872)
(810.591 2627.62 -275.381)
(1005.04 2747.02 -265.259)
(1238.48 2844.99 -258.871)
(1499.84 2898.58 -254.314)
(1756.31 2897.82 -225.578)
(1988.51 2863.89 -155.881)
(2232.26 2815.22 -109.33)
(2435.33 2791.91 -156.307)
(2574.91 2816.77 -289.119)
(2775.39 2875.47 -330.532)
(2887.56 2864.8 -282.999)
(2862.16 2816.77 -217.314)
(2899.06 2426.66 -127.723)
(-631.489 2580.32 -319.201)
(-301.368 2604.34 -340.774)
(-64.62 2630.86 -303.629)
(163.707 2642.75 -305.411)
(324.715 2559.28 -336.735)
(481.101 2573.68 -338.204)
(646.566 2616.87 -316.765)
(805.374 2691.95 -289.708)
(991.593 2784.04 -275.44)
(1206.17 2875.46 -272.582)
(1440.03 2940.76 -266.582)
(1679.93 2967.84 -228.026)
(1931.96 2945.6 -171.639)
(2195.71 2904.02 -170.973)
(2412.8 2911.74 -259.281)
(2626.93 2967.89 -327.427)
(2810.51 2943.21 -261.131)
(2831.78 2848.37 -202.783)
(2576.61 2573.5 -121.277)
(2524.63 2102.91 -62.6472)
(-616.757 2799.56 -317.712)
(-298.31 2811.5 -340.7)
(-63.5202 2839.54 -309.821)
(164.732 2860.02 -323.966)
(328.734 2783.19 -351.119)
(486.561 2781.8 -353.718)
(648.609 2809.25 -335.662)
(808.225 2846.84 -311.839)
(986.864 2900.63 -296.67)
(1184.97 2974.31 -293.503)
(1405.11 3040.05 -285.379)
(1639.59 3072.21 -255.123)
(1894.2 3074.35 -229.73)
(2140.62 3104.51 -263.97)
(2369.38 3157.17 -323.121)
(2586.11 3129.74 -290.113)
(2645.13 3041.37 -204.1)
(2441.55 2907.22 -118.995)
(2118.54 2535.71 -59.9649)
(2167.38 2158.49 -105.435)
(-1095.17 -1097.55 -190.148)
(-833.676 -1151.15 -184.542)
(-682.888 -1194.78 -164.242)
(-530.989 -1251.43 -178.998)
(-358.549 -1351.77 -188.692)
(-116.007 -1395.16 -191.124)
(146.262 -1426.61 -199.342)
(474.633 -1428.91 -197.332)
(850.579 -1410.07 -194.751)
(1158.82 -1292.07 -192.141)
(1397.92 -1147.49 -189.196)
(1588.54 -1015.74 -187.618)
(1752.22 -912.438 -197.295)
(1895.61 -819.675 -192.757)
(2037.76 -765.973 -212.211)
(2171.33 -715.945 -210.196)
(2305.52 -669.678 -208.162)
(2448.33 -659.122 -219.87)
(2574.96 -641.553 -226.178)
(2790.66 -626.663 -230.406)
(-1145.43 -838.722 -184.732)
(-888.784 -899.056 -163.698)
(-740.986 -948.891 -133.787)
(-614.67 -1032.53 -153.282)
(-456.823 -1187.71 -179.253)
(-173.116 -1268.78 -181.937)
(124.845 -1300.06 -192.132)
(517.046 -1303.25 -187.062)
(1018.34 -1215.04 -178.87)
(1393.08 -971.069 -176.73)
(1623.94 -728.157 -172.307)
(1765.65 -544.383 -170.019)
(1885.88 -434.643 -189.771)
(2002.58 -371.875 -191.446)
(2117.7 -348.766 -217.22)
(2234.75 -335.067 -225.335)
(2355.43 -319.054 -225.065)
(2484.22 -316.253 -237.138)
(2601.68 -310.833 -249.168)
(2804.86 -306.872 -255.417)
(-1187.31 -689.064 -163.213)
(-936.961 -754.061 -131.857)
(-795.237 -809.219 -109.673)
(-757.675 -961.004 -129.492)
(-555.92 -1149.7 -175.545)
(-224.197 -1228.05 -180.45)
(114.554 -1234.93 -183.575)
(569.979 -1249.12 -175.846)
(1200.38 -1092.87 -161.357)
(1598.55 -742.602 -152.159)
(1782.38 -478.302 -149.3)
(1861.59 -291.303 -131.144)
(1944.68 -179.955 -135.828)
(2043.98 -120.042 -135.552)
(2149.23 -99.1121 -163.567)
(2263.33 -91.2253 -177.517)
(2383.63 -80.0888 -191.519)
(2513.02 -79.4855 -211.889)
(2632.32 -77.0152 -227.671)
(2838.7 -75.2196 -237.558)
(-1245.16 -532.188 -172.654)
(-1022.68 -618.642 -144.451)
(-949.442 -766.007 -121.975)
(-853.338 -868.884 -154.802)
(-754.432 -1154.65 -204.739)
(-357.501 -1145.32 -198.729)
(19.1937 -1155.25 -204.759)
(427.446 -1163.99 -196.172)
(1186.95 -1069.73 -166.848)
(1866.21 -355.533 -146.673)
(1934.92 -170.369 -169.666)
(1934.6 -29.3854 -168.02)
(1987.26 58.339 -168.859)
(2067.03 99.9084 -154.451)
(2158.85 126.582 -171.621)
(2266.11 133.959 -179.69)
(2386.1 142.564 -185.603)
(2518.15 144.211 -206.333)
(2640.17 144.18 -228.988)
(2852.93 146.297 -246.603)
(-1344.77 -354.131 -178.885)
(-1177.04 -452.818 -166.604)
(-1141.62 -563.844 -163.152)
(-1155.31 -777.123 -185.215)
(1829.25 -244.999 -150.472)
(2064.65 -1.91844 -190.693)
(2047.22 62.2868 -195.161)
(1994.36 140.042 -181.939)
(1973.15 241.268 -167.337)
(2022.82 292.795 -164.539)
(2096.92 325.096 -188.82)
(2193.89 330.623 -196.924)
(2308.06 328.539 -212.193)
(2438.26 326.37 -243.893)
(2560 311.28 -270.312)
(2774.53 308.809 -285.211)
(-1392.76 -116.117 -186.12)
(-1266.3 -174.719 -175.611)
(-1227.47 -228.411 -174.197)
(-1145.58 -366.392 -192.339)
(2238.4 147.013 -219.673)
(2362.02 230.357 -206.064)
(2341.33 240.812 -203.187)
(2293.11 263.704 -193.346)
(2213.45 319.04 -177.892)
(2188.81 399.681 -172.091)
(2223.56 447.044 -194.95)
(2287.87 469.867 -204.084)
(2374.32 477.607 -222.632)
(2484.6 482.115 -255.286)
(2594.6 466.101 -281.544)
(2793.65 463.607 -296.983)
(-1424.32 145.057 -197.987)
(-1299.62 123.138 -191.393)
(-1236.67 110.164 -184.106)
(-1157.37 16.2185 -202.649)
(2449.64 413.439 -218.563)
(2570.24 504.101 -206.812)
(2554.87 512.468 -202.851)
(2529.12 521.409 -199.062)
(2483.2 534.283 -185.173)
(2423.19 576.521 -169.683)
(2409.72 622.865 -187.755)
(2434.16 641.239 -196.056)
(2480.98 647.582 -210.077)
(2557.52 652.677 -237.916)
(2647.05 635.663 -267.658)
(2827.93 629.449 -290.313)
(-1427.15 473.217 -202.668)
(-1303.18 518.3 -197.174)
(-1251.1 573.183 -191.698)
(-1165.53 431.507 -206.487)
(2636.49 660.545 -217.59)
(2759.95 795.332 -201.833)
(2788.99 773.963 -203.054)
(2794.53 753.261 -195.053)
(2780.48 746.364 -189.617)
(2744.6 748.705 -177.56)
(2693.9 758.163 -172.842)
(2667.47 771.926 -191.244)
(2672.43 781.333 -205.506)
(2701.23 792.094 -221.405)
(2750.65 789.011 -245.735)
(2885.12 785.482 -274.414)
(-1406.28 849.901 -205.42)
(-1209.71 1021.22 -199.991)
(-1086.43 1204.94 -196.422)
(-1032.58 1190.11 -208.455)
(-203.126 1800.89 -173.058)
(135.749 2174.37 -225.338)
(403.305 2388.83 -220.032)
(655.831 2590.75 -206.833)
(2049.3 2382.26 -167.081)
(2602.51 1510.86 -166.409)
(2750.77 1344.73 -191.777)
(2820.44 1239.92 -207.636)
(2862.98 1162.67 -209.523)
(2877.02 1101.32 -185.907)
(2852.47 1062.81 -164.602)
(2830.98 1029.62 -167.098)
(2824.96 1006.99 -192.197)
(2836.46 997.204 -216.196)
(2862.56 979.893 -236.192)
(2956.29 970.63 -263.541)
(-1287.03 1157.5 -205.951)
(-963.175 1392.53 -201.14)
(-735.803 1598.17 -190.076)
(-342.586 1854.53 -190.288)
(-2.62291 2029.31 -215.272)
(216.828 2305.24 -206.164)
(484.573 2530.76 -193.899)
(778.429 2739.08 -184.26)
(1443.73 2650.66 -151.969)
(2107.3 2190.02 -172.813)
(2473.45 1832.38 -169.798)
(2652.28 1680.66 -183.889)
(2770.73 1578.44 -192.873)
(2855.69 1487.86 -177.1)
(2899.42 1411.22 -158.224)
(2908.14 1344.62 -151.837)
(2915.56 1288.99 -172.861)
(2935.48 1245.11 -205.182)
(2954.32 1205.15 -233.665)
(3036.22 1178.32 -263.194)
(-1142.84 1396.4 -204.608)
(-720.568 1622.24 -196.089)
(-472.851 1780.25 -180.285)
(-163.16 1922.69 -195.503)
(65.4983 2010.63 -206.277)
(228.604 2290.58 -199.992)
(495.28 2518.27 -189.049)
(754.853 2763.89 -181.462)
(1307.55 2756.67 -150.36)
(1780.2 2504.88 -166.737)
(2143.57 2190.34 -153.142)
(2388.82 1944.82 -100.546)
(2578.5 1878.04 -130.854)
(2735.47 1823.62 -142.294)
(2837.21 1743.83 -163.318)
(2884.81 1657.57 -157.219)
(2918.91 1578.55 -168.576)
(2966.62 1515.46 -199.797)
(3005.06 1448.28 -228.575)
(3100.61 1404.16 -260.308)
(-1011.95 1587.11 -203.03)
(-538.253 1764.37 -191.825)
(-286.653 1860.3 -155.511)
(-24.5359 1929.42 -181.286)
(143.856 1961.89 -187.698)
(255.753 2246.63 -189.794)
(506.317 2495.21 -184.805)
(734.191 2767.15 -173.51)
(1211.71 2809.59 -166.966)
(1660.59 2667.49 -153.893)
(1921.33 2415.51 -101.584)
(2160.6 2186.97 -72.727)
(2390.72 2075.58 -115.29)
(2586.99 2037.62 -156.787)
(2724.46 1989.86 -197.125)
(2788.99 1915.21 -171.721)
(2851.5 1835.37 -168.571)
(2937.86 1770.11 -181.205)
(3014.78 1692.54 -195.81)
(3130.64 1641.82 -235.915)
(-909.563 1750.91 -211.664)
(-429.698 1885.02 -208.751)
(-175.352 1943.63 -155.733)
(61.1443 1982.92 -178.404)
(239.958 1952.05 -173.644)
(313.998 2173.88 -177.206)
(520.601 2450.97 -173.69)
(728.752 2752.56 -168.854)
(1139.48 2847.75 -174.115)
(1555.28 2768.31 -152.476)
(1876.82 2594.39 -103.011)
(2068.56 2410.76 -110.004)
(2276.66 2295.41 -168.648)
(2460.02 2199.47 -212.437)
(2600.81 2150.45 -222.869)
(2685.81 2099.95 -150.932)
(2780.81 2045.52 -135.963)
(2892.23 1996.55 -127.288)
(2985.54 1940.99 -147.889)
(3123.68 1897.08 -215.687)
(-817.172 1894.1 -205.415)
(-367.714 2001.37 -207.099)
(-116.405 2042.52 -151.761)
(101.121 2063.81 -163.948)
(287.175 2006.27 -171.449)
(392.079 2158.32 -172.463)
(563.362 2397.06 -162.632)
(732.168 2717.56 -158.152)
(1080.63 2858.41 -155.85)
(1463.31 2844.06 -136.404)
(1810.92 2735.93 -101.272)
(2045.63 2598.25 -124.746)
(2195.09 2479.28 -195.531)
(2345.64 2357.9 -225.938)
(2482.63 2295.18 -190.844)
(2620.57 2242.08 -93.9152)
(2728.24 2236.81 -89.2511)
(2842.73 2226.13 -91.1774)
(2933.61 2199.37 -154.705)
(3127.93 2146.88 -253.198)
(-763.556 2036.41 -223.445)
(-345.031 2116.58 -230.354)
(-95.6525 2148.03 -177.089)
(127.3 2156.82 -180.494)
(319.38 2084.27 -195.17)
(440.095 2197.89 -194.348)
(608.736 2389.33 -180.016)
(742.141 2671.12 -159.645)
(1041.55 2834.3 -140.474)
(1386.53 2883.2 -122.133)
(1726.94 2829.66 -119.828)
(1989.85 2725.04 -152.293)
(2164.28 2610.96 -186.896)
(2301.87 2491.7 -172.182)
(2451.99 2443.83 -97.7404)
(2614.41 2402.42 -32.9845)
(2705.06 2432.06 -75.7333)
(2815.56 2428.21 -127.371)
(2921.34 2412.45 -243.429)
(3162.83 2369.02 -319.967)
(-713.473 2170 -220.07)
(-331.197 2233.52 -236.488)
(-87.3855 2262.18 -188.459)
(135.335 2265.12 -187.851)
(323.912 2184.61 -202.175)
(462.854 2266.32 -201.088)
(627.818 2416.6 -185.963)
(759.738 2648.74 -176.33)
(1010.04 2814.21 -148.024)
(1320.96 2894.19 -122.499)
(1638.19 2879.07 -117.586)
(1908.15 2792.71 -128.2)
(2108.22 2695.46 -113.663)
(2257.51 2619.89 -62.382)
(2420.4 2604.16 -14.4237)
(2564.42 2553.98 -44.5739)
(2673.09 2579.84 -150.349)
(2820.64 2562.18 -248.269)
(2970.49 2610.75 -327.638)
(3154.55 2590.56 -295.73)
(-666.944 2304.43 -216.866)
(-314.984 2354.3 -234.434)
(-75.7772 2382.68 -199.983)
(144.951 2385.99 -192.998)
(321.855 2301.63 -217.069)
(471.186 2355.95 -219.21)
(634.826 2466.16 -198.358)
(771.608 2655.62 -187.508)
(991.692 2808.2 -174.688)
(1266.52 2904.11 -147.808)
(1557.81 2915.71 -134.333)
(1822.28 2856.5 -130.974)
(2041.52 2787.67 -98.6517)
(2243.37 2728.65 -51.1074)
(2448.37 2700.55 -48.4518)
(2594.28 2669.76 -137.795)
(2725.48 2718.4 -255.554)
(2893.96 2751.49 -311.844)
(2986.84 2808.4 -261.961)
(3080.8 2682.26 -172.418)
(-656.391 2447.71 -227.86)
(-312.184 2483.52 -245.486)
(-75.0961 2512.42 -219.171)
(147.105 2519.01 -213.196)
(321.386 2433.88 -249.607)
(475.505 2468.42 -253.968)
(640.246 2544.63 -225.612)
(784.194 2686.17 -202.94)
(984.588 2821.27 -196.207)
(1226.97 2922.26 -183.163)
(1494.94 2963.23 -172.276)
(1752.83 2944.2 -149.731)
(1984.62 2901.06 -92.4604)
(2222.5 2848.51 -51.9504)
(2435.66 2818.81 -92.3833)
(2574.63 2817.74 -222.432)
(2762.84 2876.99 -298.637)
(2913.13 2888.24 -254.498)
(2907.59 2864.54 -152.344)
(2955.65 2508.02 -14.6062)
(-638.786 2574.74 -233.311)
(-306.613 2601.42 -256.266)
(-72.2913 2632.05 -233.454)
(147.829 2641.82 -235.388)
(307.354 2557.11 -275.881)
(459.523 2580.42 -282.746)
(623.443 2635.64 -256.466)
(780.539 2737.61 -228.63)
(969.677 2848.45 -217.339)
(1191.69 2942.15 -213.599)
(1431.1 2999.6 -206.01)
(1674.57 3016.83 -170.712)
(1924.47 2990.78 -117.579)
(2187.32 2939.92 -117.14)
(2410.9 2929.32 -203.361)
(2618.19 2968.71 -292.623)
(2820.93 2970.51 -238.07)
(2881.51 2888.03 -138.196)
(2669.25 2660.79 -10.2303)
(2593.1 2164.29 96.9199)
(-624.096 2790.7 -236.755)
(-302.922 2804.81 -261.494)
(-70.8911 2838.59 -242.209)
(150.102 2855.1 -252.366)
(306.255 2773.32 -289.793)
(458.657 2781.95 -298.928)
(618.852 2819.1 -282.39)
(778.455 2875.49 -260.81)
(962.654 2945.38 -247.893)
(1166.93 3025.64 -245.904)
(1391.06 3093.11 -240.606)
(1626.79 3126.78 -213.467)
(1881.36 3122.77 -187.651)
(2133.17 3133.45 -218.732)
(2363.19 3172.85 -282.472)
(2590.18 3158.93 -262.682)
(2685.8 3078.35 -149.565)
(2518.62 2958.25 -9.7448)
(2177.96 2599.06 95.5073)
(2226.01 2215.56 53.2229)
(-1114.54 -1111.7 -143.502)
(-852.911 -1164.04 -139.444)
(-704.704 -1207.82 -124.87)
(-555.337 -1275.83 -135.657)
(-377.982 -1384 -144.48)
(-126.806 -1431.81 -148.411)
(141.805 -1460.15 -154.042)
(478.209 -1463.54 -154.807)
(860.169 -1441.22 -152.018)
(1171.01 -1318.6 -147.844)
(1410.45 -1170.07 -144.438)
(1598.8 -1036.6 -142.331)
(1760.18 -933.18 -149.107)
(1900.05 -839.017 -144.058)
(2039.98 -783.379 -157.493)
(2172.19 -734.784 -156.379)
(2304.24 -688.762 -156.619)
(2445.5 -675.911 -164.651)
(2572.45 -661.226 -169.956)
(2788.71 -648.892 -175.244)
(-1166.9 -848.628 -139.849)
(-910.847 -905.73 -123.945)
(-765.02 -959.26 -102.099)
(-649.54 -1059.99 -113.983)
(-479.223 -1225.51 -135.124)
(-183.4 -1306.98 -139.818)
(121.873 -1331.77 -147.304)
(524.999 -1336.03 -147.062)
(1032.57 -1240.26 -138.398)
(1406.76 -990.154 -132.37)
(1639.06 -745.831 -127.295)
(1776.61 -559.48 -125.74)
(1892.87 -448.225 -140.714)
(2005.96 -383.142 -140.351)
(2119.66 -359.276 -157.94)
(2235.08 -344.671 -163.909)
(2354.02 -329.468 -166.223)
(2481.92 -325.498 -174.986)
(2599.86 -321.85 -184.352)
(2804.42 -320.377 -191.467)
(-1209.01 -700.043 -126.034)
(-961.582 -759.786 -103.527)
(-827.832 -828.144 -88.6554)
(-815.07 -998.89 -93.7262)
(-580.058 -1194.25 -126.87)
(-230.769 -1260.62 -133.562)
(115.507 -1260.81 -137.691)
(584.101 -1276.97 -138.747)
(1214.28 -1104.58 -119.75)
(1603.86 -748.054 -108.556)
(1790.66 -489.807 -101.105)
(1876.15 -310.15 -88.8734)
(1957.03 -200.809 -98.2282)
(2050.74 -137.009 -99.1526)
(2153.12 -113.781 -121.736)
(2263.6 -103.189 -132.079)
(2380.61 -92.3284 -142.771)
(2507.59 -90.9474 -158.674)
(2626.01 -90.4499 -171.021)
(2831.97 -91.3202 -181.266)
(-1271.63 -550.655 -135.812)
(-1054.08 -643.446 -118.258)
(-990.746 -813.447 -106.125)
(-906.72 -915.458 -113.542)
(-782.308 -1197.42 -139.695)
(-359.055 -1166.05 -147.839)
(19.8867 -1178.74 -155.263)
(438.55 -1187.31 -152.558)
(1203.68 -1078.28 -125.409)
(1873.42 -361.969 -102.136)
(1946.05 -175.938 -112.943)
(1941.26 -33.721 -104.259)
(1993.07 50.7725 -112.603)
(2071.8 82.9564 -110.202)
(2160.49 107.098 -129.186)
(2263 115.187 -140.757)
(2376.73 121.741 -150.392)
(2503.42 121.283 -167.467)
(2621.66 117.732 -184.305)
(2830.68 118.254 -197.31)
(-1376.63 -377.165 -143.659)
(-1218.37 -478.372 -137.576)
(-1187.9 -581.932 -133.026)
(-1194.37 -799.565 -156.526)
(1826.12 -320.212 -107.64)
(2072.61 -12.2203 -148.469)
(2086.27 57.2383 -151.211)
(2059.82 127.363 -148.018)
(2030.79 224.781 -134.624)
(2067.53 277.221 -130.161)
(2132.79 306.805 -149.96)
(2219.22 315.866 -157.189)
(2321.86 311.185 -169.12)
(2442.08 307.091 -190.688)
(2556.36 291.716 -209.513)
(2763.01 286.126 -221.195)
(-1428.26 -133.032 -145.396)
(-1306.52 -191.708 -137.09)
(-1264.68 -240.306 -131.833)
(-1168.01 -364.655 -143.915)
(2301.72 137.881 -180.874)
(2418.81 225.752 -160.533)
(2412.12 231.193 -158.296)
(2386.57 252.916 -155.24)
(2321.98 289.064 -148.069)
(2273.04 366.649 -141.951)
(2293.49 414.191 -159.603)
(2344.26 440.262 -165.878)
(2416.95 450.029 -175.888)
(2513.66 458.59 -194.13)
(2613.91 444.984 -213.306)
(2803.29 438.959 -227.69)
(-1457.16 134.745 -151.752)
(-1329.63 112.13 -144.106)
(-1259.67 104.65 -134.639)
(-1177.72 12.9331 -150.593)
(2528.38 417.264 -174.409)
(2651.82 489.802 -144.324)
(2648.49 492.288 -143.799)
(2636.29 498.407 -144.105)
(2605.35 510.2 -142.935)
(2548.94 538.675 -133.734)
(2510.36 588.944 -149.614)
(2523.02 615.479 -161.237)
(2556.5 622.198 -169.514)
(2617 628.273 -183.792)
(2692.82 615.012 -202.509)
(2855.66 606.644 -220.428)
(-1458.78 465.92 -153.247)
(-1332.84 509.074 -145.196)
(-1275.14 563.93 -136.978)
(-1190.4 424.946 -157.383)
(2718.11 660.251 -161.344)
(2844.82 782.406 -138.619)
(2871.48 760.45 -133.446)
(2889.75 740.496 -139.763)
(2883.5 730.028 -144.05)
(2860.33 730.572 -141.555)
(2817.15 737.708 -140.222)
(2779.5 745.595 -155.825)
(2770.95 760.253 -174.261)
(2786.38 768.808 -182.335)
(2820.2 769.068 -194.363)
(2929.22 765.277 -211.82)
(-1439.88 849.075 -155.454)
(-1245.1 1019.99 -146.785)
(-1121.61 1204.49 -137.703)
(-1092.87 1194.1 -167.793)
(-311.405 1820.49 -166.133)
(117.249 2267.12 -198.614)
(383.353 2515.27 -178.842)
(633.926 2721.4 -160.415)
(2293.92 2224.52 -127.433)
(2691.84 1485.51 -108.107)
(2829.9 1331.55 -131.429)
(2903.5 1231.66 -138.4)
(2945.92 1156.04 -143.544)
(2975.33 1092.39 -146.129)
(2963.04 1050.05 -142.504)
(2935.44 1021.47 -143.463)
(2922.73 994.536 -162.806)
(2925.85 981.768 -183.472)
(2941.54 967.23 -193.968)
(3011.27 955.651 -207.882)
(-1319.41 1162.91 -156.234)
(-997.644 1398.42 -147.789)
(-767.436 1598.16 -134.326)
(-394.384 1862.52 -142.197)
(-29.7813 2062.75 -168.05)
(207.363 2395.79 -175.235)
(471.242 2641.39 -160.084)
(773.68 2841.3 -142.927)
(1470.43 2709.62 -103.893)
(2161.09 2193.63 -160.115)
(2540.14 1823.72 -91.8467)
(2726.9 1674.76 -108.983)
(2842.98 1574.22 -137.593)
(2932.53 1482.41 -151.884)
(2988.87 1404.25 -144.32)
(2999.28 1339.36 -130.719)
(3001.34 1283.76 -140.84)
(3018.65 1238.07 -164.926)
(3030.96 1196.41 -189.004)
(3094.51 1168.65 -208.112)
(-1171.38 1404.97 -156.57)
(-752.565 1635.19 -147.608)
(-508.491 1796.17 -131.697)
(-209.886 1957.31 -155.18)
(38.2839 2067.06 -174.393)
(208.504 2387.05 -176.381)
(475.507 2635.17 -161.393)
(748.609 2868.57 -145.349)
(1320.1 2838.85 -136.053)
(1800.64 2552.34 -94.3444)
(2215.53 2232.89 -98.7622)
(2456.09 1957.42 -67.5223)
(2635.18 1870.13 -116.208)
(2792.1 1816.47 -128.761)
(2910.12 1741.56 -133.075)
(2964.35 1656.52 -124.496)
(2994.15 1575.66 -129.201)
(3038.77 1513.47 -155.154)
(3070.47 1444.84 -184.516)
(3155.03 1395.8 -209.906)
(-1037.93 1595.08 -156.25)
(-564.101 1774.63 -146.916)
(-323.144 1880.07 -119.269)
(-66.9536 1953.99 -141.612)
(104.421 2033.54 -171.875)
(229.039 2357.32 -176.278)
(482.123 2620.02 -163.479)
(723.958 2882.13 -150.64)
(1216.48 2904.97 -146.32)
(1677.85 2742.91 -118.029)
(1953.41 2471.91 -71.955)
(2185.11 2201.12 -75.1799)
(2413.19 2058.1 -92.0562)
(2616.45 2026.64 -98.0878)
(2783.7 1996.11 -141.929)
(2860.58 1917.4 -136.429)
(2914.83 1832.23 -136.541)
(2991.56 1770.65 -150.777)
(3060.64 1692.11 -166.229)
(3179.13 1630.85 -196.818)
(-934.68 1757.58 -163.532)
(-450.166 1891.53 -160.279)
(-206.145 1957.78 -124.521)
(31.9681 1997.17 -140.75)
(199.505 2006.08 -157.97)
(265.024 2286.38 -171.417)
(491.106 2585.39 -162.375)
(713.244 2872.68 -152.967)
(1140.79 2946.95 -151.73)
(1568.22 2850.12 -138.088)
(1883.94 2653.11 -111.104)
(2059.7 2428.67 -91.6667)
(2278.17 2284.88 -106.466)
(2484.07 2194.06 -118.54)
(2657.3 2152.91 -173.007)
(2741.27 2100.63 -134.568)
(2823.08 2044.47 -127.417)
(2925.68 1996.81 -120.311)
(3021.85 1931.35 -130.782)
(3165.25 1878.41 -177.355)
(-840.119 1898.06 -158.206)
(-382.984 2004.71 -157.823)
(-138.856 2049.45 -120.692)
(71.9685 2073.58 -133.253)
(253.283 2044.42 -150.168)
(344.414 2237.62 -163.714)
(516.48 2526.15 -152.464)
(713.49 2845.71 -148.382)
(1076.74 2966.66 -147.358)
(1470.65 2931.65 -146.966)
(1817.17 2802.69 -120.508)
(2043.71 2630.13 -92.76)
(2202.02 2493.46 -118.416)
(2364.2 2366.04 -164.685)
(2514.29 2299.01 -176.519)
(2633.43 2243.19 -101.632)
(2749.37 2225.86 -91.9602)
(2869.79 2210.07 -84.8914)
(2969.25 2179.85 -123.38)
(3146.12 2134.65 -189.749)
(-784.317 2038.93 -170.942)
(-357.981 2118.94 -173.467)
(-113.764 2151.36 -139.573)
(99.819 2161.41 -148.35)
(286.007 2113.95 -167.239)
(394.343 2261.41 -178.2)
(566.436 2489.73 -163.613)
(717.89 2799.76 -145.989)
(1034.13 2948.74 -139.119)
(1388.63 2977.83 -136.439)
(1732.35 2908.86 -125.144)
(1998.55 2787.78 -128.639)
(2168.56 2665.49 -157.084)
(2306.42 2522.31 -167.196)
(2458.61 2455.91 -123.616)
(2616.19 2397.32 -47.7693)
(2730.35 2412.89 -63.843)
(2839.03 2419.8 -93.6168)
(2934.63 2408.87 -178.044)
(3163.48 2359.58 -244.645)
(-735.323 2171.87 -169.097)
(-342.911 2234.86 -178.087)
(-102.283 2261.71 -147.064)
(110.82 2263.97 -156.243)
(299.406 2204.73 -170.702)
(421.493 2316.21 -181.504)
(590.847 2503.62 -170.315)
(727.133 2760.24 -158.588)
(1002.34 2918.49 -139.357)
(1321.21 2983.3 -123.925)
(1642.8 2955.9 -115.56)
(1912.42 2859.82 -116.644)
(2108.75 2748.69 -108.54)
(2256.24 2639.44 -79.7688)
(2409.73 2613.15 -34.5719)
(2562.79 2553.88 -34.7359)
(2678.1 2573.82 -109.566)
(2813.19 2559 -189.116)
(2954.91 2589.05 -270.637)
(3176.74 2572.8 -265.89)
(-688.362 2304.46 -168.356)
(-327.021 2354.34 -179.035)
(-90.2759 2379.14 -155.465)
(120.352 2378.87 -162.005)
(297.451 2311.73 -179.299)
(434.366 2393.83 -189.28)
(598.698 2538.7 -176.629)
(743.322 2752.38 -171.84)
(975.822 2904.12 -160.986)