/*--------------------------------*- C++ -*----------------------------------*\
  =========                 |
  \\      /  F ield         | OpenFOAM: The Open Source CFD Toolbox
   \\    /   O peration     | Website:  https://openfoam.org
    \\  /    A nd           | Version:  9
     \\/     M anipulation  |
\*---------------------------------------------------------------------------*/
FoamFile
{
    format      ascii;
    class       volVectorField;
    location    "0.006";
    object      U;
}
// * * * * * * * * * * * * * * * * * * * * * * * * * * * * * * * * * * * * * //

dimensions      [0 1 -1 0 0 0 0];

internalField   nonuniform List<vector> 
62500
(
(0 0 0)
(-7.26759e-19 0 0)
(-3.19954e-20 0 0)
(8.56871e-47 0 0)
(2.06441e-68 0 0)
(-7.08017e-73 0 0)
(4.58515e-102 0 0)
(0 0 0)
(0 0 0)
(0 0 0)
(0 0 0)
(0 0 0)
(0 0 0)
(0 0 0)
(0 0 0)
(0 0 0)
(0 0 0)
(0 0 0)
(0 0 0)
(0 0 0)
(0 0 0)
(0 0 0)
(0 0 0)
(0 0 0)
(0 0 0)
(0 0 0)
(0 0 0)
(0 0 0)
(0 0 0)
(0 0 0)
(0 0 0)
(0 0 0)
(0 0 0)
(0 0 0)
(0 0 0)
(0 0 0)
(0 0 0)
(0 0 0)
(0 0 0)
(0 0 0)
(0 0 0)
(0 0 0)
(0 0 0)
(0 0 0)
(0 0 0)
(0 0 0)
(0 0 0)
(0 0 0)
(0 0 0)
(0 0 0)
(0 0 0)
(-9.67077e-19 0 0)
(-4.09053e-20 0 0)
(-1.57547e-54 8.17808e-52 0)
(3.05397e-69 3.28538e-51 0)
(-1.42758e-71 1.13936e-34 0)
(7.27418e-100 -5.2783e-17 0)
(0 0 0)
(0 9.20262e-35 0)
(0 -5.59145e-17 0)
(0 0 0)
(0 0 6.94345e-15)
(0 0 0)
(0 0 6.94345e-15)
(0 -5.39385e-21 0)
(0 0 0)
(0 0 6.94345e-15)
(0 0 0)
(0 0 8.38087e-15)
(0 -2.03779e-19 0)
(0 0 -1.81064e-14)
(0 1.35909e-31 1.68545e-14)
(0 3.69059e-32 0)
(0 8.31993e-32 0)
(0 1.15923e-30 1.85703e-14)
(0 0 -1.6669e-14)
(0 0 0)
(0 -4.60637e-37 0)
(0 1.25487e-46 0)
(0 9.93311e-31 1.85703e-14)
(0 0 -1.6669e-14)
(0 0 0)
(0 1.54856e-32 0)
(0 -2.7099e-48 0)
(0 1.16131e-30 1.85703e-14)
(0 0 -1.6669e-14)
(0 0 0)
(0 2.17592e-32 0)
(0 -3.57501e-42 0)
(0 -2.19402e-14 2.17235e-14)
(0 -1.37294e-38 0)
(0 4.67539e-53 0)
(0 -1.68447e-38 0)
(0 -2.43381e-26 0)
(0 -2.2653e-38 0)
(0 -2.07796e-38 0)
(0 2.49353e-48 0)
(0 -1.68504e-38 0)
(0 -2.43381e-26 0)
(0 -2.26937e-38 0)
(0 0 0)
(-7.57786e-19 0 0)
(-2.52631e-20 0 0)
(1.0355e-53 1.3815e-59 0)
(1.08371e-68 1.15142e-51 0)
(1.62525e-72 7.45554e-61 0)
(3.77238e-99 -1.5037e-17 0)
(0 0 0)
(0 0 0)
(0 -1.69425e-17 0)
(0 0 0)
(0 0 0)
(0 0 0)
(0 0 0)
(0 0 0)
(0 0 0)
(0 0 0)
(0 0 0)
(0 0 0)
(0 0 0)
(0 0 0)
(0 -5.04053e-38 0)
(0 -1.43931e-39 0)
(0 -2.29842e-42 0)
(0 -4.29259e-38 0)
(0 0 0)
(0 0 0)
(0 0 0)
(0 0 0)
(0 -4.29259e-38 0)
(0 0 0)
(0 0 0)
(0 0 0)
(0 0 0)
(0 -4.29259e-38 0)
(0 0 0)
(0 0 0)
(0 0 0)
(0 0 0)
(0 -2.16329e-14 0)
(0 0 0)
(0 0 0)
(0 0 0)
(0 0 0)
(0 0 0)
(0 0 0)
(0 0 0)
(0 0 0)
(0 0 0)
(0 0 0)
(0 0 0)
(-3.73539e-19 0 0)
(-8.40766e-21 0 0)
(-3.87735e-53 -4.37691e-66 0)
(8.62524e-68 9.19873e-65 6.94345e-15)
(2.47057e-75 -5.31044e-77 0)
(-3.03277e-95 -2.10848e-19 0)
(0 0 0)
(0 0 -8.4736e-15)
(0 -3.4277e-19 0)
(0 0 0)
(0 0 0)
(0 0 0)
(0 0 0)
(0 0 0)
(0 0 -4.63682e-17)
(0 0 0)
(0 0 0)
(0 0 0)
(0 0 0)
(0 0 -1.25198e-15)
(0 -3.93675e-37 -2.64302e-15)
(0 -5.552e-44 0)
(0 9.06923e-43 -6.8636e-15)
(0 4.53893e-28 -1.31709e-14)
(0 0 -1.09913e-14)
(0 0 -5.84336e-15)
(0 0 0)
(0 0 -6.8636e-15)
(0 4.54871e-28 -1.31709e-14)
(0 0 -1.09913e-14)
(0 0 -5.84336e-15)
(0 0 0)
(0 0 -6.8636e-15)
(0 4.54871e-28 -1.31709e-14)
(0 0 -1.09913e-14)
(0 0 -5.75059e-15)
(0 0 0)
(0 0 -1.9475e-15)
(0 -9.02307e-15 -1.71566e-15)
(0 0 0)
(0 0 0)
(0 0 0)
(0 0 0)
(0 0 0)
(0 0 0)
(0 0 0)
(0 0 0)
(0 0 0)
(0 0 0)
(0 0 0)
(-2.1114e-19 0 0)
(-3.11224e-21 0 0)
(-2.87561e-52 0 -6.94345e-15)
(-8.61821e-70 -3.62728e-78 0)
(-3.21692e-71 0 0)
(-3.48217e-91 0 0)
(0 0 0)
(0 0 0)
(0 -6.4365e-24 0)
(0 0 0)
(0 0 0)
(0 0 0)
(0 0 0)
(0 0 0)
(0 0 -2.90493e-14)
(0 0 -6.49155e-16)
(0 0 0)
(0 0 0)
(0 0 0)
(0 0 -2.99767e-14)
(0 -2.85908e-38 -3.41035e-14)
(0 -6.35311e-45 -1.04793e-14)
(0 8.01279e-40 -4.18953e-14)
(0 -1.15322e-31 -4.99193e-14)
(0 0 -4.99193e-14)
(0 0 -4.1478e-14)
(0 0 -1.07113e-14)
(0 0 -4.19881e-14)
(0 -1.16506e-31 -4.99193e-14)
(0 0 -4.99193e-14)
(0 0 -4.1478e-14)
(0 0 -1.07113e-14)
(0 0 -4.19881e-14)
(0 -1.16506e-31 -4.99193e-14)
(0 0 -4.99193e-14)
(0 0 -4.12461e-14)
(0 0 -1.01084e-14)
(0 0 -3.36863e-14)
(0 -2.8984e-38 -3.21105e-14)
(0 0 -7.42272e-16)
(0 0 0)
(0 0 0)
(0 0 0)
(0 0 0)
(0 0 0)
(0 0 0)
(0 0 0)
(0 0 0)
(0 0 0)
(0 0 0)
(-2.39057e-19 0 0)
(-4.95917e-21 0 0)
(-8.02908e-52 0 0)
(-3.55671e-69 0 0)
(-2.652e-68 0 0)
(-3.43147e-89 0 2.18622e-14)
(0 0 4.12677e-15)
(0 0 2.22332e-14)
(0 0 2.22332e-14)
(0 0 0)
(0 0 0)
(0 0 0)
(0 0 0)
(0 0 2.05176e-14)
(0 0 -3.14605e-14)
(0 0 -1.20557e-15)
(0 0 0)
(0 0 0)
(0 0 2.22332e-14)
(0 0 0)
(0 -2.03466e-45 -2.0866e-15)
(0 4.77292e-49 0)
(0 -1.01202e-54 -6.12161e-15)
(0 -1.29204e-40 -1.02957e-14)
(0 0 -1.02493e-14)
(0 0 -6.02887e-15)
(0 0 0)
(0 0 -6.16797e-15)
(0 -1.29303e-40 -1.02957e-14)
(0 0 -1.02493e-14)
(0 0 -6.02887e-15)
(0 0 0)
(0 0 -6.16797e-15)
(0 -1.29303e-40 -1.02957e-14)
(0 0 -1.02493e-14)
(0 0 -5.93606e-15)
(0 0 0)
(0 0 -2.0403e-15)
(0 -3.08028e-45 -2.08688e-15)
(0 0 0)
(0 0 1.65763e-14)
(0 0 0)
(0 0 0)
(0 0 0)
(0 0 0)
(0 0 1.65763e-14)
(0 0 0)
(0 0 0)
(0 0 0)
(0 0 0)
(-2.22163e-19 0 0)
(-6.71483e-21 0 0)
(-3.31897e-51 0 0)
(1.8638e-71 0 0)
(-7.21105e-67 0 -2.18622e-14)
(-6.57737e-88 0 0)
(0 0 0)
(0 0 -1.64372e-14)
(0 0 0)
(0 0 0)
(0 0 0)
(0 0 0)
(0 0 0)
(0 0 2.1584e-14)
(0 0 -2.39952e-14)
(0 0 0)
(0 0 0)
(0 0 0)
(0 0 2.22332e-14)
(0 0 0)
(0 7.73485e-55 0)
(0 0 0)
(0 0 0)
(0 0 0)
(0 0 0)
(0 0 0)
(0 0 0)
(0 0 0)
(0 0 0)
(0 0 0)
(0 0 0)
(0 0 0)
(0 0 0)
(0 0 0)
(0 0 0)
(0 0 0)
(0 0 0)
(0 0 0)
(0 3.7851e-54 0)
(0 0 0)
(0 0 -2.10276e-14)
(0 0 0)
(0 0 0)
(0 0 0)
(0 0 0)
(0 0 -2.10276e-14)
(0 0 0)
(0 0 0)
(0 0 0)
(0 0 0)
(-8.03226e-20 0 0)
(-2.2971e-21 0 0)
(-1.20702e-50 0 0)
(6.15033e-71 0 0)
(-1.78371e-65 0 -4.12677e-15)
(-2.93063e-86 0 0)
(0 0 0)
(0 0 0)
(0 0 0)
(0 0 0)
(0 0 0)
(0 0 0)
(0 0 0)
(0 0 3.19941e-15)
(0 0 -2.82846e-15)
(0 0 0)
(0 0 0)
(0 0 0)
(0 0 4.21951e-15)
(0 0 0)
(0 0 0)
(0 0 0)
(0 0 0)
(0 0 0)
(0 0 0)
(0 0 0)
(0 0 0)
(0 0 0)
(0 0 0)
(0 0 0)
(0 0 0)
(0 0 0)
(0 0 0)
(0 0 0)
(0 0 0)
(0 0 0)
(0 0 0)
(0 0 0)
(0 0 0)
(0 0 0)
(0 0 -1.27858e-14)
(0 0 0)
(0 0 0)
(0 0 0)
(0 0 0)
(0 0 -1.27858e-14)
(0 0 0)
(0 0 0)
(0 0 0)
(0 0 0)
(-9.98049e-21 0 0)
(-2.10626e-22 0 0)
(-2.39198e-52 0 8.4736e-15)
(-1.90146e-70 0 0)
(-1.59467e-64 0 -2.22332e-14)
(1.50178e-89 0 1.64372e-14)
(0 0 0)
(0 0 0)
(0 0 2.08421e-14)
(0 0 0)
(0 0 0)
(0 0 0)
(0 0 0)
(0 0 2.16304e-14)
(0 0 -2.14913e-14)
(0 0 0)
(0 0 0)
(0 0 0)
(0 0 2.22332e-14)
(0 0 0)
(0 0 0)
(0 0 0)
(0 0 0)
(0 0 0)
(0 0 0)
(0 0 0)
(0 0 0)
(0 0 0)
(0 0 0)
(0 0 0)
(0 0 0)
(0 0 0)
(0 0 0)
(0 0 0)
(0 0 0)
(0 0 0)
(0 0 0)
(0 0 0)
(0 0 0)
(0 0 0)
(0 0 -2.22567e-15)
(0 0 0)
(0 0 2.13058e-14)
(0 0 0)
(0 0 0)
(0 0 -2.22567e-15)
(0 0 0)
(0 0 2.13058e-14)
(0 0 0)
(0 0 0)
(-4.55004e-20 0 0)
(-8.32272e-38 0 0)
(-3.42037e-54 0 0)
(2.97938e-69 0 0)
(-1.6148e-64 0 -2.22332e-14)
(-9.90977e-93 0 0)
(0 0 0)
(0 0 -2.08421e-14)
(0 0 0)
(0 0 0)
(0 0 0)
(0 0 0)
(0 0 0)
(0 0 2.09812e-14)
(0 0 -2.09812e-14)
(0 0 0)
(0 0 0)
(0 0 0)
(0 0 2.22332e-14)
(0 0 0)
(0 0 0)
(0 0 0)
(0 0 0)
(0 0 0)
(0 0 0)
(0 0 0)
(0 0 0)
(0 0 0)
(0 0 0)
(0 0 0)
(0 0 0)
(0 0 0)
(0 0 0)
(0 0 0)
(0 0 0)
(0 0 0)
(0 0 0)
(0 0 0)
(0 0 0)
(0 0 0)
(0 0 -2.64063e-14)
(0 0 0)
(0 0 0)
(0 0 0)
(0 0 0)
(0 0 -2.64063e-14)
(0 0 0)
(0 0 0)
(0 0 0)
(0 0 0)
(-4.09726e-19 0 0)
(-4.59839e-37 0 0)
(-1.19021e-53 0 0)
(7.5892e-69 0 0)
(-6.99618e-72 0 0)
(-3.89695e-91 0 0)
(0 0 0)
(0 0 0)
(0 0 0)
(0 0 0)
(0 0 0)
(0 0 0)
(0 0 0)
(0 0 0)
(0 0 0)
(0 0 0)
(0 0 0)
(0 0 0)
(0 0 0)
(0 0 0)
(0 0 0)
(0 0 0)
(0 0 0)
(0 0 0)
(0 0 0)
(0 0 0)
(0 0 0)
(0 0 0)
(0 0 0)
(0 0 0)
(0 0 0)
(0 0 0)
(0 0 0)
(0 0 0)
(0 0 0)
(0 0 0)
(0 0 0)
(0 0 0)
(0 0 0)
(0 0 0)
(0 0 -1.33886e-14)
(0 0 0)
(0 0 0)
(0 0 0)
(0 0 0)
(0 0 -1.33886e-14)
(0 0 0)
(0 0 0)
(0 0 0)
(0 0 0)
(-1.02111e-18 0 -6.94345e-15)
(-2.8434e-36 0 0)
(1.74902e-52 0 0)
(5.03245e-69 0 0)
(-3.89848e-78 0 0)
(-1.55025e-102 0 0)
(0 0 0)
(0 0 0)
(0 0 0)
(0 0 0)
(0 0 0)
(0 0 0)
(0 0 0)
(0 0 0)
(0 0 0)
(0 0 0)
(0 0 0)
(0 0 0)
(0 0 0)
(0 0 -1.68081e-14)
(0 0 2.22332e-14)
(0 0 2.21868e-14)
(0 0 2.96756e-15)
(0 0 1.73182e-14)
(0 0 -1.96366e-14)
(0 0 0)
(0 0 2.21868e-14)
(0 0 2.96756e-15)
(0 0 1.72718e-14)
(0 0 -1.96366e-14)
(0 0 0)
(0 0 2.21868e-14)
(0 0 2.96756e-15)
(0 0 1.72718e-14)
(0 0 -1.96366e-14)
(0 0 0)
(0 0 2.21868e-14)
(0 0 4.21951e-15)
(0 0 2.22332e-14)
(0 0 2.21868e-14)
(0 0 7.41891e-16)
(0 0 2.21868e-14)
(0 0 4.21951e-15)
(0 0 2.21868e-14)
(0 0 2.21868e-14)
(0 0 7.41891e-16)
(0 0 2.21868e-14)
(0 0 4.21951e-15)
(0 0 2.21868e-14)
(0 0 0)
(-1.22066e-18 0 0)
(-8.99074e-36 0 0)
(-5.87582e-52 0 0)
(7.35136e-69 0 0)
(-1.049e-78 0 0)
(0 0 0)
(0 0 0)
(0 0 0)
(0 0 0)
(0 0 0)
(0 0 0)
(0 0 0)
(0 0 0)
(0 0 0)
(0 0 0)
(0 0 0)
(0 0 0)
(0 0 0)
(0 0 0)
(0 0 -4.63682e-16)
(0 0 5.47145e-15)
(0 0 5.61055e-15)
(0 0 0)
(0 0 2.45751e-15)
(0 0 -2.13294e-15)
(0 0 0)
(0 0 4.54408e-15)
(0 0 0)
(0 0 2.41115e-15)
(0 0 -2.17931e-15)
(0 0 0)
(0 0 4.54408e-15)
(0 0 0)
(0 0 2.41115e-15)
(0 0 -2.17931e-15)
(0 0 0)
(0 0 4.54408e-15)
(0 0 0)
(0 0 5.51782e-15)
(0 0 3.75582e-15)
(0 0 -7.36077e-15)
(0 0 2.13294e-15)
(0 0 0)
(0 0 5.51782e-15)
(0 0 3.75582e-15)
(0 0 -7.3144e-15)
(0 0 2.13294e-15)
(0 0 0)
(0 0 5.61055e-15)
(0 0 0)
(-1.82003e-18 0 -6.94345e-15)
(-4.6742e-35 0 0)
(1.19504e-53 0 0)
(1.39217e-68 0 0)
(-6.47266e-79 0 0)
(0 0 0)
(0 0 0)
(0 0 0)
(0 0 0)
(0 0 0)
(0 0 0)
(0 0 0)
(0 0 0)
(0 0 0)
(0 0 0)
(0 0 0)
(0 0 0)
(0 0 0)
(0 0 0)
(0 0 -1.51388e-14)
(0 0 2.22332e-14)
(0 0 2.21868e-14)
(0 0 7.51165e-15)
(0 0 2.22332e-14)
(0 0 -1.72254e-14)
(0 0 0)
(0 0 2.22332e-14)
(0 0 7.37254e-15)
(0 0 2.22332e-14)
(0 0 -1.72254e-14)
(0 0 0)
(0 0 2.22332e-14)
(0 0 7.37254e-15)
(0 0 2.22332e-14)
(0 0 -1.72254e-14)
(0 0 0)
(0 0 2.22332e-14)
(0 0 7.46528e-15)
(0 0 2.22332e-14)
(0 0 2.21868e-14)
(0 0 0)
(0 0 2.13058e-14)
(0 0 0)
(0 0 2.21868e-14)
(0 0 2.21868e-14)
(0 0 0)
(0 0 2.13058e-14)
(0 0 0)
(0 0 2.21868e-14)
(0 0 0)
(-5.86259e-19 0 0)
(1.43474e-36 0 0)
(1.99006e-52 0 0)
(1.63631e-67 0 0)
(6.72653e-79 0 -2.06567e-14)
(0 0 -2.1584e-14)
(0 0 -3.15304e-15)
(0 0 -2.16304e-14)
(0 0 -2.09812e-14)
(0 0 0)
(0 0 0)
(0 0 0)
(0 0 0)
(0 0 0)
(0 0 6.94345e-15)
(0 0 0)
(0 0 0)
(0 0 0)
(0 0 0)
(0 0 5.59877e-15)
(0 0 1.46406e-14)
(0 0 5.05413e-15)
(0 0 1.32959e-14)
(0 0 1.64026e-14)
(0 0 7.03619e-15)
(0 0 7.17529e-15)
(0 0 2.9212e-15)
(0 0 1.26467e-14)
(0 0 1.63562e-14)
(0 0 7.03619e-15)
(0 0 7.17529e-15)
(0 0 2.9212e-15)
(0 0 1.26467e-14)
(0 0 1.63562e-14)
(0 0 7.03619e-15)
(0 0 7.17529e-15)
(0 0 2.9212e-15)
(0 0 1.31104e-14)
(0 0 1.78863e-14)
(0 0 0)
(0 0 -3.27006e-14)
(0 0 -1.57652e-15)
(0 0 -2.22795e-14)
(0 0 0)
(0 0 0)
(0 0 -2.95939e-14)
(0 0 -6.02787e-16)
(0 0 -2.20477e-14)
(0 0 0)
(0 0 0)
(-1.92834e-18 0 0)
(4.49608e-35 0 0)
(1.01029e-51 0 0)
(4.56944e-67 0 2.22332e-14)
(2.88344e-82 0 2.22332e-14)
(0 0 2.17231e-14)
(0 0 3.01393e-15)
(0 0 2.15377e-14)
(0 0 2.09812e-14)
(0 0 0)
(0 0 0)
(0 0 0)
(0 0 0)
(0 0 -6.94345e-15)
(0 0 0)
(0 0 0)
(0 0 0)
(0 0 0)
(0 0 -1.20903e-14)
(0 0 -1.74227e-14)
(0 0 -5.59877e-15)
(0 0 0)
(0 0 -6.94345e-15)
(0 0 -6.98982e-15)
(0 0 -1.57534e-14)
(0 0 -9.12276e-15)
(0 0 0)
(0 0 -6.94345e-15)
(0 0 -6.98982e-15)
(0 0 -1.57534e-14)
(0 0 -9.12276e-15)
(0 0 0)
(0 0 -6.94345e-15)
(0 0 -6.98982e-15)
(0 0 -1.57534e-14)
(0 0 -9.12276e-15)
(0 0 0)
(0 0 -6.94345e-15)
(0 0 -6.38703e-15)
(0 0 2.45751e-15)
(0 0 2.11667e-14)
(0 0 3.84856e-15)
(0 0 0)
(0 0 0)
(0 0 3.84856e-15)
(0 0 2.08885e-14)
(0 0 3.80219e-15)
(0 0 0)
(0 0 0)
(0 0 0)
(-4.72409e-18 0 -6.94345e-15)
(-4.87302e-33 0 0)
(1.79621e-50 0 0)
(-1.18143e-69 0 0)
(1.88451e-82 0 0)
(0 0 0)
(0 0 0)
(0 0 0)
(0 0 0)
(0 0 0)
(0 0 0)
(0 0 0)
(0 0 0)
(0 0 0)
(0 0 0)
(0 0 0)
(0 0 0)
(0 0 0)
(0 0 -1.66926e-15)
(0 0 -2.22332e-14)
(0 0 2.09349e-14)
(0 0 2.21868e-14)
(0 0 6.95523e-16)
(0 0 1.50461e-14)
(0 0 -2.22332e-14)
(0 0 0)
(0 0 2.21868e-14)
(0 0 6.95523e-16)
(0 0 1.50461e-14)
(0 0 -2.22332e-14)
(0 0 0)
(0 0 2.21868e-14)
(0 0 6.95523e-16)
(0 0 1.50461e-14)
(0 0 -2.22332e-14)
(0 0 0)
(0 0 2.21868e-14)
(0 0 2.45751e-15)
(0 0 2.22332e-14)
(0 0 2.21868e-14)
(0 0 7.46528e-15)
(0 0 2.21868e-14)
(0 0 5.28597e-15)
(0 0 2.21868e-14)
(0 0 2.21868e-14)
(0 0 7.37254e-15)
(0 0 2.21868e-14)
(0 0 5.28597e-15)
(0 0 2.21868e-14)
(0 0 0)
(-1.32623e-17 0 0)
(-9.18511e-29 0 0)
(2.18485e-49 0 0)
(0 0 0)
(0 0 0)
(0 0 0)
(0 0 0)
(0 0 0)
(0 0 0)
(0 0 0)
(0 0 0)
(0 0 0)
(0 0 0)
(0 0 0)
(0 0 0)
(0 0 0)
(0 0 0)
(0 0 0)
(0 0 0)
(0 0 -1.29831e-15)
(0 0 5.00777e-15)
(0 0 5.56418e-15)
(0 0 0)
(0 0 1.66926e-15)
(0 0 -2.96756e-15)
(0 0 0)
(0 0 4.63682e-15)
(0 0 0)
(0 0 1.66926e-15)
(0 0 -2.96756e-15)
(0 0 0)
(0 0 4.63682e-15)
(0 0 0)
(0 0 1.66926e-15)
(0 0 -2.96756e-15)
(0 0 0)
(0 0 4.63682e-15)
(0 0 0)
(0 0 5.51782e-15)
(0 0 3.57035e-15)
(0 0 -8.14903e-15)
(0 0 1.9011e-15)
(0 0 0)
(0 0 5.51782e-15)
(0 0 3.57035e-15)
(0 0 -8.14903e-15)
(0 0 1.9011e-15)
(0 0 0)
(0 0 5.61055e-15)
(0 0 0)
(-3.32794e-17 0 -8.38087e-15)
(-8.52396e-25 0 0)
(2.86446e-50 0 0)
(0 0 0)
(0 0 -8.80996e-16)
(0 0 -1.66926e-15)
(0 0 0)
(0 0 -1.76199e-15)
(0 0 -1.15921e-15)
(0 0 0)
(0 0 0)
(0 0 0)
(0 0 0)
(0 0 0)
(0 0 0)
(0 0 0)
(0 0 0)
(0 0 0)
(0 0 0)
(0 0 -1.50925e-14)
(0 0 2.22332e-14)
(0 0 2.21868e-14)
(0 0 8.39264e-15)
(0 0 2.22332e-14)
(0 0 -1.69472e-14)
(0 0 0)
(0 0 2.22332e-14)
(0 0 8.25354e-15)
(0 0 2.22332e-14)
(0 0 -1.69472e-14)
(0 0 0)
(0 0 2.22332e-14)
(0 0 8.25354e-15)
(0 0 2.22332e-14)
(0 0 -1.69472e-14)
(0 0 0)
(0 0 2.22332e-14)
(0 0 8.29991e-15)
(0 0 2.22332e-14)
(0 0 2.21868e-14)
(0 0 0)
(0 0 2.12131e-14)
(0 0 0)
(0 0 2.21868e-14)
(0 0 2.21868e-14)
(0 0 0)
(0 0 2.12131e-14)
(0 0 0)
(0 0 2.21868e-14)
(0 0 0)
(-1.63471e-16 0 0)
(-1.07503e-21 0 0)
(0 0 0)
(0 0 0)
(0 0 -2.9513e-14)
(0 0 -3.30833e-14)
(0 0 -9.64459e-15)
(0 0 -3.32224e-14)
(0 0 -3.04867e-14)
(0 0 -9.27364e-17)
(0 0 0)
(0 0 0)
(0 0 0)
(0 0 0)
(0 0 1.20903e-14)
(0 0 1.66926e-15)
(0 0 0)
(0 0 0)
(0 0 0)
(0 0 7.4535e-15)
(0 0 1.70517e-14)
(0 0 6.53792e-15)
(0 0 1.66808e-14)
(0 0 1.98802e-14)
(0 0 1.03747e-14)
(0 0 1.06993e-14)
(0 0 4.68319e-15)
(0 0 1.61707e-14)
(0 0 1.98338e-14)
(0 0 1.03747e-14)
(0 0 1.06993e-14)
(0 0 4.68319e-15)
(0 0 1.61707e-14)
(0 0 1.98338e-14)
(0 0 1.03747e-14)
(0 0 1.06993e-14)
(0 0 4.68319e-15)
(0 0 1.63562e-14)
(0 0 2.06221e-14)
(0 0 0)
(0 0 -3.46017e-14)
(0 0 -1.99383e-15)
(0 0 -2.22332e-14)
(0 0 0)
(0 0 0)
(0 0 -3.10777e-14)
(0 0 -1.06647e-15)
(0 0 -2.20013e-14)
(0 0 0)
(0 0 0)
(-4.69533e-16 0 1.81064e-14)
(-2.37451e-19 0 0)
(0 0 0)
(0 0 2.22332e-14)
(0 0 0)
(0 0 -1.76199e-15)
(0 0 0)
(0 0 -1.85473e-15)
(0 0 -1.53015e-15)
(0 0 0)
(0 0 1.84774e-14)
(0 0 1.20557e-15)
(0 0 1.75036e-14)
(0 0 -5.59877e-15)
(0 0 1.74227e-14)
(0 0 2.22332e-14)
(0 0 2.17931e-15)
(0 0 1.73182e-14)
(0 0 -7.59261e-15)
(0 0 0)
(0 0 0)
(0 0 0)
(0 0 0)
(0 0 0)
(0 0 0)
(0 0 0)
(0 0 0)
(0 0 0)
(0 0 0)
(0 0 0)
(0 0 0)
(0 0 0)
(0 0 0)
(0 0 0)
(0 0 0)
(0 0 0)
(0 0 0)
(0 0 0)
(0 0 0)
(0 0 0)
(0 0 1.52316e-14)
(0 0 0)
(0 0 -3.61672e-15)
(0 0 0)
(0 0 0)
(0 0 1.54171e-14)
(0 0 0)
(0 0 -3.57035e-15)
(0 0 0)
(0 0 0)
(-1.04361e-15 0 -1.66226e-14)
(-1.20794e-17 0 0)
(0 0 0)
(0 0 2.22332e-14)
(0 0 0)
(0 0 0)
(0 0 0)
(0 0 0)
(0 0 0)
(0 0 0)
(0 0 -2.22332e-14)
(0 0 -8.0217e-15)
(0 0 -2.22332e-14)
(0 0 -1.64026e-14)
(0 0 5.59877e-15)
(0 0 -2.22332e-14)
(0 0 -7.51168e-15)
(0 0 -2.22332e-14)
(0 0 -1.89529e-14)
(0 0 0)
(0 0 0)
(0 0 0)
(0 0 0)
(0 0 0)
(0 0 0)
(0 0 0)
(0 0 0)
(0 0 0)
(0 0 0)
(0 0 0)
(0 0 0)
(0 0 0)
(0 0 0)
(0 0 0)
(0 0 0)
(0 0 0)
(0 0 0)
(0 0 0)
(0 0 0)
(0 0 0)
(0 0 0)
(0 0 0)
(0 0 -1.70399e-14)
(0 0 0)
(0 0 0)
(0 0 0)
(0 0 0)
(0 0 -1.70399e-14)
(0 0 0)
(0 0 0)
(-2.21674e-15 0 0)
(-1.83506e-16 0 0)
(0 0 0)
(0 0 4.21951e-15)
(0 0 0)
(0 0 0)
(0 0 0)
(0 0 0)
(0 0 0)
(0 0 -2.08657e-15)
(0 0 -3.59582e-14)
(0 0 -1.65534e-14)
(0 0 -4.24497e-14)
(0 0 -1.18239e-14)
(0 0 -1.39139e-16)
(0 0 -3.34544e-14)
(0 0 -1.54407e-14)
(0 0 -4.30063e-14)
(0 0 -1.35396e-14)
(0 0 0)
(0 0 0)
(0 0 0)
(0 0 0)
(0 0 0)
(0 0 0)
(0 0 0)
(0 0 0)
(0 0 0)
(0 0 0)
(0 0 0)
(0 0 0)
(0 0 0)
(0 0 0)
(0 0 0)
(0 0 0)
(0 0 0)
(0 0 0)
(0 0 0)
(0 0 0)
(0 0 0)
(0 0 0)
(0 0 0)
(0 0 1.92656e-14)
(0 0 0)
(0 0 0)
(0 0 0)
(0 0 0)
(0 0 1.92656e-14)
(0 0 0)
(0 0 0)
(-7.06041e-15 0 0)
(-1.02721e-15 0 0)
(0 0 0)
(0 0 2.22332e-14)
(0 0 0)
(0 0 0)
(0 0 0)
(0 0 0)
(0 0 0)
(0 0 0)
(0 0 -7.51165e-15)
(0 0 -3.0603e-15)
(0 0 -1.40959e-14)
(0 0 -1.63098e-14)
(0 0 6.94345e-15)
(0 0 -3.75586e-15)
(0 0 -1.06654e-15)
(0 0 -1.46524e-14)
(0 0 -2.00193e-14)
(0 0 0)
(0 0 0)
(0 0 0)
(0 0 0)
(0 0 0)
(0 0 0)
(0 0 0)
(0 0 0)
(0 0 0)
(0 0 0)
(0 0 0)
(0 0 0)
(0 0 0)
(0 0 0)
(0 0 0)
(0 0 0)
(0 0 0)
(0 0 0)
(0 0 0)
(0 0 0)
(0 0 0)
(0 0 2.21404e-14)
(0 0 0)
(0 0 0)
(0 0 0)
(0 0 0)
(0 0 2.21404e-14)
(0 0 0)
(0 0 0)
(0 0 0)
(0 0 0)
(-1.05147e-14 0 -1.70402e-14)
(-2.46092e-15 0 0)
(0 0 0)
(0 0 2.22332e-14)
(0 0 0)
(0 0 0)
(0 0 0)
(0 0 0)
(0 0 0)
(0 0 0)
(0 0 -1.86165e-14)
(0 0 -3.52398e-15)
(0 0 -2.22332e-14)
(0 0 -1.66808e-14)
(0 0 6.98982e-15)
(0 0 -1.50461e-14)
(0 0 -1.9011e-15)
(0 0 -2.22332e-14)
(0 0 -2.02048e-14)
(0 0 0)
(0 0 0)
(0 0 0)
(0 0 0)
(0 0 0)
(0 0 0)
(0 0 0)
(0 0 0)
(0 0 0)
(0 0 0)
(0 0 0)
(0 0 0)
(0 0 0)
(0 0 0)
(0 0 0)
(0 0 0)
(0 0 0)
(0 0 0)
(0 0 0)
(0 0 0)
(0 0 0)
(0 0 5.28597e-15)
(0 0 0)
(0 0 -2.4598e-14)
(0 0 0)
(0 0 0)
(0 0 5.28597e-15)
(0 0 0)
(0 0 -2.4598e-14)
(0 0 0)
(0 0 0)
(-1.13085e-14 0 1.68546e-14)
(-3.08289e-15 0 0)
(0 0 0)
(0 0 2.22332e-14)
(0 0 0)
(0 0 0)
(0 0 0)
(0 0 0)
(0 0 0)
(0 0 0)
(0 0 1.97757e-14)
(0 0 2.13294e-15)
(0 0 1.72254e-14)
(0 0 -7.03619e-15)
(0 0 1.57534e-14)
(0 0 2.22332e-14)
(0 0 3.01393e-15)
(0 0 1.69472e-14)
(0 0 -1.06529e-14)
(0 0 0)
(0 0 0)
(0 0 0)
(0 0 0)
(0 0 0)
(0 0 0)
(0 0 0)
(0 0 0)
(0 0 0)
(0 0 0)
(0 0 0)
(0 0 0)
(0 0 0)
(0 0 0)
(0 0 0)
(0 0 0)
(0 0 0)
(0 0 0)
(0 0 0)
(0 0 0)
(0 0 0)
(0 0 2.21868e-14)
(0 0 0)
(0 0 0)
(0 0 0)
(0 0 0)
(0 0 2.21868e-14)
(0 0 0)
(0 0 0)
(0 0 0)
(0 0 0)
(-5.3157e-16 0 0)
(-1.78264e-17 0 0)
(0 0 0)
(0 0 2.22332e-14)
(0 0 0)
(0 0 0)
(0 0 0)
(0 0 0)
(0 0 0)
(0 0 0)
(0 0 0)
(0 0 0)
(0 0 0)
(0 0 -7.87082e-15)
(0 0 9.12276e-15)
(0 0 0)
(0 0 0)
(0 0 0)
(0 0 -1.15803e-14)
(0 0 0)
(0 0 0)
(0 0 0)
(0 0 0)
(0 0 0)
(0 0 0)
(0 0 0)
(0 0 0)
(0 0 0)
(0 0 0)
(0 0 0)
(0 0 0)
(0 0 0)
(0 0 0)
(0 0 0)
(0 0 0)
(0 0 0)
(0 0 0)
(0 0 0)
(0 0 0)
(0 0 0)
(0 0 2.21868e-14)
(0 0 0)
(0 0 0)
(0 0 0)
(0 0 0)
(0 0 2.21868e-14)
(0 0 0)
(0 0 0)
(0 0 0)
(0 0 0)
(-2.14379e-15 0 0)
(-1.84833e-16 0 0)
(0 0 0)
(0 0 4.21951e-15)
(0 0 0)
(0 0 0)
(0 0 0)
(0 0 0)
(0 0 0)
(0 0 0)
(0 0 -2.66382e-14)
(0 0 -7.78986e-15)
(0 0 -3.05331e-14)
(0 0 -5.65692e-15)
(0 0 0)
(0 0 -2.62672e-14)
(0 0 -8.1608e-15)
(0 0 -3.18778e-14)
(0 0 -7.92896e-15)
(0 0 0)
(0 0 0)
(0 0 0)
(0 0 0)
(0 0 0)
(0 0 0)
(0 0 0)
(0 0 0)
(0 0 0)
(0 0 0)
(0 0 0)
(0 0 0)
(0 0 0)
(0 0 0)
(0 0 0)
(0 0 0)
(0 0 0)
(0 0 0)
(0 0 0)
(0 0 0)
(0 0 0)
(0 0 4.21951e-15)
(0 0 0)
(0 0 2.22332e-14)
(0 0 0)
(0 0 0)
(0 0 4.21951e-15)
(0 0 0)
(0 0 2.22332e-14)
(0 0 0)
(0 0 0)
(-7.07938e-15 0 0)
(-1.02729e-15 0 0)
(0 0 0)
(0 0 2.22332e-14)
(0 0 0)
(0 0 0)
(0 0 0)
(0 0 0)
(0 0 0)
(0 0 0)
(0 0 -4.12677e-15)
(0 0 0)
(0 0 -9.73732e-15)
(0 0 -1.38987e-14)
(0 0 6.94345e-15)
(0 0 -1.66926e-15)
(0 0 0)
(0 0 -1.10356e-14)
(0 0 -1.77472e-14)
(0 0 0)
(0 0 0)
(0 0 0)
(0 0 0)
(0 0 0)
(0 0 0)
(0 0 0)
(0 0 0)
(0 0 0)
(0 0 0)
(0 0 0)
(0 0 0)
(0 0 0)
(0 0 0)
(0 0 0)
(0 0 0)
(0 0 0)
(0 0 0)
(0 0 0)
(0 0 0)
(0 0 0)
(0 0 2.21868e-14)
(0 0 0)
(0 0 0)
(0 0 0)
(0 0 0)
(0 0 2.21868e-14)
(0 0 0)
(0 0 0)
(0 0 0)
(0 0 0)
(-1.05164e-14 0 -1.70402e-14)
(-2.46073e-15 0 0)
(0 0 0)
(0 0 2.22332e-14)
(0 0 0)
(0 0 0)
(0 0 0)
(0 0 0)
(0 0 0)
(0 0 0)
(0 0 -1.75036e-14)
(0 0 -2.45751e-15)
(0 0 -2.22332e-14)
(0 0 -1.64953e-14)
(0 0 6.98982e-15)
(0 0 -1.50461e-14)
(0 0 -1.66926e-15)
(0 0 -2.22332e-14)
(0 0 -2.00657e-14)
(0 0 0)
(0 0 0)
(0 0 0)
(0 0 0)
(0 0 0)
(0 0 0)
(0 0 0)
(0 0 0)
(0 0 0)
(0 0 0)
(0 0 0)
(0 0 0)
(0 0 0)
(0 0 0)
(0 0 0)
(0 0 0)
(0 0 0)
(0 0 0)
(0 0 0)
(0 0 0)
(0 0 0)
(0 0 5.28597e-15)
(0 0 0)
(0 0 -2.48298e-14)
(0 0 0)
(0 0 0)
(0 0 5.28597e-15)
(0 0 0)
(0 0 -2.48298e-14)
(0 0 0)
(0 0 0)
(-1.13087e-14 0 1.68546e-14)
(-3.08277e-15 0 0)
(0 0 0)
(0 0 2.22332e-14)
(0 0 0)
(0 0 0)
(0 0 0)
(0 0 0)
(0 0 0)
(0 0 0)
(0 0 1.9822e-14)
(0 0 2.17931e-15)
(0 0 1.72254e-14)
(0 0 -7.03619e-15)
(0 0 1.57534e-14)
(0 0 2.22332e-14)
(0 0 3.01393e-15)
(0 0 1.69472e-14)
(0 0 -1.06529e-14)
(0 0 0)
(0 0 0)
(0 0 0)
(0 0 0)
(0 0 0)
(0 0 0)
(0 0 0)
(0 0 0)
(0 0 0)
(0 0 0)
(0 0 0)
(0 0 0)
(0 0 0)
(0 0 0)
(0 0 0)
(0 0 0)
(0 0 0)
(0 0 0)
(0 0 0)
(0 0 0)
(0 0 0)
(0 0 2.21868e-14)
(0 0 0)
(0 0 0)
(0 0 0)
(0 0 0)
(0 0 2.21868e-14)
(0 0 0)
(0 0 0)
(0 0 0)
(0 0 0)
(-5.32044e-16 0 0)
(-1.78865e-17 0 0)
(0 0 0)
(0 0 2.22332e-14)
(0 0 0)
(0 0 0)
(0 0 0)
(0 0 0)
(0 0 0)
(0 0 0)
(0 0 0)
(0 0 0)
(0 0 0)
(0 0 -7.87082e-15)
(0 0 9.12276e-15)
(0 0 0)
(0 0 0)
(0 0 0)
(0 0 -1.15803e-14)
(0 0 0)
(0 0 0)
(0 0 0)
(0 0 0)
(0 0 0)
(0 0 0)
(0 0 0)
(0 0 0)
(0 0 0)
(0 0 0)
(0 0 0)
(0 0 0)
(0 0 0)
(0 0 0)
(0 0 0)
(0 0 0)
(0 0 0)
(0 0 0)
(0 0 0)
(0 0 0)
(0 0 0)
(0 0 2.21868e-14)
(0 0 0)
(0 0 0)
(0 0 0)
(0 0 0)
(0 0 2.21868e-14)
(0 0 0)
(0 0 0)
(0 0 0)
(0 0 0)
(-2.143e-15 0 0)
(-1.855e-16 0 0)
(0 0 0)
(0 0 4.21951e-15)
(0 0 0)
(0 0 0)
(0 0 0)
(0 0 0)
(0 0 0)
(0 0 0)
(0 0 -2.66382e-14)
(0 0 -7.78986e-15)
(0 0 -3.05331e-14)
(0 0 -5.65692e-15)
(0 0 0)
(0 0 -2.62672e-14)
(0 0 -8.1608e-15)
(0 0 -3.18778e-14)
(0 0 -7.92896e-15)
(0 0 0)
(0 0 0)
(0 0 0)
(0 0 0)
(0 0 0)
(0 0 0)
(0 0 0)
(0 0 0)
(0 0 0)
(0 0 0)
(0 0 0)
(0 0 0)
(0 0 0)
(0 0 0)
(0 0 0)
(0 0 0)
(0 0 0)
(0 0 0)
(0 0 0)
(0 0 0)
(0 0 0)
(0 0 4.21951e-15)
(0 0 0)
(0 0 2.22332e-14)
(0 0 0)
(0 0 0)
(0 0 4.21951e-15)
(0 0 0)
(0 0 2.22332e-14)
(0 0 0)
(0 0 0)
(-7.05208e-15 0 0)
(-1.02883e-15 0 0)
(0 0 0)
(0 0 2.22332e-14)
(0 0 0)
(0 0 0)
(0 0 0)
(0 0 0)
(0 0 0)
(0 0 0)
(0 0 -4.12677e-15)
(0 0 0)
(0 0 -9.73732e-15)
(0 0 -1.38987e-14)
(0 0 6.94345e-15)
(0 0 -1.66926e-15)
(0 0 0)
(0 0 -1.10356e-14)
(0 0 -1.77472e-14)
(0 0 0)
(0 0 0)
(0 0 0)
(0 0 0)
(0 0 0)
(0 0 0)
(0 0 0)
(0 0 0)
(0 0 0)
(0 0 0)
(0 0 0)
(0 0 0)
(0 0 0)
(0 0 0)
(0 0 0)
(0 0 0)
(0 0 0)
(0 0 0)
(0 0 0)
(0 0 0)
(0 0 0)
(0 0 2.21868e-14)
(0 0 0)
(0 0 0)
(0 0 0)
(0 0 0)
(0 0 2.21868e-14)
(0 0 0)
(0 0 0)
(0 0 0)
(0 0 0)
(-1.04396e-14 0 -1.70402e-14)
(-2.45415e-15 0 0)
(0 0 0)
(0 0 2.22332e-14)
(0 0 0)
(0 0 0)
(0 0 0)
(0 0 0)
(0 0 0)
(0 0 0)
(0 0 -1.75036e-14)
(0 0 -2.45751e-15)
(0 0 -2.22332e-14)
(0 0 -1.64953e-14)
(0 0 6.98982e-15)
(0 0 -1.50461e-14)
(0 0 -1.66926e-15)
(0 0 -2.22332e-14)
(0 0 -2.00657e-14)
(0 0 0)
(0 0 0)
(0 0 0)
(0 0 0)
(0 0 0)
(0 0 0)
(0 0 0)
(0 0 0)
(0 0 0)
(0 0 0)
(0 0 0)
(0 0 0)
(0 0 0)
(0 0 0)
(0 0 0)
(0 0 0)
(0 0 0)
(0 0 0)
(0 0 0)
(0 0 0)
(0 0 0)
(0 0 5.28597e-15)
(0 0 0)
(0 0 -2.48298e-14)
(0 0 0)
(0 0 0)
(0 0 5.28597e-15)
(0 0 0)
(0 0 -2.48298e-14)
(0 0 0)
(0 0 0)
(-1.11121e-14 0 1.68546e-14)
(-3.05723e-15 0 0)
(0 0 0)
(0 0 2.22332e-14)
(0 0 0)
(0 0 0)
(0 0 0)
(0 0 0)
(0 0 0)
(0 0 0)
(0 0 1.9822e-14)
(0 0 2.17931e-15)
(0 0 1.72254e-14)
(0 0 -7.03619e-15)
(0 0 1.57534e-14)
(0 0 2.22332e-14)
(0 0 3.01393e-15)
(0 0 1.69472e-14)
(0 0 -1.06529e-14)
(0 0 0)
(0 0 0)
(0 0 0)
(0 0 0)
(0 0 0)
(0 0 0)
(0 0 0)
(0 0 0)
(0 0 0)
(0 0 0)
(0 0 0)
(0 0 0)
(0 0 0)
(0 0 0)
(0 0 0)
(0 0 0)
(0 0 0)
(0 0 0)
(0 0 0)
(0 0 0)
(0 0 0)
(0 0 2.21868e-14)
(0 0 0)
(0 0 0)
(0 0 0)
(0 0 0)
(0 0 2.21868e-14)
(0 0 0)
(0 0 0)
(0 0 0)
(0 0 0)
(-2.62629e-17 0 0)
(0 0 0)
(0 0 0)
(0 0 2.22332e-14)
(0 0 0)
(0 0 0)
(0 0 0)
(0 0 0)
(0 0 0)
(0 0 0)
(0 0 0)
(0 0 0)
(0 0 0)
(0 0 -7.82445e-15)
(0 0 9.12276e-15)
(0 0 0)
(0 0 0)
(0 0 0)
(0 0 -1.15803e-14)
(0 0 0)
(0 0 0)
(0 0 0)
(0 0 0)
(0 0 0)
(0 0 0)
(0 0 0)
(0 0 0)
(0 0 0)
(0 0 0)
(0 0 0)
(0 0 0)
(0 0 0)
(0 0 0)
(0 0 0)
(0 0 0)
(0 0 0)
(0 0 0)
(0 0 0)
(0 0 0)
(0 0 0)
(0 0 2.21868e-14)
(0 0 0)
(0 0 0)
(0 0 0)
(0 0 0)
(0 0 2.21868e-14)
(0 0 0)
(0 0 0)
(0 0 0)
(0 0 0)
(-9.76302e-18 0 0)
(0 0 0)
(0 0 0)
(0 0 4.21951e-15)
(0 0 0)
(0 0 0)
(0 0 0)
(0 0 0)
(0 0 0)
(0 0 0)
(0 0 -2.66845e-14)
(0 0 -7.78986e-15)
(0 0 -3.03476e-14)
(0 0 -5.51782e-15)
(0 0 0)
(0 0 -2.64991e-14)
(0 0 -8.20717e-15)
(0 0 -3.18314e-14)
(0 0 -7.83623e-15)
(0 0 0)
(0 0 0)
(0 0 0)
(0 0 0)
(0 0 0)
(0 0 0)
(0 0 0)
(0 0 0)
(0 0 0)
(0 0 0)
(0 0 0)
(0 0 0)
(0 0 0)
(0 0 0)
(0 0 0)
(0 0 0)
(0 0 0)
(0 0 0)
(0 0 0)
(0 0 0)
(0 0 0)
(0 0 4.12677e-15)
(0 0 0)
(0 0 2.22332e-14)
(0 0 0)
(0 0 0)
(0 0 4.12677e-15)
(0 0 0)
(0 0 2.22332e-14)
(0 0 0)
(0 0 0)
(-3.15736e-18 0 0)
(0 0 0)
(0 0 0)
(0 0 2.22332e-14)
(0 0 0)
(0 0 0)
(0 0 0)
(0 0 0)
(0 0 0)
(0 0 0)
(0 0 -4.31224e-15)
(0 0 0)
(0 0 -9.27364e-15)
(0 0 -1.42696e-14)
(0 0 6.94345e-15)
(0 0 -2.50388e-15)
(0 0 0)
(0 0 -1.10356e-14)
(0 0 -1.81182e-14)
(0 0 0)
(0 0 0)
(0 0 0)
(0 0 0)
(0 0 0)
(0 0 0)
(0 0 0)
(0 0 0)
(0 0 0)
(0 0 0)
(0 0 0)
(0 0 0)
(0 0 0)
(0 0 0)
(0 0 0)
(0 0 0)
(0 0 0)
(0 0 0)
(0 0 0)
(0 0 0)
(0 0 0)
(0 0 2.18622e-14)
(0 0 0)
(0 0 0)
(0 0 0)
(0 0 0)
(0 0 2.18622e-14)
(0 0 0)
(0 0 0)
(0 0 0)
(0 0 0)
(-1.70927e-18 0 -2.08421e-14)
(0 0 0)
(0 0 0)
(0 0 2.22332e-14)
(0 0 0)
(0 0 0)
(0 0 0)
(0 0 0)
(0 0 0)
(0 0 0)
(0 0 -2.22332e-14)
(0 0 -6.86249e-15)
(0 0 -2.42734e-14)
(0 0 -1.82109e-14)
(0 0 6.38703e-15)
(0 0 -2.22332e-14)
(0 0 -8.0217e-15)
(0 0 -2.58963e-14)
(0 0 -2.15031e-14)
(0 0 0)
(0 0 0)
(0 0 0)
(0 0 0)
(0 0 0)
(0 0 0)
(0 0 0)
(0 0 0)
(0 0 0)
(0 0 0)
(0 0 0)
(0 0 0)
(0 0 0)
(0 0 0)
(0 0 0)
(0 0 0)
(0 0 0)
(0 0 0)
(0 0 0)
(0 0 0)
(0 0 0)
(0 0 0)
(0 0 0)
(0 0 -1.91729e-14)
(0 0 0)
(0 0 0)
(0 0 0)
(0 0 0)
(0 0 -1.91729e-14)
(0 0 0)
(0 0 0)
(-6.67151e-22 0 0)
(0 0 0)
(0 0 0)
(0 0 0)
(0 0 0)
(0 0 0)
(0 0 0)
(0 0 0)
(0 0 0)
(0 0 0)
(0 0 -3.08577e-14)
(0 0 -8.53175e-15)
(0 0 -3.01158e-14)
(0 0 -1.85473e-16)
(0 0 -9.22727e-15)
(0 0 -3.99922e-14)
(0 0 -1.15457e-14)
(0 0 -3.15996e-14)
(0 0 -7.88259e-16)
(0 0 0)
(0 0 0)
(0 0 0)
(0 0 0)
(0 0 0)
(0 0 -1.9011e-15)
(0 0 -1.94746e-15)
(0 0 0)
(0 0 0)
(0 0 0)
(0 0 -1.99383e-15)
(0 0 -1.99383e-15)
(0 0 0)
(0 0 0)
(0 0 0)
(0 0 -1.94746e-15)
(0 0 -1.85473e-15)
(0 0 0)
(0 0 0)
(0 0 0)
(0 0 0)
(0 0 0)
(0 0 0)
(0 0 1.69472e-14)
(0 0 0)
(0 0 0)
(0 0 0)
(0 0 0)
(0 0 1.69472e-14)
(0 0 0)
(0 0 0)
(-3.50029e-22 0 0)
(0 0 0)
(0 0 0)
(0 0 0)
(0 0 -1.65763e-14)
(0 0 2.10276e-14)
(0 0 1.23685e-14)
(0 0 6.49155e-16)
(0 0 2.22332e-14)
(0 0 1.23685e-14)
(0 0 -3.52398e-15)
(0 0 7.36077e-15)
(0 0 0)
(0 0 2.22214e-14)
(0 0 -3.02549e-14)
(0 0 -1.73417e-14)
(0 0 8.14903e-15)
(0 0 0)
(0 0 2.22214e-14)
(0 0 -1.59735e-14)
(0 0 0)
(0 0 0)
(0 0 -2.29751e-14)
(0 0 -8.67085e-15)
(0 0 -3.32688e-14)
(0 0 -3.34543e-14)
(0 0 -8.20717e-15)
(0 0 -2.52471e-14)
(0 0 -9.45911e-15)
(0 0 -3.35934e-14)
(0 0 -3.3547e-14)
(0 0 -8.25354e-15)
(0 0 -2.52471e-14)
(0 0 -9.41274e-15)
(0 0 -3.35007e-14)
(0 0 -3.31297e-14)
(0 0 -7.32618e-15)
(0 0 -2.26505e-14)
(0 0 0)
(0 0 0)
(0 0 0)
(0 0 0)
(0 0 2.78209e-15)
(0 0 0)
(0 0 0)
(0 0 0)
(0 0 0)
(0 0 2.68936e-15)
(0 0 0)
(0 0 0)
(-6.48035e-22 0 0)
(0 0 0)
(0 0 0)
(0 0 0)
(0 0 0)
(0 0 0)
(0 0 0)
(0 0 0)
(0 0 0)
(0 0 0)
(0 0 -2.45052e-14)
(0 0 -2.82846e-15)
(0 0 -2.18159e-14)
(0 0 0)
(0 0 -9.41278e-15)
(0 0 -3.49845e-14)
(0 0 -6.81623e-15)
(0 0 -2.32997e-14)
(0 0 0)
(0 0 0)
(0 0 0)
(0 0 0)
(0 0 0)
(0 0 0)
(0 0 -2.08657e-15)
(0 0 -2.68936e-15)
(0 0 -1.85473e-15)
(0 0 0)
(0 0 0)
(0 0 -2.17931e-15)
(0 0 -2.73572e-15)
(0 0 -1.9011e-15)
(0 0 0)
(0 0 0)
(0 0 -2.08657e-15)
(0 0 -2.50388e-15)
(0 0 -1.53015e-15)
(0 0 0)
(0 0 0)
(0 0 0)
(0 0 0)
(0 0 0)
(0 0 2.18159e-14)
(0 0 0)
(0 0 -1.25194e-15)
(0 0 0)
(0 0 0)
(0 0 2.14913e-14)
(0 0 0)
(0 0 0)
(-5.22274e-22 0 0)
(0 0 0)
(0 0 0)
(0 0 0)
(0 0 0)
(0 0 0)
(0 0 0)
(0 0 -2.09812e-14)
(0 0 0)
(0 0 0)
(0 0 -8.43901e-15)
(0 0 0)
(0 0 -1.20557e-15)
(0 0 2.21868e-14)
(0 0 0)
(0 0 -1.62753e-14)
(0 0 -4.77624e-15)
(0 0 -3.10684e-15)
(0 0 2.16768e-14)
(0 0 3.47762e-15)
(0 0 1.70399e-14)
(0 0 -1.91265e-14)
(0 0 0)
(0 0 2.21868e-14)
(0 0 0)
(0 0 0)
(0 0 -2.41806e-14)
(0 0 0)
(0 0 2.21868e-14)
(0 0 0)
(0 0 0)
(0 0 -2.41806e-14)
(0 0 0)
(0 0 2.21868e-14)
(0 0 0)
(0 0 0)
(0 0 -2.38561e-14)
(0 0 0)
(0 0 1.92656e-14)
(0 0 -1.69472e-14)
(0 0 -2.68936e-15)
(0 0 -2.14913e-14)
(0 0 0)
(0 0 -2.86784e-14)
(0 0 -3.15068e-14)
(0 0 -6.58428e-15)
(0 0 -2.2465e-14)
(0 0 0)
(0 0 -2.7751e-14)
(0 0 0)
(-2.95309e-22 0 0)
(0 0 0)
(0 0 0)
(0 0 0)
(0 0 0)
(0 0 0)
(0 0 0)
(0 0 0)
(0 0 0)
(0 0 -2.9212e-15)
(0 0 -3.69783e-14)
(0 0 -1.39105e-14)
(0 0 -3.28051e-14)
(0 0 0)
(0 0 -6.86325e-15)
(0 0 -4.50017e-14)
(0 0 -1.89654e-14)
(0 0 -3.50775e-14)
(0 0 0)
(0 0 0)
(0 0 0)
(0 0 0)
(0 0 0)
(0 0 0)
(0 0 0)
(0 0 0)
(0 0 0)
(0 0 0)
(0 0 0)
(0 0 0)
(0 0 0)
(0 0 0)
(0 0 0)
(0 0 0)
(0 0 0)
(0 0 0)
(0 0 0)
(0 0 0)
(0 0 0)
(0 0 0)
(0 0 0)
(0 0 0)
(0 0 2.22332e-14)
(0 0 0)
(0 0 -1.25194e-15)
(0 0 0)
(0 0 0)
(0 0 2.22332e-14)
(0 0 0)
(0 0 0)
(-9.90083e-23 0 0)
(0 0 0)
(0 0 0)
(0 0 0)
(0 0 0)
(0 0 0)
(0 0 0)
(0 0 0)
(0 0 0)
(0 0 0)
(0 0 -3.38252e-14)
(0 0 -1.11284e-14)
(0 0 -3.1785e-14)
(0 0 0)
(0 0 -1.59987e-14)
(0 0 -4.87603e-14)
(0 0 -1.64158e-14)
(0 0 -3.36866e-14)
(0 0 0)
(0 0 0)
(0 0 0)
(0 0 0)
(0 0 0)
(0 0 0)
(0 0 -1.9011e-15)
(0 0 -1.94746e-15)
(0 0 0)
(0 0 0)
(0 0 0)
(0 0 -1.99383e-15)
(0 0 -1.99383e-15)
(0 0 0)
(0 0 0)
(0 0 0)
(0 0 -1.94746e-15)
(0 0 -1.85473e-15)
(0 0 0)
(0 0 0)
(0 0 0)
(0 0 0)
(0 0 0)
(0 0 0)
(0 0 2.22332e-14)
(0 0 0)
(0 0 0)
(0 0 0)
(0 0 0)
(0 0 2.22332e-14)
(0 0 0)
(0 0 0)
(-1.34356e-23 0 0)
(0 0 0)
(0 0 0)
(0 0 0)
(0 0 -1.65763e-14)
(0 0 2.10276e-14)
(0 0 1.23685e-14)
(0 0 6.49155e-16)
(0 0 2.22332e-14)
(0 0 1.23685e-14)
(0 0 -3.89493e-15)
(0 0 7.3144e-15)
(0 0 0)
(0 0 2.22214e-14)
(0 0 -3.2157e-14)
(0 0 -2.03108e-14)
(0 0 8.14903e-15)
(0 0 0)
(0 0 2.22214e-14)
(0 0 -1.59735e-14)
(0 0 0)
(0 0 0)
(0 0 -2.29751e-14)
(0 0 -8.67085e-15)
(0 0 -3.32688e-14)
(0 0 -3.34543e-14)
(0 0 -8.20717e-15)
(0 0 -2.52471e-14)
(0 0 -9.45911e-15)
(0 0 -3.35934e-14)
(0 0 -3.3547e-14)
(0 0 -8.25354e-15)
(0 0 -2.52471e-14)
(0 0 -9.41274e-15)
(0 0 -3.35007e-14)
(0 0 -3.31297e-14)
(0 0 -7.32618e-15)
(0 0 -2.26505e-14)
(0 0 0)
(0 0 0)
(0 0 0)
(0 0 0)
(0 0 4.17314e-15)
(0 0 0)
(0 0 0)
(0 0 0)
(0 0 0)
(0 0 4.12677e-15)
(0 0 0)
(0 0 0)
(-2.34116e-36 0 0)
(0 0 0)
(0 0 0)
(0 0 0)
(0 0 0)
(0 0 0)
(0 0 0)
(0 0 0)
(0 0 0)
(0 0 0)
(0 0 -2.46443e-14)
(0 0 -2.87483e-15)
(0 0 -2.18622e-14)
(0 0 0)
(0 0 -1.01551e-14)
(0 0 -3.61907e-14)
(0 0 -7.09461e-15)
(0 0 -2.33461e-14)
(0 0 0)
(0 0 0)
(0 0 0)
(0 0 0)
(0 0 0)
(0 0 0)