/*--------------------------------*- C++ -*----------------------------------*\
  =========                 |
  \\      /  F ield         | OpenFOAM: The Open Source CFD Toolbox
   \\    /   O peration     | Website:  https://openfoam.org
    \\  /    A nd           | Version:  9
     \\/     M anipulation  |
\*---------------------------------------------------------------------------*/
FoamFile
{
    format      ascii;
    class       volScalarField;
    location    "0.007";
    object      alpha.C4;
}
// * * * * * * * * * * * * * * * * * * * * * * * * * * * * * * * * * * * * * //

dimensions      [0 0 0 0 0 0 0];

internalField   nonuniform List<scalar> 
9720
(
0.999954
0.999962
0.999964
0.999965
0.999965
0.999965
0.999966
0.999966
0.999968
0.999968
0.999968
0.999966
0.999964
0.999962
0.99996
0.999959
0.999956
0.999953
0.999949
0.999937
0.999962
0.999965
0.999964
0.999962
0.999961
0.999962
0.999963
0.999964
0.999966
0.999964
0.999957
0.999944
0.999927
0.999917
0.999918
0.999923
0.999931
0.999939
0.999942
0.999938
0.999964
0.999965
0.99996
0.999956
0.999954
0.999955
0.999957
0.999958
0.999956
0.999913
0.999853
0.999795
0.999743
0.999729
0.999735
0.999751
0.999782
0.999821
0.999861
0.999899
0.999966
0.999964
0.999958
0.99993
0.999926
0.999926
0.999929
0.99993
0.999925
0.999665
0.999571
0.99951
0.999467
0.999459
0.999464
0.999479
0.999511
0.999563
0.999632
0.999745
0.999968
0.999965
0.999958
0.999932
0.999533
0.999267
0.999255
0.999244
0.999239
0.999239
0.999242
0.999248
0.999262
0.99929
0.999341
0.999473
0.999969
0.999966
0.99996
0.999934
0.99926
0.999105
0.999096
0.999087
0.99908
0.999073
0.999067
0.999065
0.999066
0.999073
0.999093
0.999178
0.99997
0.999968
0.999962
0.999937
0.999089
0.99891
0.998903
0.998897
0.998891
0.998884
0.998878
0.998872
0.998869
0.998869
0.998872
0.99891
0.999971
0.999969
0.999964
0.99994
0.998906
0.998709
0.998702
0.998701
0.998697
0.99869
0.998684
0.99868
0.998677
0.998672
0.998663
0.99867
0.999972
0.999971
0.999962
0.999934
0.999663
0.999507
0.999397
0.999278
0.998874
0.998666
0.998606
0.998554
0.998523
0.998514
0.99851
0.998504
0.998493
0.998478
0.99846
0.998442
0.999972
0.999969
0.999927
0.999744
0.999479
0.999367
0.999233
0.999107
0.998902
0.99871
0.998581
0.998489
0.998434
0.9984
0.998371
0.998339
0.998305
0.998277
0.998256
0.998222
0.999972
0.999963
0.99988
0.999676
0.999463
0.999352
0.99922
0.999098
0.998938
0.998744
0.998589
0.99848
0.998397
0.998323
0.998246
0.998173
0.998118
0.998081
0.998056
0.998003
0.999971
0.999952
0.999835
0.999631
0.99945
0.999337
0.999207
0.999087
0.998937
0.998763
0.998611
0.998485
0.99837
0.998252
0.998133
0.998032
0.997962
0.997908
0.997867
0.997777
0.99997
0.999938
0.999795
0.999597
0.999439
0.999325
0.999195
0.999073
0.998931
0.998782
0.998634
0.998485
0.998337
0.998192
0.998058
0.997942
0.997847
0.997762
0.997688
0.997541
0.999968
0.999931
0.999785
0.999586
0.999431
0.999314
0.999183
0.999059
0.998925
0.998784
0.998633
0.99847
0.998302
0.998149
0.998012
0.997883
0.997759
0.997626
0.997504
0.997286
0.999967
0.999932
0.999789
0.999589
0.99943
0.999304
0.999171
0.999045
0.998917
0.998779
0.998621
0.998445
0.998274
0.998118
0.997973
0.997826
0.997665
0.997477
0.997302
0.997017
0.999966
0.999937
0.999803
0.9996
0.999431
0.999295
0.999161
0.999033
0.998906
0.998765
0.998599
0.998422
0.998251
0.998086
0.997921
0.997743
0.997537
0.997294
0.99708
0.996738
0.999965
0.999945
0.999827
0.999623
0.999439
0.999293
0.999152
0.999019
0.998889
0.998743
0.998578
0.998406
0.99823
0.998046
0.997845
0.997617
0.997362
0.997083
0.996847
0.996449
0.999962
0.999951
0.999859
0.999662
0.999458
0.999295
0.999143
0.999004
0.998868
0.99872
0.998559
0.998386
0.9982
0.997985
0.997733
0.997449
0.997156
0.996856
0.996597
0.996111
0.999959
0.999954
0.999891
0.999715
0.999494
0.999307
0.999142
0.998984
0.998845
0.998699
0.99854
0.998364
0.998161
0.997916
0.997628
0.997314
0.996995
0.996664
0.996361
0.995745
0.999948
0.99995
0.99992
0.999801
0.999593
0.999368
0.999165
0.998984
0.998817
0.998658
0.998488
0.998292
0.998058
0.99778
0.997466
0.997122
0.996749
0.996316
0.995873
0.994917
0.999968
0.999976
0.99998
0.999982
0.999983
0.999983
0.999984
0.999984
0.999985
0.999983
0.999982
0.999979
0.999976
0.999973
0.999971
0.99997
0.999968
0.999966
0.999963
0.999953
0.999976
0.999983
0.999986
0.999988
0.999988
0.999988
0.999988
0.999989
0.999987
0.999982
0.999969
0.999949
0.999925
0.999909
0.99991
0.999917
0.999928
0.99994
0.999949
0.99995
0.99998
0.999986
0.99999
0.999993
0.999992
0.999992
0.999993
0.999993
0.999986
0.99992
0.999836
0.99976
0.999693
0.999671
0.999677
0.999696
0.999733
0.999783
0.999834
0.999889
0.999983
0.999988
0.999993
0.999996
0.999997
0.999996
0.999997
0.999997
0.999988
0.999589
0.999473
0.999399
0.999346
0.999334
0.99934
0.999359
0.999395
0.999456
0.99954
0.999683
0.999985
0.999989
0.999993
0.999997
0.999397
0.999088
0.99908
0.999072
0.999069
0.99907
0.999073
0.99908
0.999095
0.999125
0.999183
0.99934
0.999985
0.999989
0.999993
0.999997
0.999036
0.998892
0.998889
0.998886
0.998881
0.998876
0.998871
0.998866
0.998866
0.998873
0.998892
0.998988
0.999986
0.99999
0.999994
0.999997
0.998821
0.998655
0.998659
0.998662
0.998661
0.998657
0.998649
0.998643
0.998638
0.998636
0.998638
0.998676
0.999986
0.99999
0.999994
0.999997
0.998593
0.998419
0.998429
0.998441
0.99844
0.998431
0.998424
0.998423
0.998421
0.998415
0.998398
0.998402
0.999987
0.999989
0.999987
0.999985
0.999481
0.999225
0.999053
0.998869
0.998438
0.998305
0.998285
0.998233
0.998205
0.99821
0.998227
0.998229
0.998219
0.998194
0.998165
0.998145
0.999986
0.999984
0.999928
0.999631
0.99921
0.999045
0.998847
0.998654
0.998438
0.998298
0.998142
0.998078
0.998086
0.998096
0.998088
0.998048
0.997992
0.997958
0.997942
0.997912
0.999985
0.999973
0.999855
0.99954
0.999211
0.999051
0.99886
0.998678
0.9985
0.998286
0.99813
0.998095
0.998069
0.998014
0.99792
0.997812
0.997761
0.997748
0.997735
0.997682
0.999983
0.999955
0.999789
0.999482
0.999212
0.999055
0.998872
0.998699
0.998506
0.998289
0.998183
0.998123
0.998024
0.997867
0.997691
0.99761
0.997591
0.997571
0.997536
0.997425
0.99998
0.999933
0.999732
0.999442
0.999215
0.999058
0.99888
0.998706
0.998506
0.998328
0.998232
0.998108
0.997915
0.997691
0.997577
0.997533
0.997488
0.997418
0.997327
0.997141
0.999977
0.99992
0.999715
0.999436
0.999219
0.999059
0.998881
0.998706
0.998518
0.998377
0.998232
0.998037
0.997793
0.997638
0.997565
0.997494
0.997393
0.997243
0.997088
0.996841
0.999976
0.999921
0.999721
0.999443
0.999225
0.99906
0.998881
0.998709
0.998544
0.998385
0.998197
0.997953
0.997767
0.997646
0.997549
0.997429
0.997255
0.997024
0.996827
0.996544
0.999975
0.999927
0.999739
0.999461
0.999234
0.99906
0.998881
0.998711
0.998548
0.99837
0.998146
0.997936
0.997776
0.997642
0.997494
0.997301
0.997052
0.996779
0.996576
0.996263
0.999974
0.999938
0.999772
0.999494
0.999251
0.999063
0.99888
0.998709
0.998539
0.998341
0.998135
0.997946
0.997778
0.997602
0.997373
0.997094
0.996809
0.996547
0.996348
0.995981
0.999973
0.99995
0.999817
0.999548
0.99928
0.999072
0.998881
0.998701
0.99852
0.998328
0.99814
0.997949
0.997754
0.997507
0.997188
0.996861
0.996584
0.996328
0.996102
0.995631
0.99997
0.999958
0.999861
0.999621
0.999331
0.999091
0.998883
0.998685
0.9985
0.998321
0.998137
0.997935
0.997699
0.997397
0.997052
0.996727
0.996439
0.99614
0.995849
0.99523
0.999962
0.999959
0.999909
0.999741
0.999465
0.999177
0.998919
0.998693
0.998486
0.998299
0.998098
0.997858
0.997567
0.997238
0.9969
0.996558
0.996198
0.995764
0.995306
0.994328
0.999989
0.999994
0.999996
0.999997
0.999998
0.999998
0.999998
0.999998
0.999997
0.999997
0.999995
0.999992
0.999988
0.999984
0.999982
0.999982
0.999983
0.999983
0.999983
0.999978
0.999994
0.999997
0.999999
0.999999
0.999999
0.999999
0.999999
0.999999
0.999998
0.999989
0.999968
0.999937
0.9999
0.999873
0.999874
0.999884
0.999903
0.999927
0.999948
0.999963
0.999996
0.999999
1
1
1
1
1
1
0.999988
0.999887
0.999767
0.999655
0.999557
0.999511
0.999516
0.999541
0.999592
0.999667
0.999746
0.999846
0.999997
0.999999
1
1
1
1
1
1
0.999986
0.999403
0.999244
0.99914
0.999063
0.999031
0.999037
0.999059
0.999103
0.999179
0.999293
0.999506
0.999998
0.999999
1
1
0.999236
0.998729
0.998708
0.998692
0.998678
0.998675
0.998677
0.998682
0.998698
0.99873
0.998797
0.999002
0.999998
0.999999
1
1
0.998812
0.998467
0.998454
0.998442
0.998431
0.998422
0.998414
0.998403
0.9984
0.998404
0.998422
0.998531
0.999998
0.999999
1
1
0.99854
0.998158
0.998152
0.998148
0.998145
0.998137
0.998125
0.998113
0.998104
0.998096
0.998096
0.998132
0.999998
0.999999
1
1
0.99826
0.997854
0.997857
0.997867
0.997866
0.997851
0.997831
0.997827
0.997825
0.997818
0.99779
0.997786
0.999998
0.999998
0.999992
0.999989
0.9993
0.998916
0.998677
0.998427
0.997951
0.997704
0.997684
0.997619
0.997556
0.997555
0.99758
0.997593
0.997582
0.997546
0.997499
0.997468
0.999997
0.999992
0.999909
0.9995
0.998895
0.998665
0.998396
0.998141
0.997863
0.997706
0.997498
0.997377
0.997387
0.997427
0.997431
0.997393
0.997309
0.997252
0.997233
0.9972
0.999996
0.999975
0.999807
0.99936
0.998885
0.99866
0.998399
0.998154
0.997924
0.997663
0.997424
0.997393
0.997391
0.997354
0.997252
0.997101
0.997016
0.997011
0.997006
0.996946
0.999994
0.999948
0.999709
0.99927
0.998877
0.998656
0.998403
0.99817
0.997924
0.99764
0.99748
0.997443
0.997356
0.997169
0.99692
0.996816
0.996821
0.996822
0.99679
0.996644
0.99999
0.999914
0.999623
0.999205
0.998875
0.998655
0.998408
0.998174
0.997914
0.997664
0.997556
0.997434
0.997206
0.996881
0.996728
0.996726
0.996713
0.996646
0.99653
0.996292
0.999986
0.999888
0.999579
0.99918
0.998877
0.998654
0.998409
0.99817
0.997916
0.997721
0.997563
0.997343
0.997008
0.9968
0.996742
0.996692
0.99659
0.996403
0.996207
0.995924
0.999985
0.999888
0.999583
0.999185
0.998882
0.998654
0.998408
0.998168
0.997938
0.997738
0.997523
0.997211
0.996951
0.996824
0.99674
0.996612
0.996392
0.996095
0.995871
0.995579
0.999985
0.999897
0.999604
0.999204
0.998891
0.998654
0.998405
0.998169
0.997946
0.997721
0.997442
0.997161
0.996967
0.996826
0.996672
0.996432
0.996109
0.995791
0.99559
0.995268
0.999986
0.999914
0.999646
0.999243
0.99891
0.998656
0.998404
0.998169
0.997939
0.99768
0.997407
0.99717
0.996973
0.996773
0.996498
0.996148
0.995812
0.995548
0.995352
0.994955
0.999986
0.999936
0.999712
0.999309
0.998942
0.998663
0.998404
0.998162
0.997918
0.997656
0.99741
0.997173
0.996938
0.996634
0.996242
0.995857
0.995569
0.995317
0.99508
0.994559
0.999986
0.999955
0.999782
0.999408
0.999001
0.998684
0.998406
0.998144
0.997891
0.997646
0.997407
0.997153
0.996856
0.996481
0.996063
0.995696
0.995395
0.995085
0.994776
0.994113
0.999982
0.999969
0.99987
0.999588
0.999176
0.998784
0.998444
0.998147
0.997872
0.997621
0.99736
0.997048
0.996678
0.99627
0.995864
0.995472
0.995072
0.994598
0.994117
0.993119
0.999998
0.999999
1
1
1
1
1
1
1
0.999999
0.999998
0.999994
0.999989
0.999983
0.999983
0.999984
0.999986
0.99999
0.999992
0.999991
0.999999
1
1
1
1
1
1
1
0.999998
0.999985
0.999956
0.999911
0.999854
0.999813
0.999814
0.999827
0.999856
0.999895
0.99993
0.999963
1
1
1
1
1
1
1
1
0.999984
0.99984
0.99967
0.99951
0.999372
0.999294
0.999298
0.999328
0.999394
0.999499
0.999616
0.999776
1
1
1
1
1
1
1
1
0.999962
0.999157
0.998934
0.99879
0.998688
0.998637
0.998641
0.998667
0.998721
0.998818
0.998965
0.999269
1
1
1
1
0.998681
0.9982
0.998183
0.998168
0.998159
0.99816
0.998166
0.998176
0.998198
0.998237
0.998315
0.998575
1
1
1
1
0.998199
0.997855
0.997847
0.997839
0.997833
0.997829
0.997825
0.997819
0.997819
0.997824
0.997845
0.997971
1
1
1
1
0.99784
0.997462
0.997459
0.99746
0.997461
0.997459
0.997453
0.997444
0.997436
0.997432
0.997432
0.997472
1
1
1
1
0.997482
0.997079
0.997081
0.997095
0.997102
0.997096
0.99708
0.997074
0.997071
0.997066
0.997045
0.997039
1
0.999999
0.999988
0.999974
0.998989
0.998528
0.998219
0.997901
0.9972
0.996933
0.996891
0.996821
0.996744
0.996733
0.99675
0.996766
0.996761
0.996733
0.996689
0.996644
0.999999
0.999988
0.999876
0.999343
0.998581
0.998297
0.997968
0.997666
0.997246
0.997008
0.996782
0.996574
0.996542
0.996562
0.996565
0.996532
0.996458
0.99639
0.996356
0.996306
0.999998
0.999965
0.999741
0.999164
0.998563
0.998285
0.997966
0.997676
0.997334
0.997013
0.996715
0.996578
0.99654
0.996486
0.996386
0.996247
0.996135
0.996097
0.996076
0.995998
0.999996
0.999929
0.999613
0.999046
0.998548
0.998274
0.997964
0.997682
0.997367
0.997011
0.996743
0.996635
0.996517
0.996331
0.996099
0.995935
0.995892
0.995869
0.995818
0.995655
0.999991
0.999882
0.9995
0.998961
0.998534
0.998264
0.997961
0.99768
0.997365
0.997028
0.996819
0.996644
0.996401
0.996078
0.99585
0.99578
0.995737
0.995647
0.995521
0.995265
0.999986
0.999844
0.999428
0.998911
0.998531
0.998257
0.997956
0.997673
0.997365
0.997081
0.99685
0.996591
0.996234
0.995947
0.995814
0.995712
0.995576
0.99537
0.995166
0.994851
0.999985
0.999844
0.999429
0.998912
0.998532
0.99825
0.997949
0.997661
0.997373
0.997103
0.996833
0.996498
0.996157
0.995945
0.995795
0.995613
0.99536
0.995048
0.994802
0.994452
0.999986
0.999854
0.99945
0.998928
0.998538
0.998242
0.99794
0.997652
0.997373
0.997093
0.996784
0.996436
0.996149
0.995932
0.995715
0.995433
0.995089
0.994739
0.994493
0.994087
0.999988
0.999877
0.9995
0.998968
0.998553
0.998241
0.997932
0.997643
0.997362
0.997063
0.996735
0.996418
0.996141
0.99587
0.995552
0.995178
0.994806
0.994483
0.994227
0.993724
0.999991
0.99991
0.999583
0.999041
0.998581
0.998244
0.997923
0.997631
0.99734
0.997027
0.99671
0.996403
0.996096
0.99574
0.995321
0.994895
0.994541
0.994221
0.993921
0.993291
0.999993
0.99994
0.999678
0.999156
0.998639
0.998258
0.997921
0.997607
0.99731
0.997002
0.99669
0.99637
0.996015
0.995594
0.995129
0.994692
0.994319
0.993945
0.993585
0.99283
0.999992
0.999968
0.99981
0.999396
0.998841
0.998354
0.997949
0.997597
0.997269
0.996951
0.996624
0.996255
0.995829
0.995352
0.994857
0.994372
0.993893
0.99336
0.992844
0.991787
1
1
1
1
1
1
1
1
1
0.999999
0.999998
0.999994
0.999987
0.999981
0.99998
0.999982
0.999985
0.99999
0.999993
0.999994
1
1
1
1
1
1
1
1
0.999998
0.999982
0.999947
0.999892
0.999823
0.999773
0.999775
0.999791
0.999825
0.999873
0.999917
0.99996
1
1
1
1
1
1
1
1
0.99998
0.999808
0.999607
0.999418
0.999252
0.999156
0.99916
0.999194
0.99927
0.999394
0.999536
0.999733
1
1
1
1
1
1
1
1
0.999962
0.998987
0.998728
0.99856
0.998442
0.99838
0.998384
0.998411
0.998474
0.998586
0.998757
0.999122
1
1
1
1
0.998432
0.997837
0.997823
0.99781
0.997809
0.997813
0.997823
0.99784
0.997869
0.997915
0.998002
0.998303
1
1
1
1
0.99771
0.99742
0.997417
0.997414
0.997415
0.997416
0.997418
0.99742
0.997425
0.997436
0.997461
0.997605
1
1
1
1
0.997261
0.996939
0.996945
0.996954
0.996965
0.996974
0.996977
0.996977
0.996976
0.996977
0.996981
0.99703
1
1
1
1
0.996815
0.99648
0.996489
0.996508
0.99653
0.996542
0.996545
0.996545
0.996543
0.99654
0.996529
0.996532
1
0.999998
0.999983
0.999968
0.998789
0.998243
0.997889
0.997527
0.996664
0.996307
0.996234
0.996172
0.99614
0.996139
0.996148
0.996159
0.996157
0.996146
0.996122
0.996081
0.999999
0.999984
0.999841
0.999187
0.998289
0.997964
0.997593
0.997257
0.996753
0.9964
0.99618
0.995998
0.9959
0.995877
0.995867
0.995849
0.995817
0.995774
0.995735
0.99567
0.999998
0.999954
0.999676
0.998978
0.998272
0.997954
0.997595
0.99727
0.996845
0.996473
0.99618
0.995959
0.995827
0.995737
0.995657
0.995574
0.995494
0.995429
0.995382
0.995288
0.999995
0.999908
0.99952
0.998841
0.998257
0.997946
0.997596
0.997279
0.996903
0.996517
0.996192
0.995963
0.995782
0.995612
0.995449
0.995304
0.995202
0.995124
0.995058
0.99491
0.999989
0.999851
0.999386
0.998743
0.998245
0.997939
0.997597
0.997283
0.996932
0.996555
0.99623
0.995972
0.995722
0.995467
0.995245
0.99508
0.99496
0.994847
0.99474
0.994513
0.999983
0.999805
0.999301
0.998687
0.998246
0.997935
0.997596
0.997282
0.996947
0.996595
0.996279
0.995972
0.995647
0.995342
0.995105
0.994918
0.994752
0.994575
0.994406
0.994084
0.999982
0.999805
0.999302
0.998688
0.998249
0.99793
0.997594
0.997278
0.996955
0.996629
0.996299
0.995955
0.995598
0.995279
0.995018
0.994784
0.994556
0.9943
0.994059
0.99364
0.999983
0.999817
0.999326
0.998707
0.998259
0.997928
0.99759
0.997271
0.996954
0.99663
0.996292
0.995928
0.995563
0.995231
0.994931
0.994646
0.994353
0.994025
0.993725
0.993217
0.999986
0.999844
0.999384
0.998754
0.998278
0.997929
0.997584
0.997262
0.996948
0.996621
0.996272
0.9959
0.995532
0.995177
0.994831
0.994484
0.99413
0.993751
0.993415
0.992815
0.99999
0.999885
0.999482
0.998838
0.998312
0.997934
0.997579
0.997252
0.996934
0.996599
0.99624
0.995868
0.99549
0.9951
0.994693
0.994273
0.993863
0.993449
0.993084
0.992377
0.999993
0.999925
0.999598
0.998969
0.998375
0.997951
0.997579
0.997235
0.996913
0.996572
0.996211
0.995834
0.995437
0.995006
0.994537
0.994059
0.993608
0.993162
0.99276
0.991932
0.999994
0.999963
0.999764
0.999256
0.998602
0.998054
0.997608
0.997226
0.996872
0.996515
0.99614
0.995737
0.995291
0.994788
0.994243
0.993687
0.993146
0.992575
0.992033
0.990893
1
1
1
1
1
1
1
1
1
0.999999
0.999997
0.999993
0.999987
0.99998
0.99998
0.999982
0.999985
0.99999
0.999993
0.999994
1
1
1
1
1
1
1
1
0.999997
0.999981
0.999944
0.999888
0.999816
0.999767
0.99977
0.999788
0.999823
0.999873
0.999918
0.999961
1
1
1
1
1
1
1
1
0.999979
0.9998
0.999593
0.999397
0.999224
0.99913
0.999135
0.999172
0.999252
0.999382
0.999529
0.999731
1
1
1
1
1
1
1
1
0.999956
0.99895
0.998683
0.998508
0.998385
0.998323
0.998328
0.998358
0.998425
0.998543
0.998721
0.999101
1
1
1
1
0.998322
0.997761
0.997745
0.99773
0.997728
0.997732
0.997742
0.997761
0.997791
0.99784
0.997931
0.998248
1
1
1
1
0.997504
0.997323
0.997319
0.997315
0.997315
0.997316
0.997317
0.99732
0.997325
0.997337
0.997364
0.997515
1
1
1
1
0.996997
0.996813
0.996821
0.996831
0.996841
0.99685
0.996855
0.996855
0.996855
0.996856
0.99686
0.996913
1
1
1
1
0.996485
0.996327
0.996339
0.99636
0.996382
0.996397
0.996404
0.996404
0.996401
0.996397
0.996386
0.996391
1
0.999998
0.999983
0.999977
0.998663
0.997937
0.997545
0.997151
0.996291
0.996082
0.99601
0.995965
0.995964
0.995967
0.995978
0.995988
0.995986
0.995977
0.995957
0.995919
0.999999
0.999983
0.999829
0.999122
0.998133
0.997788
0.997395
0.997039
0.996512
0.996164
0.995958
0.995793
0.995691
0.995657
0.99565
0.99564
0.995619
0.995585
0.995549
0.995482
0.999998
0.999951
0.999649
0.998891
0.998122
0.997788
0.997408
0.997066
0.996622
0.996247
0.995968
0.995742
0.995584
0.995484
0.995413
0.995346
0.99528
0.995217
0.995168
0.995074
0.999994
0.9999
0.99948
0.998744
0.998114
0.997789
0.99742
0.997087
0.996694
0.996308
0.995984
0.995732
0.995533
0.995363
0.995211
0.995075
0.994969
0.994886
0.994821
0.994678
0.999988
0.999838
0.999335
0.998642
0.998114
0.99779
0.99743
0.997102
0.996739
0.996358
0.996019
0.995739
0.995485
0.995237
0.995013
0.994834
0.994704
0.994593
0.994493
0.994271
0.999981
0.99979
0.999248
0.998591
0.998119
0.997793
0.997439
0.997112
0.996764
0.996401
0.996063
0.995747
0.995427
0.995113
0.994854
0.994652
0.994485
0.994318
0.994157
0.993831
0.999981
0.99979
0.99925
0.998595
0.998129
0.997797
0.997445
0.997118
0.996783
0.996442
0.996102
0.995747
0.995383
0.995041
0.994756
0.994517
0.994294
0.994049
0.993808
0.993375
0.999982
0.999803
0.999277
0.998618
0.998146
0.997801
0.997448
0.997117
0.996793
0.996457
0.996102
0.995731
0.99535
0.994994
0.994679
0.99439
0.994102
0.993775
0.993467
0.992937
0.999985
0.999833
0.999341
0.998671
0.998171
0.997807
0.99745
0.997115
0.996791
0.996452
0.996092
0.995708
0.995323
0.99495
0.994594
0.994246
0.993888
0.993496
0.993145
0.992521
0.99999
0.999877
0.999448
0.998764
0.998211
0.997818
0.997452
0.997112
0.996783
0.996438
0.996069
0.995681
0.995288
0.994887
0.994474
0.99405
0.993627
0.993192
0.99281
0.992074
0.999993
0.999919
0.999572
0.998905
0.998281
0.99784
0.997455
0.997101
0.996769
0.996419
0.996045
0.995653
0.995244
0.994805
0.994333
0.993847
0.99338
0.992911
0.992492
0.991628
0.999994
0.999961
0.999749
0.999212
0.998527
0.997955
0.997494
0.997102
0.996739
0.996371
0.995984
0.995569
0.995114
0.994606
0.994054
0.993488
0.992931
0.992342
0.991783
0.990603
0.999998
0.999999
1
1
1
1
1
1
1
0.999999
0.999998
0.999994
0.999988
0.999982
0.999982
0.999984
0.999987
0.99999
0.999992
0.999991
0.999999
1
1
1
1
1
1
1
0.999998
0.999983
0.999951
0.9999
0.999835
0.999796
0.999799
0.999816
0.999849
0.999892
0.99993
0.999964
1
1
1
1
1
1
1
1
0.999981
0.999818
0.999626
0.999446
0.999287
0.999211
0.99922
0.999257
0.999336
0.999458
0.99959
0.999766
1
1
1
1
1
1
1
1
0.99996
0.99903
0.998782
0.998619
0.998503
0.998455
0.998462
0.998494
0.998562
0.998679
0.998853
0.999202
1
1
1
1
0.998374
0.997931
0.997914
0.997897
0.997893
0.997896
0.997905
0.997922
0.997951
0.998001
0.998095
0.998405
1
1
1
1
0.997568
0.997522
0.997516
0.99751
0.997507
0.997505
0.997503
0.997504
0.997507
0.997517
0.997544
0.997698
1
1
1
1
0.997075
0.997051
0.997055
0.997061
0.997068
0.997069
0.997068
0.997064
0.99706
0.99706
0.997063
0.997115
1
1
1
1
0.99658
0.996598
0.996608
0.99663
0.996646
0.996644
0.99664
0.996637
0.996635
0.99663
0.996612
0.996613
1
0.999998
0.999984
0.999964
0.998628
0.997977
0.997584
0.997185
0.996461
0.996367
0.996307
0.996249
0.996218
0.996219
0.99624
0.996257
0.996252
0.996231
0.996195
0.996153
0.999999
0.999985
0.999843
0.999184
0.998281
0.997949
0.997566
0.99722
0.996734
0.996441
0.996206
0.996004
0.995948
0.995959
0.995962
0.995938
0.995882
0.995826
0.995791
0.995738
0.999998
0.999956
0.999678
0.998977
0.998266
0.997943
0.997574
0.99724
0.996838
0.996477
0.996177
0.996001
0.99591
0.995829
0.995725
0.9956
0.995504
0.995458
0.995433
0.995355
0.999994
0.99991
0.999523
0.998841
0.998253
0.997938
0.99758
0.997258
0.996891
0.996501
0.996203
0.996038
0.995875
0.995666
0.995435
0.995263
0.995196
0.995162
0.995115
0.994963
0.999989
0.999853
0.999388
0.998744
0.998248
0.997936
0.997587
0.997271
0.996912
0.996539
0.996274
0.99605
0.995773
0.995442
0.995183
0.995061
0.994995
0.994906
0.994791
0.994535
0.999983
0.999809
0.999309
0.998695
0.99825
0.997934
0.997592
0.997272
0.996927
0.996605
0.996328
0.996019
0.995638
0.995305
0.995111
0.994971
0.994823
0.994625
0.994423
0.994078
0.999982
0.99981
0.999312
0.998698
0.998256
0.997935
0.997593
0.997272
0.996953
0.996649
0.996326
0.995956
0.995578
0.995299
0.995092
0.994881
0.994622
0.994309
0.994038
0.993627
0.999983
0.999823
0.999338
0.998721
0.998269
0.997936
0.997593
0.997271
0.996964
0.996646
0.996297
0.995914
0.995577
0.995296
0.995035
0.994727
0.994369
0.993985
0.993688
0.993212
0.999986
0.999851
0.9994
0.998771
0.998292
0.99794
0.997593
0.99727
0.99696
0.996627
0.996265
0.995907
0.995578
0.995261
0.994907
0.994505
0.994091
0.993698
0.993386
0.992811
0.99999
0.999891
0.9995
0.998861
0.99833
0.997949
0.997594
0.997266
0.996945
0.996603
0.996251
0.995902
0.995554
0.995162
0.994713
0.994246
0.993822
0.993424
0.993072
0.992356
0.999992
0.999928
0.999616
0.998998
0.998401
0.997971
0.997598
0.997253
0.996924
0.996586
0.99624
0.995882
0.995493
0.99504
0.994543
0.994055
0.993613
0.99317
0.992754
0.991889
0.999992
0.999963
0.999775
0.999287
0.998643
0.998091
0.99764
0.997254
0.996897
0.99655
0.996189
0.995789
0.995334
0.994825
0.994291
0.993759
0.993223
0.992629
0.992054
0.99086
0.999989
0.999994
0.999996
0.999997
0.999998
0.999998
0.999998
0.999998
0.999998
0.999997
0.999995
0.999992
0.999987
0.999983
0.999982
0.999983
0.999983
0.999984
0.999983
0.999979
0.999994
0.999997
0.999999
0.999999
0.999999
0.999999
0.999999
0.999999
0.999998
0.999988
0.999964
0.999927
0.999882
0.999857
0.99986
0.999873
0.999897
0.999925
0.999948
0.999964
0.999996
0.999999
1
1
1
1
1
1
0.999986
0.999865
0.999719
0.99958
0.999459
0.999418
0.999428
0.999463
0.99953
0.999624
0.999719
0.999835
0.999997
0.999999
1
1
1
1
1
1
0.999967
0.999251
0.999057
0.998928
0.998834
0.99881
0.99882
0.998853
0.998916
0.99902
0.999169
0.999434
0.999998
0.999999
1
1
0.998664
0.998384
0.998364
0.998347
0.998342
0.998344
0.998351
0.998365
0.998394
0.998444
0.998538
0.99881
0.999998
0.999999
1
1
0.997987
0.998047
0.998034
0.998025
0.99802
0.998016
0.998013
0.998012
0.998015
0.998026
0.998057
0.99821
0.999998
0.999999
1
1
0.997565
0.997654
0.997651
0.997653
0.997655
0.997653
0.997648
0.997642
0.99764
0.997641
0.997645
0.997703
0.999998
0.999999
1
1
0.997149
0.997276
0.997282
0.9973
0.997302
0.997292
0.997284
0.997287
0.997291
0.997287
0.997264
0.997269
0.999998
0.999998
0.999988
0.999982
0.998918
0.998332
0.997982
0.997624
0.997155
0.997105
0.99706
0.996969
0.996906
0.996911
0.996957
0.996983
0.996973
0.996938
0.996887
0.996866
0.999997
0.999988
0.999881
0.999367
0.998646
0.998373
0.998053
0.997758
0.997384
0.997145
0.996878
0.99671
0.996713
0.996751
0.996757
0.996709
0.996611
0.996555
0.996538
0.996512
0.999995
0.999965
0.999749
0.999198
0.998631
0.998363
0.998053
0.997771
0.997475
0.997124
0.996825
0.996748
0.996731
0.996664
0.996515
0.996318
0.996229
0.996233
0.996234
0.996182
0.999992
0.99993
0.999626
0.999086
0.998617
0.998355
0.998055
0.997787
0.997479
0.997115
0.996899
0.996839
0.996707
0.996447
0.996096
0.995966
0.995982
0.995996
0.995967
0.995809
0.999988
0.999886
0.999518
0.999006
0.99861
0.998351
0.998058
0.997788
0.997473
0.997158
0.997018
0.996845
0.996543
0.996133
0.995927
0.995902
0.995878
0.995797
0.995661
0.995379
0.999983
0.999853
0.999462
0.998972
0.998611
0.998348
0.998057
0.997781
0.997479
0.997251
0.997049
0.996759
0.99634
0.996065
0.995968
0.995895
0.995762
0.995528
0.995282
0.994933
0.999982
0.999854
0.999466
0.998977
0.998616
0.998345
0.998054
0.997775
0.997513
0.997281
0.997012
0.996629
0.996298
0.996119
0.996
0.995835
0.995556
0.995177
0.994885
0.994528
0.999982
0.999866
0.999492
0.998999
0.998625
0.998344
0.99805
0.997776
0.997525
0.997262
0.996929
0.996586
0.996336
0.996152
0.995952
0.995652
0.99524
0.994822
0.994565
0.99418
0.999984
0.999889
0.999544
0.999043
0.998646
0.998346
0.998049
0.997776
0.997516
0.997213
0.996892
0.996608
0.99637
0.996119
0.995785
0.995345
0.994902
0.994555
0.994313
0.993836
0.999985
0.999918
0.999626
0.999122
0.998681
0.998354
0.99805
0.997771
0.997489
0.997186
0.996901
0.996627
0.996347
0.99599
0.995519
0.995033
0.994655
0.994333
0.994039
0.9934
0.999985
0.999943
0.999715
0.999241
0.998748
0.998376
0.998053
0.997749
0.997458
0.997178
0.996904
0.996612
0.996272
0.995833
0.995336
0.994887
0.994509
0.994122
0.993735
0.992917
0.999981
0.999963
0.999832
0.99947
0.99896
0.998493
0.998097
0.997753
0.99744
0.997157
0.996861
0.996508
0.996086
0.995616
0.995146
0.99469
0.994217
0.99365
0.993071
0.991875
0.999968
0.999977
0.99998
0.999983
0.999984
0.999984
0.999984
0.999985
0.999985
0.999984
0.999983
0.99998
0.999977
0.999974
0.999973
0.999971
0.99997
0.999967
0.999964
0.999955
0.999976
0.999983
0.999986
0.999988
0.999988
0.999988
0.999989
0.999989
0.999987
0.999982
0.999968
0.999946
0.999921
0.999908
0.99991
0.999917
0.99993
0.999943
0.999951
0.999952
0.999979
0.999986
0.99999
0.999993
0.999993
0.999993
0.999993
0.999993
0.999985
0.99991
0.999817
0.999729
0.999655
0.999639
0.999648
0.999673
0.999718
0.999777
0.999831
0.999889
0.999982
0.999988
0.999993
1
1
1
1
1
0.999988
0.999514
0.999383
0.999299
0.999239
0.999232
0.999242
0.999269
0.999316
0.999393
0.999496
0.99966
0.999984
0.999989
0.999993
1
0.999084
0.9989
0.998898
0.998897
0.998898
0.998901
0.998907
0.998918
0.998941
0.998983
0.999059
0.999255
0.999984
0.999989
0.999993
1
0.998552
0.998649
0.998656
0.99866
0.998661
0.99866
0.998658
0.998656
0.998658
0.998668
0.998696
0.998822
0.999985
0.999989
0.999993
1
0.998219
0.998349
0.998366
0.998382
0.99839
0.998389
0.998386
0.998383
0.998381
0.998381
0.998384
0.998436
0.999985
0.99999
0.999994
1
0.997885
0.998053
0.998081
0.998117
0.99812
0.998114
0.998115
0.998123
0.998124
0.998117
0.998094
0.998104
0.999986
0.999988
0.999985
0.999981
0.999177
0.998775
0.998514
0.998244
0.997906
0.997931
0.997903
0.997832
0.997807
0.997827
0.997878
0.997891
0.997877
0.997843
0.997802
0.997793
0.999985
0.999982
0.999912
0.999559
0.999061
0.998869
0.998638
0.998419
0.998155
0.997958
0.997739
0.997682
0.997698
0.99772
0.997713
0.997654
0.997574
0.997544
0.997533
0.997511
0.999983
0.999967
0.99982
0.999444
0.999057
0.998871
0.998648
0.998443
0.998235
0.99795
0.99774
0.997725
0.997706
0.997629
0.997478
0.997317
0.997279
0.997287
0.997284
0.997234
0.999981
0.999944
0.999737
0.999371
0.999054
0.998871
0.998658
0.998462
0.998234
0.997955
0.997837
0.997781
0.997657
0.997422
0.997145
0.997083
0.997092
0.997088
0.997051
0.996915
0.999978
0.999915
0.999665
0.999319
0.999053
0.998869
0.99866
0.998461
0.998229
0.998016
0.997918
0.997766
0.997511
0.997204
0.997079
0.997045
0.997
0.996916
0.996795
0.996554
0.999974
0.999896
0.999638
0.999304
0.999054
0.998867
0.998658
0.998453
0.998239
0.998084
0.997919
0.997678
0.997364
0.99717
0.997092
0.997022
0.9969
0.996701
0.996487
0.996178
0.999973
0.999898
0.999643
0.99931
0.999057
0.998863
0.998652
0.998449
0.998263
0.998088
0.997875
0.997575
0.99734
0.997195
0.997088
0.996953
0.996729
0.996416
0.996157
0.99583
0.999972
0.999906
0.999663
0.999327
0.999062
0.998857
0.998646
0.998447
0.998263
0.998065
0.997803
0.99755
0.997359
0.997199
0.997029
0.996791
0.996462
0.996104
0.995864
0.995517
0.999972
0.99992
0.999702
0.999361
0.999077
0.998857
0.998641
0.998441
0.998248
0.99802
0.99778
0.997561
0.997365
0.997161
0.996883
0.996526
0.996154
0.995833
0.99561
0.995202
0.99997
0.999936
0.999757
0.99942
0.999105
0.998862
0.998635
0.998427
0.998218
0.997994
0.997779
0.997562
0.997339
0.99705
0.996657
0.99624
0.995894
0.995592
0.995334
0.994796
0.999968
0.999949
0.999814
0.999506
0.999158
0.998879
0.998635
0.9984
0.998186
0.997981
0.997773
0.997543
0.997272
0.996915
0.996493
0.996091
0.99574
0.995386
0.995047
0.994327
0.999959
0.999953
0.99988
0.999657
0.999313
0.99897
0.998669
0.998401
0.99816
0.997946
0.997718
0.997441
0.997103
0.996713
0.996307
0.9959
0.995476
0.994967
0.994428
0.993294
0.999954
0.999962
0.999964
0.999966
0.999966
0.999967
0.999967
0.999968
0.999969
0.99997
0.999969
0.999968
0.999966
0.999964
0.999963
0.999961
0.999959
0.999955
0.999951
0.999939
0.999961
0.999965
0.999964
0.999963
0.999962
0.999963
0.999965
0.999966
0.999967
0.999965
0.999959
0.999947
0.999932