/*--------------------------------*- C++ -*----------------------------------*\
  =========                 |
  \\      /  F ield         | OpenFOAM: The Open Source CFD Toolbox
   \\    /   O peration     | Website:  https://openfoam.org
    \\  /    A nd           | Version:  9
     \\/     M anipulation  |
\*---------------------------------------------------------------------------*/
FoamFile
{
    format      ascii;
    class       volScalarField;
    location    "0.007";
    object      p;
}
// * * * * * * * * * * * * * * * * * * * * * * * * * * * * * * * * * * * * * //

dimensions      [1 -1 -2 0 0 0 0];

internalField   nonuniform List<scalar> 
9720
(
2.12155e+06
1.90386e+06
1.7927e+06
1.2659e+06
1.06829e+06
1.05431e+06
1.03697e+06
896792
720914
567187
454269
397331
375707
386404
415766
459713
508695
562690
614423
682177
1.89654e+06
1.85306e+06
1.20652e+06
747887
838330
995166
1.00736e+06
832355
558456
356058
252253
228729
239044
266451
313921
378713
447874
514654
576104
650496
1.80077e+06
1.23167e+06
614081
507164
794630
1.00331e+06
1.01868e+06
814278
440299
231647
174747
182156
204893
240078
291153
359306
447411
545585
618355
690550
1.27023e+06
749685
501654
404603
625270
985256
1.06932e+06
926514
406763
106998
114442
129701
151498
177605
208843
250171
316597
420881
551528
694346
1.04772e+06
806194
763700
619631
81801.1
130832
142634
150848
158774
168157
180993
199042
225335
268967
353112
559526
1.02087e+06
957067
972174
957084
175563
179340
176014
173844
174191
175477
178026
181982
188467
203565
237004
381878
999857
968706
985323
1.03825e+06
191969
177771
175099
172955
171920
171196
171392
172529
175301
181499
193355
267825
862106
797134
779707
893093
155894
114391
121011
125727
129040
132198
135516
139055
143252
149155
157188
199403
690999
529061
413266
363546
78585
165728
182854
146722
17419
28352.3
45247
61082.1
75039.8
86513.5
95745.2
103349
110479
118409
126727
155599
544101
336319
216571
101726
123828
169469
167997
109107
30439.1
12343.6
15734.8
25138.2
38639.4
52485.7
63441.9
73449.6
84127.2
94708.3
103078
125091
437679
241577
167781
109517
134969
166264
165419
115728
47210.2
16963.1
11235.8
13016.9
18784.6
28091.7
39079.2
50843.6
62836.1
74636.9
82273.2
100337
381816
220321
176762
125120
142563
164014
163520
120707
62184.2
27555.8
14070
10594.5
10956.6
15141
24013.7
35210.5
45878.9
55928.3
63441.4
80073.7
361387
230085
199807
146743
150024
164366
162668
124419
75472.9
41149.3
21111.6
11843.7
11013.3
12198.9
16401.3
23950.2
32062.9
40890.8
49221.4
65631.6
372941
256434
232180
171156
159284
165898
162724
127751
86423.1
54533.4
31018.2
17186.3
12830.9
12961.3
14064.1
16797.5
21998.8
30494.9
39405.3
54956.7
403919
302431
278494
200493
172093
169007
163522
131451
94990.1
65086.3
41923.6
26706.2
18260.9
14889.1
14595.1
15671.4
18796.1
25597.8
33156.7
46426.6
450304
367878
342321
238708
189898
173883
165556
135345
102475
74831.7
53315.5
37780.5
26454.7
18919.7
16305.5
16924.9
19689.3
24551.4
29175.4
39589.7
500775
440159
428173
298788
215930
181378
169311
139761
109817
85424.2
64907.3
48127.8
34845.9
25088.7
20186.9
20512.2
22206.9
24759.1
27402.3
35842.8
554426
509061
528920
396793
258309
196845
176578
146214
118053
95845.8
76477
58304.6
44070.6
33967.6
28039.4
26019.6
25242.3
25747.3
27936.7
35867.3
605877
569360
605856
524572
337681
229710
189471
154862
126852
104232
84287.3
66304.5
52666.5
42944.3
35974.6
31243.4
28397.3
28521.2
30076.8
37101.4
671283
641079
676508
667789
535621
371082
264784
198290
157130
127092
103483
84257
69906.7
58728.5
49637.8
42494.8
38173.8
37169.5
38094.3
42256.1
2.08047e+06
1.85581e+06
1.71108e+06
1.19029e+06
1.02016e+06
1.02938e+06
1.01809e+06
877703
701278
549415
436787
381221
358648
367671
395285
439707
490115
543886
595813
664763
1.84969e+06
1.81468e+06
1.06367e+06
681422
827795
986529
994376
817596
542704
342777
239196
215823
224701
248968
292657
354835
425162
493791
556002
632765
1.73648e+06
1.09465e+06
557813
475765
804158
999897
1.00771e+06
801277
426257
219769
162532
169046
190570
223334
270771
333629
417029
515981
592061
669321
1.20157e+06
681562
467382
369447
654149
977498
1.05195e+06
910747
402924
100963
107329
120098
138975
162849
191300
228563
288016
387030
512618
661670
1.00162e+06
783986
748371
581107
80993.3
125690
136163
142655
148804
156356
167228
182979
206209
244620
318516
516879
994349
943418
961369
943132
166843
172892
169042
165469
164314
164754
166281
169083
174142
186282
214048
344021
979352
955260
974906
1.02042e+06
182524
171225
167847
164780
162411
160468
160263
160902
162891
167657
177038
240054
843416
786464
772577
880420
148220
109881
115208
118654
120854
123391
126620
129511
132449
136913
143509
178878
672362
517375
404336
367641
77084.6
156895
172878
137843
17218.5
27125.5
42397.4
56494.2
69629.1
80291.4
88116.6
94318.3
100425
107832
115400
139782
525189
325396
209255
96877.2
118887
163407
161511
104252
28909
11118.3
14405.3
23272
35433.9
47405.7
56605.4
65335.4
75569.8
85825.3
93112.2
111833
417874
227366
155732
103234
129170
160038
158716
109989
44029
15370.5
10336.4
11964.4
16783
24289.8
33681.9
44567.3
55825.4
66458.1
73282.8
89259.6
364359
205749
162343
115843
135448
156775
156153
113876
57433
25012.3
12666.3
9328.45
9405.69
12775.5
20557.9
30576.4
39985.2
48951.3
55845.4
70997.1
344361
214215
182596
133860
141214
155733
154171
116709
69904.5
37232.3
18421.4
9958.17
9389.07
10465.8
14226.8
20749.3
27752.4
35563.8
43003.7
57932.5
354581
238139
212773
155568
148332
156349
152934
119561
80156.2
49027.1
26640.9
14198.5
10938.8
11065.2
11945.9
14492.5
19044.7
26358.9
34086.1
48236.9
383376
281161
256826
181575
158608
158248
153206
122946
87647.9
58331.7
36332.2
22706.1
15527.3
12492.7
12209.2
13072.1
15621.7
21360
27994.3
40587.8
428861
344334
316993
215655
173503
161605
154362
125930
93941
67164.4
47157.6
32802.3
22505.7
15878.8
13526.6
13996.5
16127.8
19921.1
24315.3
34610.2
479193
416411
399509
269528
195856
167185
156977
129083
100366
77301.1
58046.1
42164.1
29937.6
21290.5
16768.6
16782.3
17936.4
20342.7
23137.2
31250.6
530937
484590
499647
363278
232475
179171
162467
134059
107944
87278.5
68516
51471.3
38384.9
29267.5
23545
21355.1
20931.5
21637.3
23649.4
30885.7
580477
543836
576422
486863
302830
206089
172542
141177
115675
94611.2
75698.2
59062.4
46517.4
37469.6
30801.3
26517
24238.3
24299.5
25599.9
31888.8
645237
615237
649914
634496
494157
332984
236150
177525
141074
114205
92913
75722.5
62632.3
52397.9
44065.8
37652.5
33666.6
32290.8
32908
36725
2.10014e+06
1.89158e+06
1.69876e+06
1.14392e+06
986899
1.02459e+06
1.01483e+06
871989
695746
545127
429868
374822
351538
359891
386061
430758
483311
537548
590519
660100
1.87001e+06
1.84779e+06
949374
637563
826874
992805
993321
810217
535171
338833
234432
210277
218501
241385
282660
343144
415489
485907
551940
630290
1.71641e+06
967489
515503
460259
810843
1.0028e+06
1.00324e+06
790794
414863
215910
158904
163714
184332
217201
263867
324201
404910
508155
591000
671013
1.14206e+06
618704
441557
348960
654316
979984
1.04881e+06
903592
386276
97690.3
104502
116393
133448
155708
182625
218140
274246
371464
501073
663452
959604
774277
752420
568486
73593.6
122135
132714
138661
143776
150359
160219
175056
197725
232228
299068
499833
981692
944296
958568
941769
164685
170181
165800
162057
160416
160909
162609
165356
169921
179721
203041
322479
974098
956363
971674
1.01712e+06
180284
168008
164152
161008
158615
156843
156975
157952
160191
164411
171943
225222
839474
786180
772004
875916
145296
107455
112264
115251
117380
119974
123533
126816
129860
134008
139804
169436
666060
516298
406188
377119
70665.5
155943
171420
136450
16219.5
26474.2
41307.2
54666.5
67052.9
77315.7
84732
90955.1
97206.5
104774
112471
134015
518005
324107
209509
92071.4
116068
163672
160876
102131
26540.9
10192.3
13556.7
22274.2
33365.2
44464.6
53500.6
61959.3
72104.6
82894
90193.5
107374
406225
220126
150626
98168.4
126372
159465
157406
107464
41402.9
13946.4
9335.13
10922.2
15510.7
22370.5
31036.7
41465.1
52316.8
63286.1
70783.6
86212.8
353028
196077
153397
109102
132476
156001
154661
111033
54519.1
22935.2
11225.1
8590.47
8706.99
11505.9
18336.1
27499.8
36927.1
46210.2
53507.1
68726
333340
203848
171300
124874
137325
154245
152356
113810
66767.7
34184.1
16408.4
9039.77
8519.79
9297.9
12428.2
18539.8
25625.6
33291.9
40803.7
55800.6
342616
226487
201779
145104
143265
154727
151078
116915
77189.3
45570.5
23982.6
12566.3
9666.27
9733.55
10570.9
13109.7
17349.7
24066.1
31617
46030.4
369761
267724
246228
170011
151997
156454
151403
120649
84851.3
54956.3
33303.3
20241.8
13663.3
11186.6
10804.9
11295.7
13278.2
18386.7
25247.7
38308.7
415783
329356
305427
202446
165513
159400
152670
123960
91097.2
63762.2
44050.3
29912.1
20447.2
14447.5
11689
11881.1
13509.4
17177.2
21804.9
32055.3
469031
403724
386361
252439
186677
164084
155167
127139
97425.6
73900.6
54887.6
39502.8
27876.7
19327.9
14333.4
14130.8
15211.3
17910.9
20631.5
28353.9
522571
475134
491923
343135
218888
173032
159716
131532
105095
84540.3
65755.8
48944.8
35971.3
26657.3
20526.1
18606.5
18637.4
19357.5
21017
27883.3
574153
539641
577265
473544
281864
194626
167541
137571
112720
91889.3
73383.9
56635.8
44082
34798.9
28023.5
24015.7
21757.3
21597.2
22741.8
29001.2
640450
614298
654855
639760
478305
310536
220828
167514
134657
109468
89470.3
72811
60123.8
50112
41779.4
35071.6
30723.9
29219
29980.8
34181.5
2.1441e+06
1.95129e+06
1.66704e+06
1.09355e+06
961906
1.02094e+06
1.01265e+06
867709
688207
539578
422304
369068
347789
356216
381898
427231
482193
537635
591709
661970
1.91582e+06
1.83807e+06
851253
607275
824524
994646
993497
808519
527953
335243
228403
203497
212033
235085
276266
336146
410636
483776
552652
633500
1.67212e+06
852370
496039
457135
806966
1.00528e+06
1.00472e+06
789379
408362
211843
154170
156561
174989
208509
256995
318367
397356
503243
594546
676430
1.07675e+06
578498
437118
348871
620177
984924
1.05307e+06
902235
366068
92460.2
98876.3
110260
126071
146550
171865
205184
257470
349558
482950
662665
921145
776346
768840
595208
74018.9
116931
127969
134417
139057
144627
152850
165297
185630
215403
272998
473306
971275
946228
960444
938293
159843
165247
161513
158368
156334
156610
157890
160009
163289
170098
188032
293446
968359
954514
968461
1.0143e+06
175068
162733
159670
156923
154772
152800
152583
153117
154779
157874
163234
205595
833000
781506
765808
871406
140593
102613
107737
110920
113223
115572
118751
122045
125195
128748
133059
155588
660326
510787
398749
363478
71440.4
157402
171736
135781
15478.2
24238.3
38291.3
51570.5
63282.2
73387.4
81197.9
87513.2
93522.5
100138
106624
124666
516295
323300
206823
89641.3
115079
163415
159678
100735
25951.4
9262.36
12199.8
20315.9
30776
41154.9
50597.5
59253.3
68353.8
78598.9
86001.6
101452
401809
218470
148189
96073.5
125811
159231
156660
106510
40633.6
12766
8377.35
9835.39
13971.7
20520
28937.7
38648.1
48754.3
59530.1
67870.9
82752.7
346936
191467
149382
106740
132150
155683
154032
110049
53589.7
21563.3
10161
7910.75
8138.62
10754.1
16585.4
24839.8
33678.8
43374
51625.2
66625.9
326883
198795
165480
121360
136505
153412
151741
112729
64927.6
32646.4
14979
8445.9
8052.01
8611.45
11027.4
16286.3
23349.4
31567.8
39427.3
53876.8
335499
220336
196192
140303
141720
153728
150176
115484
75104.9
43541.2
22238.4
11674.9
8938.29
8781.36
9320.33
11703.9
16216.9
22910.4
30106.3
43731.1
360721
259309
240934
163990
149348
155160
150332
119012
83303.7
53038.9
31152.8
18271.8
12116.1
9799.56
9549.88
10067.3
11926.4
16692.2
23082.1
35754.7
405836
317233
298883
194598
160960
157663
151242
122561
89655.1
61509.4
41193.3
27233.5
18276.2
12992.3
10462.7
10538.2
11802.6
14681.3
18942.7
29338.4
462338
392646
374803
240950
180286
161414
153351
126004
95593.8
70432.6
51348.2
36438.4
25640
17927.5
12931.2
12190.7
12921
15108.4
17853.7
25793.2
518388
468650
481211
323901
208432
168154
156982
129785
102118
80639.7
61955.4
45881.9
33711.8
24657.6
18316
15826.9
15771.3
16582.8
18497
25584.3
572203
538615
578521
454112
261454
185057
162842
134318
108429
87897.2
69883.8
53698.4
41396.4
31941.5
25095.5
20849.3
18903
19079.6
20439.3
26761.2
641683
619877
665331
641961
455698
286921
205578
157398
126833
103508
84758.1
68733.7
56330.6
46362.2
38414
32058.6
28069.6
27013.4
27855
32075.4
2.1854e+06
1.99893e+06
1.63642e+06
1.05813e+06
949069
1.02164e+06
1.01582e+06
867675
683911
534932
415838
364399
346514
356064
382135
428699
487025
544450
599267
668477
1.9627e+06
1.82588e+06
792161
588981
833113
1.00088e+06
998463
809150
521958
330995
222870
197286
206626
231316
273363
333475
410571
487380
558676
640647
1.64464e+06
791426
485215
452725
821937
1.00998e+06
1.00785e+06
789963
401964
208204
149800
150746
167412
200669
249641
311790
390939
499975
598422
684500
1.04219e+06
560170
427933
340659
630433
985850
1.05376e+06
903419
368959
88995.7
95316.5
106368
121256
140503
164492
195413
244131
332485
467099
661266
905197
770275
759163
582661
67954.7
112875
124221
131161
135722
140908
148405
159468
177647
204546
255657
453288
965772
943513
958987
936826
155367
161073
157529
154485
152594
152796
153889
155772
158315
163472
178214
273817
965017
953003
966869
1.0107e+06
169165
158300
155755
153247
151199
149341
148891
149223
150455
152925
157183
193121
828700
777513
761013
867043
135730
98947.7
104104
107279
109729
112292
115381
118651
121697
124733
128134
146733
656055
504674
390340
356441
67439.7
155332
169063
132960
14555.9
22936
36296.4
49264
60377.1
70069.7
78362
84732.4
90492.6
96685.8
102341
118262
513786
319318
201719
87650.7
113908
162079
158154
99067.1
25102
8734.65
11319.5
18617.5
29015.1
39812.1
48955
57023.3
65344.9
75138.1
82736
97054.3
399573
216785
147032
94320.5
125093
158288
155620
105331
39884.7
12104.5
7704.62
9283.75
13847.4
20198.5
27977.4
36819.8
46223.9
57201.8
65642.6
79646.7
346454
190487
148047
105369
131736
154980
153165
109404
53149.2
20470.5
9666.3
7964.54
8231.95
10392.4
15265.4
22927.6
32391
42370.6
50341.1
64517.4
326319
197814
163864
120094
136120
152846
151353
111998
63877.2
31632
14960.5
8561.03
7897.45
8179.8
10148.8
15462.9
22923.7
31042.7
38509.1
52136.3
334432
219226
195222
139010
141190
153085
149847
114339
73416.2
42740
22048.8
11410.8
8419.56
8451.26
9284.07
11945.6
16424.8
22532.4
29013.1
41989.5
358527
257928
240663
162473
148661
154405
149760
117471
82075.7
52211
30544.6
17046.5
11100.7
9733.31
9677.74
10055.3
11641.8
15757.6
21725.4
34193.4
402126
314118
298627
192396
159788
156828
150349
121228
88818.7
60408.5
39718.1
25318.8
17191.4
13035.1
10407.3
10171.6
10892.8
13324.4
17553.3
28061.6
458787
387836
371916
237773
178135
160175
152125
125249
94716.3
68381.4
49025
34788.4
24709.8
17744.7
12411.6
11148.3
11697.5
13818.8
16723.3
24524.5
516329
465774
476338
317489
204750
166087
155439
129053
100655
77857.2
59575.1
44349.1
32579.6
23860.5
17017.4
14063.5
14332.3
15437.3
17473.1
24295.1
572231
538005
577243
443876
252339
180819
160556
132926
106164
85567.8
67741.5
52073.5
39988.5
30419.3
23298.5
18991.8
17568.5
17945.1
19214.7
25442.6
643357
623534
669350
639973
440324
273378
197455
152286
122686
100636
82289.3
66600.8
54192.4
44119.6
36433.3
30445.8
26611.5
25694.1
26576
30954.1
2.18659e+06
1.99799e+06
1.6252e+06
1.05127e+06
949502
1.02459e+06
1.0174e+06
867378
682930
534256
414714
362093
345701
356197
383168
430649
489889
547822
602733
671514
1.96912e+06
1.82366e+06
784417
585595
839887
1.00635e+06
1.00111e+06
809099
520960
330795
222964
195926
205327
230744
273572
334478
413000
490448
562314
643566
1.65213e+06
786541
481752
450015
833316
1.01622e+06
1.01063e+06
789981
400397
208194
150306
150895
166949
200096
249384
311921
392145
503597
602829
687112
1.04196e+06
557250
423564
334241
657029
987931
1.05603e+06
904708
364691
88786.4
95175.5
106096
120802
140052
164127
195409
244377
333294
471479
666609
902541
765861
753305
558911
65023.2
111856
123059
129694
134228
139553
147351
158765
177199
204174
255812
455867
963900
940751
956991
936063
153104
159891
156216
152796
151045
151359
152707
154865
157655
163004
177850
273946
963207
951104
965723
1.00961e+06
167024
157118
154504
151796
149753
148013
147800
148261
149689
152376
156756
192687
827484
776956
761386
865090
133298
98165.3
103537
107030
109243
111429
114551
117966
121181
124161
127506
145947
655149
504541
392178
365515
65066.2
155867
169324
133113
14416.4
23463.4
36863.6
49645.3
60328.8
69710.2
77906.2
84427.9
90228.8
96190.1
101665
117404
512791
318726
201755
87231.8
114522
163584
159239
99455.7
24931.3
8751.12
11356.1
18687.6
29126.7
39684.3
48614.2
56615
64800.8
74504.7
81986.2
96135.1
399596
217038
147677
93974.4
125864
159721
156617
105386
39379
11970.8
7601.53
9177.61
13718
19926.7
27560.7
36304.4
45781.4
56566.2
64803.9
78651.8
347313
191153
148986
105372
132541
156331
154171
108872
52427.5
20146.2
9573.65
7733.05
7975.63
10109.4
15018.6
22747.6
31963.8
41619.1
49516.6
63580
327193
198579
165199
120572
137014
154107
152251
111519
63340
31170.8
14792
8356.97
7726.72
8100.33
10257.7
15412.5
22421.3
30294.1
37689.4
51291.7
335395
220149
196544
139816
142142
154349
150718
114478
73322.4
42230.2
21827.1
11172.1
8364.63
8439.75
9154.72
11558.1
15847.3
21922.1
28458.8
41257.5
359353
258883
242166
163462
149614
155607
150725
118076
81483
51635.6
30201.3
16843
11243.6
9634.38
9319.1
9666.19
11273.8
15444.4
21319.9
33456.3
403049
315250
300215
193117
160951
157980
151365
121648
87851.2
59812.5
39480.7
25263.8
17159.8
12662.2
9980.78
9892.34
10711.5
13094.6
17025.3
27283.1
459406
388851
373842
238767
179156
161223
153088
124943
93951.2
68173.9
49037.5
34621.8
24413
17395.9
12162.7
10991.1
11527.7
13476.8
16318.8
24101.7
516033
465904
477601
319844
205764
166986
156280
128671
100641
78072.4
59472
44195.5
32435.1
23714.6
16997.9
13831.4
13986.8
15060
17156
24240.4
571258
537214
576020
443854
253100
181537
161318
132944
106615
85623.9
67810.4
52193.8
39989.4
30553.8
23283.5
18647.3
17188.9
17646
19091.1
25414.7
641706
621749
666126
635758
437936
272205
197410
152447
122967
100355
82405.9
66961.4
54481.1
44279.2
36406.6
30233.1
26417.3
25617
26501.9
30841.2
2.14714e+06
1.94999e+06
1.64721e+06
1.08006e+06
960882
1.02607e+06
1.01705e+06
867003
683975
535580
418017
365768
347429
357252
384215
431112
487640
544455
598844
667787
1.92757e+06
1.83587e+06
835692
599323
841952
1.00684e+06
1.00023e+06
808809
522956
332213
225225
200565
210091
234869
277411
339024
415308
489817
559410
639187
1.68463e+06
848174
489657
455585
834850
1.01763e+06
1.01048e+06
790433
403217
210141
152295
154413
172868
207175
256631
319106
400291
509399
601573
682432
1.07818e+06
573068
427115
340131
665556
993773
1.06057e+06
906460
364969
90857.3
97495.7
108877
124725
145409
170970
204765
257601
351247
489212
670197
916491
763861
750651
561958
66682
114195
125311
131899
136686
142395
150898
163420
183741
213225
271803
477077
965435
939133
957362
939221
153315
162185
158326
155079
153169
153496
154887
157126
160462
167191
185055
291975
962994
950459
967795
1.01236e+06
167601
159603
156657
153948
151952
150352
150284
150793
152438
155478
160614
202673
827397
776736
762247
868462
134036
100604
105967
109472
111825
114078
117200
120636
123929
127350
131271
152841
654978
504473
391869
353551
67373.7
157586
171485
135308
14749.6
24532.9
38661.5
51446.7
62596
72459.9
80354.7
86703.1
92516.9
98750.1
104791
122198
511537
317849
203057
89604.7
115644
164070
160821
100943
24889.8
9024.79
11993.5
20134.9
30680.4
41066.4
50362.6
58476.1
67130
77192
84472.7
99501.8
400328
217144
148589
96401.6
126830
159899
157730
106606
39335.1
12286.1
8105.98
9618.2
14021.1
20548.5
28574.5
37923.2
47871.1
58506.8
66684.9
80995.3
348626
192441
150582
107789
133258
156431
154936
110221
52367.3
20796.9
9877.44
7772.15
8037.46
10453.3
16124
24399.8
33164.3
42730
50638.7
64803.5
328952
200085
167548
123141
137569
154169
152765
112687
63913.9
31751.3
14730.3
8282.42
7804.58
8424.3
10980.3
16233
23065.1
30866
38230
52159.1
337631
222049
198679
142505
142686
154409
150986
115055
74257.7
42711.2
21811.8
11225.7
8697.72
8699.22
9245.09
11588
15856.7
22105.2
29061
42341.6
362928
261613
244106
166187
150287
155689
150916
118382
82396.7
52257.9
30414.1
17585.1
11929.3
9693.25
9392.55
9836.15
11511.3
16091.7
22297.7
34539.2
407865
319847
302470
196617
161902
157950
151439
121896
88753.1
60550.4
40311
26527.8
17919.2
12717.4
10151
10186.8
11465.5
14356.3
18323.1
28214.9
463514
395083
378525
243504
180992
161298
153152
125250
94529.5
69437.4
50521.4
35797.3
25265.8
17535.5
12463.1
11821.5
12611.9
14786
17455.7
25008.9
518591
470189
484688
327242
208642
167610
156414
128958
101084
79750.2
61372.9
45598.1
33342.9
24242.9
17853.1
15445.7
15419.7
16262.4
18091.3
25197.7
571817
539287
580288
455531
260590
183975
161899
133297
107512
87321.4
69748.6
53672.7
41162.3
31723.1
24812.4
20480.5
18520.6
18697.2
20072.3
26485
639647
618395
663269
639232
451473
283252
203146
155498
125704
103145
84909.1
69006.2
56489.6
46507.6
38454.3
31804.6
27683.3
26752.1
27647.3
31902.2
2.09962e+06
1.8869e+06
1.68103e+06
1.13543e+06
987295
1.0301e+06
1.0172e+06
871029
691535
541040
426036
372282
351498
361068
388791
434579
486943
541142
594030
663546
1.87338e+06
1.84305e+06
933164
635428
839205
1.00221e+06
996860
809960
529815
335100
229993
206582
215906
240949
284506
346672
418821
488891
554597
632803
1.72147e+06
962945
513900
463480
826646
1.01052e+06
1.00493e+06
791118
409720
213274
155253
159933
180784
215388
264258
326579
409511
512929
594128
673360
1.13985e+06
614134
438534
348262
664022
988849
1.05401e+06
904538
370540
95285.2
101860
113719
131071
153778
181454
218081
276080
376139
508214
668012
953371
765422
744170
565728
71234.4
118959
129576
135852
141114
147697
157470
172233
195001
229687
299520
504884
974378
937849
956859
941258
159057
166697
162315
158726
157000
157433
158958
161540
166075
176026
200010
323103
966953
950666
970053
1.01599e+06
173693
164314
160725
157786
155549
153851
153948
154862
157020
161098
168501
222652
831868
780160
768072
872597
139128
104207
109293
112567
114814
117450
121140
124644
127603
131401
136853
166255
659597
509484
399677
371370
67981
156394
171587
136468
16072.8
25853.4
40087.7
52976.9
65050.7
75540.9
83378.6
89499
95426.3
102673
110126
131536
513580
319000
206056
91507
115999
163468
161052
102563
26579.5
9864.89
12954.9
21407.9
32567.3
43809.7
52687.7
60724.5
70541.9
81437.4
88836.4
105805
404636
218715
149187
97883.5
126844
159573
157818
107983
41123.3
13393.9
9124.71
10802.6
15442.1
22067.3
30393.1
40564.9
51511.2
62662
70055
85016.4
353023
195367
153130
109281
133105
156183
155225
111521
53979.9
22337.6
11105.5
8443.21
8510.26
11126
17793.3
27051.6
36568.3
45824.3
52868.6
67558
333780
203350
171857
125411
137976
154499
153220
114046
66217.6
33813.2
16278.4
8771.49
8187.76
9023.37
12296.5
18446.8
25412.9
32815.1
40046.8
54745.4
343680
226753
202870
145881
143893
154999
151921
116927
76961.9
45379.1
23551.7
11929.6
9276.61
9476.61
10455
13054.8
17109.6
23502.9
30957.6
45229.3
371737
269289
248498
170830
152598
156769
152166
120762
84934.8
54622.5
32448.2
19312.7
13211.8
10937.6
10636.4
11075
12924.3
17931.9
24726.4
37549.5
418581
332462
308900
203048
166066
159756
153333
124282
91016.1
63010.3
43139.8
29224.4
20058.6
14143.4
11355.5
11510
13122.7
16847.9
21424.5
31272.7
472279
408907
391319
253131
187265
164368
155764
127343
97010.3
73134.4
54429.9
39199.9
27604.9
18864.4
13723.3
13636.9
14797.4
17693.7
20390.6
27772.3
525957
481204
499628
343912
218903
173040
160125
131378
104551
84259.5
65709.6
48813
35525.9
25956.6
19804.2
18171.6
18421.9
19189
20751.4
27483.3
577478
546622
587800
476015
280431
194211
167652
137134
112255
91762.6
73292.2
56296.8
43477
34227.2
27599.3
23776.9
21549
21328.2
22427.2
28694.3
642226
618937
661441
644155
476641
308061
219392
166360
134028
109050
89008.9
72307.5
59736.3
49982.1
41770.3
34937.8
30448.4
28978.2
29797
34123.7
2.07606e+06
1.85217e+06
1.69802e+06
1.19007e+06
1.02416e+06
1.03832e+06
1.02257e+06
880655
703462
551061
437392
381704
359816
369377
397731
441746
490757
543256
594661
663923
1.84498e+06
1.81075e+06
1.04388e+06
687463
841523
996991
997173
819526
543477
344127
238607
215339
224769
250008
294685
356518
424965
491554
552964
630098
1.73568e+06
1.09404e+06
558026
483377
818806
1.00685e+06
1.00662e+06
801893
426221
220883
161845
168097
189594
223299
271203
334158
417442
513286
586090
663463
1.19403e+06
674224
464308
361302
665448
984186
1.04843e+06
905163
393261
99878.6
105872
118261
137180
161214
190456
229256
292093
393897
516945
658355
993812
775593
741936
571582
73701.6
121370
131663
138298
144607
152441
163631
179820
203829
244202
322273
519867
984459
936244
959549
941684
160524
167581
163955
160792
159818
160268
161698
164461
169779
183041
212589
346748
971335
950538
974299
1.01818e+06
175358
165604
162556
159871
157792
156020
155996
156739
158802
163689
173422
238903
836471
783390
772772
876464
141122
106366
111700
115135
117438
120066
123431
126357
129235
133663
140289
176651
665876
514537
405111
362887
73555.8
156383
171887
137273
16554.4
26696
41498.6
55094.5
67822.1
78306.5
85959
92040.5
98071.7
105376
112887
137671
518807
321984
208805
95483.7
118684
164533
162687
104660
28112.5
10854.9
14151.5
22851.7
34738.6
46368.6
55231
63752.2
73923
84162.3
91412.2
110129
412352
223870
153645
101719
129163
160958
159749
110468
43193.6
14945.5
10209.8
11892.4
16554.2
23742.2
32843.6
43562.3
54852
65411.8
72071.9
87937.7
360184
202140
160023
114280
135496
157648
157199
114254
56681.2
24458.9
12493
9114.01
9152.22
12416.4
20080
30038.5
39356.9
48104.3
54905.8
70049.8
342358
210925
180400
132213
141127
156295
155268
117009
69401.7
36755
18032
9559.29
9094.64
10209.4
14083.6
20576.4
27340.6
34964.1
42340.2
57284.9
353792
235953
211090
154002
147973
156844
153912
119938
80067.8
48614
25921.2
13508.1
10569.8
10855
11876.3
14423.3
18814.5
25922.4
33637.3
47849.3
384384
280858
256323
179693
157850
158711
154153
123493
87772.9
57772.6
35411.2
21847.2
15112.2
12315
12034.1
12844.7
15353.4
21057.7
27772.1
40341
432129
346949
318059
213130
172343
161989
155247
126484
93854.7
66440.6
46330.4
32215.5
22184.1
15571.9
13181.4
13665.1
15843.1
19792.4
24225
34368.7
484808
422811
403524
266018
194351
167257
157692
129384
100023
76706.5
57631.5
41892
29631.2
20776.9
16214.3
16379.6
17725.2
20275.4
23068.5
31112.5
538802
494308
509472
359755
229520
178220
162788
133903
107552
87092.3
68386.6
51176.7
37907.7
28590.4
22879.8
21043.8
20827.9
21544.7
23541.2
30774.9
589603
556446
591559
488541
298078
203809
172114
140510
115228
94400.7
75394.3
58539.8
45880.1
36849.2
30321.5
26255.3
24075
24122.2
25433.9
31788.2
652792
625958
663031
643879
492923
328489
233177
175216
139684
113123
91860.4
74728
61909.3
51998.6
43851.7
37428.3
33460.7
32108.3
32756.9
36676.6
2.11329e+06
1.89725e+06
1.77964e+06
1.26317e+06
1.07215e+06
1.06706e+06
1.04811e+06
906043
728980
573778
458222
399032
376745
387753
417698
461413
508799
560965
611597
679274
1.88938e+06
1.8516e+06
1.17349e+06
747486
856576
1.01062e+06
1.01651e+06
839366
564604
361344
255017
230510
240701
268075
315155
378743
446242
511351
571571
645966
1.80079e+06
1.24016e+06
610253
510906
820540
1.01592e+06
1.02425e+06
819228
444201
234736
176488
183752
206619
242100
292132
358664
445607
540737
610566
683346
1.26275e+06
740935
493360
385392
671965
986989
1.0592e+06
920276
406319
107384
114453
129208
151067
177381
209699
253126
323537
429295
555585
688576
1.03819e+06
791721
746327
580639
80301.4
127542
138773
146710
154623
164442
177992
197031
224877
272138
361650
564267
1.00555e+06
943693
964920
944700
162646
174218
171029
169169
169566
170848
173312
177325
184442
201635
238217
388648
987536
959497
981205
1.02478e+06
177776
172626
169940
167885
166851
166282
166573
167837
170788
177373
190225
269422
851815
790246
775316
882561
144232
111129
117530
122041
125246
128432
131792
135269
139367
145317
153627
198153
680899
521064
406234
363120
78335
159670
176411
141148
17614.2
27719.3
44143.1
59546.5
73112
84253.8
93122.5
100503
107447
115261
123634
153548
534376
330003
214173
101807
125402
171541
170426
110748
30521.2
12260.2
15566.3
24741.3
37856.6
51183.8
61706.3
71536.7
82099.6
92442.6
100722
123037
429717
236212
164759
109723
136786
168187
167720
117344
47443.9
16915.1
11233.5
12987.3
18587.8
27525.5
38187.9
49730.1
61551.2
73035.6
80406.3
98538.3
375500
214968
173502
125160
144214
165552
165661
122149
62591.2
27523.2
14029.1
10508.5
10860.3
14981.3
23700.6
34689
45087.2
54796
62050.2
78683.1
357605
224758
196008
146178
151274
165773
164576
125705
76014.3
41227.4
20964.7
11581.4
10891.2
12101.3
16330.8
23825.2
31695.6
40219.4
48285.1
64640.5
370297
251868
228024
169952
159880
167108
164535
129029
87128
54728.1
30732
16674
12619.5
12809.6
13952.9
16743.8
21862.5
30099.4
38779.5
54331
403224
299766
274991
198162
171860
170022
165179
132696
95736.3
65242
41584.9
26092.6
17853.6
14645.6
14409.5
15446
18525.4
25200.3
32675.7
46094.3
452086
368727
340510
234840
188699
174580
166958
136446
103032
74868.9
52972.7
37270.7
25982.4
18525.5
15978.8
16604.8
19346.1
24150.3
28918.3
39573.8
505529
445449
430011
292770
213675
181493
170296
140543
110181
85418
64637
47774.5
34403.6
24527.9
19672.6
20036.6
21835.2
24565.6
27306.9
35927.6
562322
518923
537181
390784
253818
195466
176909
146498
118262
95910.7
76339.6
58007.5
43581.4
33301.6
27373.6
25594.2
25060.3
25630.4
27850.3
35767
616143
582295
619750
523261
330738
226405
188760
154564
126856
104194
84137.2
65978.2
52162.7
42353
35453.8
30961.9
28270.3
28400.9
29940.5
36962.6
681758
653277
690697
676014
533037
365372
260895
195953
155912
126312
102815
83597.5
69367.7
58399.9
49418.6
42340
38042.7
36976.7
37870.4
42084
897316
501397
910498
645766
897001
575219
902425
1.06111e+06
976379
1.06726e+06
979564
1.05094e+06
963826
1.05214e+06
1.00736e+06
1.07459e+06
1.0002e+06
1.057e+06
994466
1.05769e+06
981720
646488
936540
546680
916030
645754
919653
550489
532823
870187
882690
598737
495057
857533
865436
90471.9
161003
155555
82836.1
89048.5
154373
151026
946328
1.03115e+06
1.03615e+06
946479
933224
1.02005e+06
1.01907e+06
177771
192104
191227
168233
171320
184086
185145
1.04254e+06
976369
966449
1.02556e+06
1.02526e+06
964702