/*--------------------------------*- C++ -*----------------------------------*\
  =========                 |
  \\      /  F ield         | OpenFOAM: The Open Source CFD Toolbox
   \\    /   O peration     | Website:  https://openfoam.org
    \\  /    A nd           | Version:  9
     \\/     M anipulation  |
\*---------------------------------------------------------------------------*/
FoamFile
{
    format      ascii;
    class       surfaceScalarField;
    location    "0.007";
    object      phi;
}
// * * * * * * * * * * * * * * * * * * * * * * * * * * * * * * * * * * * * * //

dimensions      [0 3 -1 0 0 0 0];

internalField   nonuniform List<scalar> 
28500
(
-136.561
-136.885
4.53069
-110.091
-136.329
6.62014
-110.438
-173.134
5.51737
-99.5758
-231.493
-1.10935
-57.1078
-292.587
-3.41201
1.42802
-286.351
-3.38784
61.6737
-284.497
-4.16361
135.905
-289.711
-3.49131
204.829
-277.854
-4.74111
255.472
-234.307
-2.05939
291.033
-191.674
-4.07593
314.106
-161.832
-1.09506
331.824
-140.681
2.82049
343.013
-126.245
1.79035
347.996
-111.563
-1.02718
350.958
-100.361
-1.0732
355.354
-89.9697
1.36399
360.991
-85.4742
1.9612
367.911
-81.3071
1.27046
-75.5049
-0.0415005
-136.237
-108.733
7.14395
-137.136
-135.42
7.39575
-186.791
-213.173
7.64673
-139.97
-254.961
-2.81396
-65.6382
-288.27
-4.2069
-0.798657
-284.402
-3.2764
65.3301
-282.974
-3.77715
157.08
-287.428
-2.90775
249.516
-262.665
-3.94851
308.418
-193.281
-0.0798029
344.464
-150.721
-2.231
365.184
-133.108
0.912457
378.469
-114.362
5.131
385.125
-104.715
3.5107
383.722
-91.2428
-0.448252
377.331
-80.2203
-1.71954
375.445
-71.3435
1.23887
376.035
-65.0186
3.10215
378.015
-63.9435
2.52611
-62.7623
1.11949
-171.662
-106.929
7.07369
-213.836
-183.511
9.05222
-220.682
-219.353
0.552414
-161.693
-63.5142
-6.79841
-65.0025
-64.3652
-66.3509
-70.1722
-69.2704
-2.71851
-70.2726
-70.5322
-71.1856
1.12492
-69.6529
-1.94242
-70.2844
-70.413
-70.9412
72.0985
-69.6131
-2.59482
-69.8933
-70.2388
-70.5497
169.925
-69.9148
-2.05454
-70.1815
-70.5514
-70.985
271.468
-63.1737
-0.733089
-51.0759
-64.4305
-52.1855
330.04
-167.385
-0.825768
370.793
-152.313
1.12509
404.388
-149.046
-2.08464
427.201
-139.6
-2.38413
441.578
-129.395
-3.08458
445.83
-113.779
-3.6196
441.486
-96.0816
-4.20171
431.446
-74.7963
-4.37185
416.208
-53.6473
-2.14597
407.074
-44.9925
-0.537489
-41.7171
-0.668091
-230.165
-96.5112
1.69862
-255.062
-138.44
1.19251
-64.465
-162.526
-0.442775
-65.7671
-64.3311
-65.9599
-59.0754
-57.9111
-1.24873
-28.8978
-1.5809
47.7452
-17.3688
-16.8906
-16.8924
-17.3141
18.6311
-8.31881
-0.447017
-17.3823
-17.2999
-17.3319
-17.3754
-0.296913
8.86268
-0.862519
-17.4695
-17.2026
-17.2147
-17.4598
-19.1363
29.3881
-0.899075
-17.6838
-17.3077
-17.3329
-17.6445
-51.9747
65.7279
-59.0036
-1.57077
469.572
-130.18
-4.64509
-89.723
-112.995
-89.8192
-113.28
503.161
-132.579
-3.0753
519.068
-132.676
-8.03482
526.017
-125.852
-10.4502
529.415
-116.664
-9.21732
528.771
-105.229
-6.65976
524.482
-91.4705
-4.65467
511.67
-74.5477
-7.62015
488.252
-54.0723
-8.12976
457.193
-26.1309
-0.191525
-10.528
-4.45762
-292.061
-56.2241
-3.11127
-287.907
-65.5925
-3.47413
-69.5068
-70.7666
-2.07142
-70.446
-70.0871
-70.9205
-28.7296
-0.443037
48.3172
-17.5282
-17.5791
-17.7292
-17.5109
6.22851
30.4145
-7.76823
-0.825153
578.874
-73.5379
-7.78749
-141.166
-143.866
-142.818
-145.811
583.127
-72.6588
-9.16907
586.854
-70.0438
-8.83149
588.593
-67.4083
-9.29033
588.172
-64.763
-8.64139
585.758
-61.3252
-8.851
579.945
-56.6284
-10.2862
569.998
-50.4743
-7.41416
556.087
-37.7319
-9.37825
525.038
-8.52032
-7.25897
17.6515
-5.96406
-286.865
1.49063
-3.59552
-284.828
-0.881565
-3.60019
-69.8202
1.04589
-2.54696
-70.5485
-70.3118
-71.1206
18.6079
-8.27037
-0.440948
-17.3769
-17.47
-17.4541
-17.3575
3.86595
36.1293
-2.71441
-0.575152
586.959
-0.925899
-7.57988
-144.612
-146.205
-146.593
-148.207
587.624
-1.30653
-8.20254
587.646
-1.7459
-8.62311
587.166
-2.21664
-9.24915
586.414
-2.11175
-9.65114
585.832
-1.5198
-9.15766
585.396
0.0152525
-10.0734
583.94
2.9513
-9.40649
580.272
5.92997
-9.106
570.767
14.6423
-8.64077
41.8901
-6.32942
-285.205
61.9284
-5.69806
-283.503
65.5544
-5.32049
-69.7275
72.5115
-3.95006
-69.8843
-70.3015
-70.6405
-0.312414
8.8269
-1.25551
-17.5213
-17.2739
-17.2866
-17.512
0.00946179
36.3959
0.85164
-0.560473
593.175
69.4536
-7.64269
-146.79
-147.184
-148.729
-149.204
594.404
67.9907
-8.81584
595.312
65.5123
-8.71795
595.829
63.2399
-8.42629
596.432
61.8586
-8.87552
597.447
60.6251
-9.50502
598.119
59.3644
-10.0251
598.029
59.4637
-9.87217
596.01
58.7847
-9.44372
591.864
59.6411
-9.23814
73.1914
-7.67405
-290.891
136.543
-5.03192
-288.185
157.957
-4.67863
-69.7976
170.684
-3.92751
-69.9975
-70.5005
-70.8021
-19.1193
29.4883
-1.45829
-17.5678
-17.4018
-17.4031
-17.436
-3.86881
36.7846
5.24907
-0.579495
600.734
182.953
-9.5493
-147.899
-147.985
-149.84
-149.889
604.561
174.171
-6.32778
605.2
166.427
-5.59949
605.5
158.956
-9.29493
607.071
149.041
-12.6186
607.917
142.023
-10.4927
608.711
134.585
-7.15384
609.171
128.315
-6.93256
607.845
122.558
-8.60718
604.97
115.385
-9.06792
116.301
-7.66987
-278.111
205.763
-6.58268
-262.19
251.066
-6.71958
-62.5328
272.934
-5.08452
-50.9016
-64.4831
-52.7193
-51.4801
-58.5144
67.1207
-2.25299
8.54643
-6.98249
33.6746
-1.17423
3.87544
-2.72393
35.2532
-0.605852
-0.063379
0.94728
35.5456
-0.583911
-4.01251
5.37186
35.9891
-0.575492
-9.33098
-11.3443
123.354
129.236
-2.71402
-15.7651
-8.5414
-15.0386
-16.6899
-13.7372
-17.6624
565.59
347.573
4.2251
-135.843
-119.633
-136.677
-120.706
580.613
293.636
-3.75727
592.553
275.693
-17.7869
597.145
256.683
-16.2682
602.078
236.721
-8.66964
607.105
219.736
-3.21776
609.145
207.588
-5.08833
612.672
194.375
-10.7596
615.5
183.645
-12.2889
614.166
171.721
-10.6393
164.681
-7.96532
-233.309
255.863
-5.86126
-192.243
308.918
-6.14198
-167.187
330.982
-7.10912
-132.457
467.247
-6.09919
-90.5873
-113.871
-90.4659
-112.855
-74.0613
567.739
-8.25428
-139.05
-140.88
-140.545
-142.948
0.467018
574.256
-7.8285
-141.222
-142.852
-143.316
-145.03
72.7295
581.39
-7.44632
-143.472
-144.082
-145.669
-146.342
192.241
587.935
-8.90754
-145.48
-146.206
-147.946
-149.167
329.488
563.625
2.51252
-136.566
-125.708
-139.594
-128.119
455.917
486.828
-5.96832
516.318
390.013
-37.7194
548.743
350.758
-19.1169
563.821
331.203
0.151749
570.454
308.655
3.86579
581.931
287.09
-3.69125
593.7
270.13
-14.2449
598.565
252.692
-16.6209
605.119
236.874
-9.94908
609.397
224.882
-6.5326
210.846
-6.03828
-190.878
290.792
-8.10283
-151.201
344.094
-8.57874
-154.185
371.583
-4.99756
-134.412
497.939
-6.11836
-72.4329
572.113
-9.36641
0.152203
575.125
-8.60865
70.8573
582.72
-8.52143
176.792
590.252
-6.87341
295.804
570.724
-0.995247
385.553
532.396
-25.9511
445.748
467.653
-25.0836
494.212
406.76
13.4594
519.642
384.823
14.0987
535.958
368.62
-4.84951
551.673
345.184
-17.7854
566.026
322.639
-21.1355
573.674
306.411
-12.128
581.561
285.588
-4.49791
591.595
276.451
-5.83793
255.617
-6.8912
-161.147
313.991
-4.87912
-132.482
365.321
-4.98019
-149.863
402.933
-5.88775
-133.215
511.556
-10.7743
-69.391
576.037
-9.06175
-0.412457
575.46
-9.04716
67.4085
583.947
-8.39488
166.449
590.768
-5.75276
270.537
581.107
-14.3432
346.331
547.775
-18.7314
396
504.215
17.8423
442.287
455.426
21.1459
495.252
432.919
-4.31189
513.028
411.968
-19.7494
516.936
392.023
-20.2765
528.647
368.55
-10.3741
542.153
355.789
-5.91825
555.854
335.511
-4.03559
571.725
325.178
-7.41991
298.859
-9.42385
-141.596
332.146
-0.48121
-115.042
379.312
0.699367
-139.635
424.305
-5.14296
-125.218
517.968
-12.1716
-66.3901
577.966
-9.7995
-0.863102
575.207
-9.74066
64.4581
584.626
-8.60009
157.274
591.338
-8.61014
249.833
585.871
-15.4032
324.369
557.869
-2.23822
377.794
517.172
13.4685
420.383
494.548
-1.2174
473.227
482.005
-16.8419
493.3
449.482
-20.1142
494.746
429.082
-4.68358
503.051
403.713
4.52689
521.627
396.696
2.07688
538.388
379.974
2.1887
553.878
364.351
-8.43987
336.755
-12.3984
-127.922
343.278
-1.09726
-107.248
386.421
0.608079
-129.328
439.521
-4.16275
-115.885
521.929
-10.7262
-63.721
577.528
-9.11759
-1.09641
574.462
-10.0517
62.5096
585.484
-9.59842
147.833
593.249
-10.9867
230.944
590.72
-9.88429
300.834
564.359
2.78418
359.017
530.319
-1.90528
400.299
504.25
-17.3426
436.787
491.263
-19.2031
467.854
472.454
-12.7293
485.475
456.598
3.33434
499.726
433.6
13.4407
511.124
426.14
7.89092
518.788
410.708
-2.42375
528.71
394.411
-12.7484
370.203
-11.3479
-113.124
347.729
-4.03576
-94.0095
385.414
-2.32793
-114.031
444.829
-3.59444
-104.531
521.542
-7.69179
-60.272
574.989
-9.91205
-0.657811
573.704
-9.76823
60.4879
586.493
-10.2521
139.916
593.815
-8.88223
215.478
596.102
-3.85582
280.057
575.461
-1.734
335.246
545.892
-13.3836
380.601
509.597
-19.8166
419.326
485.941
-10.1585
446.419
480.504
-1.27962
475.283
479.661
6.18188
494.246
465.067
12.1513
501.137
450.483
0.224099
501.772
429.914
-11.5387
509.365
417.471
-11.0342
398.856
-6.00142
-101.61
350.066
-4.27787
-82.0148
377.712
-3.74483
-96.9326
441.027
-3.83943
-91.095
517.873
-4.50014
-55.4731
569.248
-10.8491
0.865324
572.784
-10.9175
59.0475
587.073
-10.5779
132.191
594.213
-7.34519
203.33
598.325
-3.91764
263.968
586.562
-9.98908
314.042
560.663
-17.7757
358.9
523.255
-11.2153
394.997
494.477
0.264434
422.694
486.512
6.09959
455.914
487.5
6.04119
476.458
475.405
2.69597
482.451
457.954
-8.74432
485.415
439.072
-11.1516
496.059
433.907
-0.614454
419.768
2.74573
-90.0198
354.189
-2.03286
-72.02
374.446
-1.57527
-76.3581
431.057
-3.87716
-73.8975
506.765
-7.28175
-49.3506
559.71
-6.9065
3.56015
570.863
-9.90238
58.9075
586.923
-10.1926
126.276
594.704
-7.98622
190.459
601.338
-8.08254
247.58
590.832
-13.1167
300.045
569.055
-9.62605
348.032
538.965
-4.69244
387.331
514.195
1.58587
413.964
496.267
3.6265
440.33
488.345
-5.45274
455.411
473.821
-11.315
463.243
459.758
-10.749
473.797
451.469
-1.01028
487.8
450.65
11.3571
436.623
11.5498
-85.3405
359.902
-1.35594
-65.5625
374.47
-0.47519
-54.5014
415.69
-1.96405
-53.1426
484.405
-6.68911
-37.3872
546.323
-9.49521
6.68044
567.222
-9.72891
58.1008
584.953
-9.61592
120.093
593.397
-9.81033
179.801
603.385
-10.0064
232.96
596.76
-6.78062
281.072
577.493
-1.34587
329.293
553.295
-0.623752
369.76
531.23
2.56521
397.805
507.176
-4.91918
418.076
489.427
-14.7027
432.679
474.165
-11.9405
448.679
467.276
-0.500283
468.567
467.845
10.8247
478.844
461.368
12.3841
446.603
7.91472
-81.678
367.02
-1.90007
-64.2853
376.56
-0.958157
-44.7446
405.723
-2.04616
-26.0768
453.078
3.21659
-8.47023
516.451
-5.29006
16.0034
557.941
-8.6565
59.1233
580.818
-9.09398
113.092
590.879
-9.73169
167.295
601.444
-9.28995
220.663
600.331
-3.23223
271.814
587.236
-1.55875
318.926
568.142
-3.07682
355.472
547.928
-5.81654
384.167
519.878
-11.1441
408.744
498.501
-10.2024
427.165
484.026
-0.0715712
444.193
478.73
10.5164
459.193
474.728
12.0709
467.978
466.008
5.83953
452.005
1.50514
-76.2427
-2.89576
-63.1375
-2.24636
-41.7983
-3.04829
-10.9766
-3.30577
17.6445
-3.52667
41.891
-5.3847
72.3902
-6.94347
114.392
-7.65918
160.564
-6.93496
206.576
-3.29803
250.694
-3.06215
293.207
-5.07555
330.018
-8.03393
362.972
-7.23225
392.426
-2.55549
414.287
4.0381
431.288
10.9973
443.48
7.78697
451.533
1.49934
1.87592
-136.024
-137.044
6.12407
-110.827
-137.15
9.2962
-114.226
-179.67
14.1408
-103.333
-244.4
6.70462
-58.5738
-299.726
1.72215
1.38858
-291.531
-0.0153233
61.8431
-289.487
-1.35145
136.822
-294.846
-0.632379
206.107
-282.67
-1.26478
256.743
-238.551
2.00112
292.303
-194.736
0.896393
315.31
-163.556
2.91918
333.262
-141.8
6.50236
344.643
-127.223
6.87259
349.305
-112.315
3.8605
351.924
-101.193
2.81379
356.181
-90.2852
4.19839
361.706
-85.5006
4.62972
368.402
-81.4993
3.73093
-76.0365
2.22289
-135.665
-109.729
9.80908
-142.84
-141.143
11.9884
-191.75
-224.074
24.2442
-142.279
-268.823
4.51674
-64.2068
-294.305
-0.453836
-0.261404
-290.833
-0.170363
65.3688
-289.122
-1.2505
157.604
-293.772
-0.385788
251.113
-268.437
-0.357076
310.848
-199.226
3.67073
346.646
-154.302
3.79267
367.606
-135.158
5.14926
381.859
-115.15
10.2411
388.888
-105.128
10.3374
387.607
-91.6763
6.2361
380.276
-80.2964
4.53041
377.13
-70.9899
5.64344
377.146
-64.4033
6.14436
378.614
-63.1847
5.14014
-62.3583
3.43583
-175.374
-110.305
13.6044
-222.341
-191.243
23.8025
-224.675
-225.563
5.13683
-160.061
-66.2168
1.34179
-67.6647
-66.7918
-68.4991
-68.204
-72.5644
0.53328
-72.8537
-73.5414
-73.5399
1.04789
-71.9071
0.808267
-72.4238
-72.6352
-73.1001
71.8153
-71.6768
-0.756966
-71.9829
-72.3187
-72.664
170.515
-71.9665
-0.122773
-72.4113
-72.6267
-72.9594
273.711
-65.6303
3.95062
-53.8676
-65.5701
-53.7697
334.228
-171.022
3.64199
375.968
-154.437
6.98908
410.679
-152.071
5.57247
433.269
-142.02
5.45655
447.365
-131.629
5.07219
451.549
-115.845
3.98039
446.965
-97.626
3.39622
436.08
-76.2401
3.1454
419.762
-53.6148
4.12123
408.851
-43.0827
3.67992
-40.3155
1.63186
-239.659
-100.3
7.47802
-263.672
-142.87
4.50979
-65.7754
-163.31
-2.0843
-67.1837
-66.6234
-67.744
-0.295618
-59.7036
-59.8039
0.784868
1.04412
-27.8971
0.0638757
48.1112
-18.5401
-18.5676
-18.332
-18.6566
-0.0439014
18.2415
-8.23704
0.378307
-18.0921
-17.9446
-17.9561
-17.9619
0.396587
-0.223172
8.75638
-0.231691
-18.0417
-17.7217
-17.9678
-17.7874
0.381655
-19.0831
29.234
-0.304983
-18.2434
-17.8644
-18.1948
-17.9459
-51.8771
-0.139959
65.834
-61.3578
0.37331
479.836
-131.835
4.48543
-91.229
-114.664
-92.2138
-117.619
513.445
-133.376
4.94505
529.602
-134.126
1.7586
535.977
-127.239
-0.741967
538.707
-118.075
-0.182024
537.449
-106.767
2.24834
532.776
-93.0672
5.4934
520.129
-76.5143
2.98411
496.128
-56.0799
0.406356
463.56
-26.7543
9.49489
-9.24077
1.77144
-297.857
-58.1342
0.986046
-292.514
-66.0804
-2.11561
-71.1092
-71.1264
-1.11805
-72.0178
-71.7851
-72.6289
-0.356344
-29.0503
0.203224
47.6692
-17.6366
-17.2044
-17.6937
-17.2767
0.0879326
5.99092
30.379
-7.70779
-0.0212257
591.436
-73.756
-2.99005
-145.032
-147.97
-146.205
-148.666
594.637
-72.596
-3.70376
597.856
-69.9811
-2.88119
599.339
-67.3677
-2.89916
598.566
-64.8706
-1.69318
595.8
-61.7375
-1.15119
589.806
-57.1663
-2.45305
579.323
-51.518
1.92087
565.469
-39.9909
-0.848243
535.112
-11.1652
4.20995
17.4516
4.25243
-291.369
1.20482
-0.670917
-290.5
-0.680734
-1.32714
-71.5232
1.04935
-0.732277
-72.4176
-72.0934
-72.9785
0.120011
18.7123
-8.26995
-0.0625705
-18.0223
-17.7738
-17.9582
-17.8635
0.304153
3.78195
37.1835
-2.66588
-0.251709
599.447
-0.895477
-3.53654
-148.664
-150.291
-149.364
-151.012
599.297
-1.31628
-3.15808
598.813
-1.55251
-2.77751
597.777
-1.93444
-2.58451
596.425
-2.05836
-2.37222
595.277
-1.57315
-1.35255
594.438
-0.190153
-1.96076
592.764
2.33587
-0.873663
589.238
5.08635
-0.313357
580.489
12.8879
1.65239
40.2389
5.36607
-290.071
61.8373
-2.58365
-289.421
65.5373
-2.15159
-71.6387
72.2675
-1.46155
-72.0165
-72.2779
-72.6194
0.795413
-0.267637
8.74336
-0.583062
-18.0303
-17.747
-17.96
-17.796
0.310944
0.0231156
37.4631
0.823446
-0.270103
606.569
69.8272
-3.15316
-150.856
-151.363
-151.68
-152.263
606.964
68.0322
-3.66162
606.989
65.8414
-3.17824
607.287
63.7203
-1.81911
607.6
61.819
-1.45632
608.003
60.604
-1.6552
608.226
59.2625
-2.04089
607.973
58.9212
-1.81852
605.943
58.4666
-1.24101
601.953
58.9725
-0.296045
71.5483
3.15256
-295.833
136.943
-1.7997
-294.179
157.866
-1.89157
-71.7836
170.613
-1.78559
-72.1141
-72.4976
-72.8419
0.960271
-19.0313
29.1794
-0.734039
-18.0758
-17.8599
-18.0258
-17.9373
0.307196
-3.78289
37.8054
5.13746
-0.25869
614.228
183.237
-5.32993
-152.085
-152.036
-153.078
-153.427
616.995
175.471
-1.39299
617.726
167.019
1.49433
617.618
159.513
-0.533226
618.359
149.583
-4.54553
618.4
142.22
-3.88923
618.37
135.449
-0.0403531
618.507
128.832
2.0927
617.203
123.311
0.584858
614.491
115.921
-0.0875224
115.903
2.25478
-283.192
206.808
-3.28359
-268.057
252.256
-3.35366
-64.6625
274.482
-0.240054
-52.9432
-65.497
-53.4969
-51.0843
0.774239
-60.6796
66.7075
-0.562801
0.245763
8.18765
-7.07395
33.6901
-0.322281
0.318746
3.77777
-2.66218
36.49
-0.262801
0.301332
-0.0592388
0.927851
36.8746
-0.256336
0.298385
-3.92889
5.24279
37.4239
-0.25217
-8.59175
-12.6511
1.46687
124.333
134.303
-0.177808
-14.9874
-8.56614
-14.9477
-17.769
-12.7603
-17.816
578.323
355.253
8.08774
-138.19
-121.856
-139.679
-124.195
593.01
296.86
6.97308
605.227
276.224
-7.6108
609.544
257
-10.7355
613.385
238.676
-4.04741
618.218
222.292
4.82801
619.764
209.371
5.55358
622.248
195.978
-0.00442196
625.079
184.713
-3.61351
624.283
172.873
-2.37767
165.265
2.01896
-238.805
257.337
-1.81175
-197.974
311.577
-2.42009
-169.755
334.225
-2.77028
-132.536
478.263
0.224739
-91.559
-116.094
-91.9865
-117.259
-73.9555
585.343
-4.11928
-143.998
-146.176
-145.407
-147.721
0.566248
592.359
-4.1099
-146.543
-148.379
-148.142
-149.986
73.2624
600.563
-3.1551
-149.084
-149.83
-150.742
-151.555
193.347
608.31
-5.84659
-151.532
-152.774
-153.231
-154.432
335.803
582.129
7.00023
-142.404
-130.325
-143.983
-131.292
467.14
498.724
19.1825
528.969
398.098
-27.815
557.374
353.012
-19.3339
575.977
333.644
3.56983
583.796
312.083
15.6944
593.486
290.519
11.9424
605.139
272.566
-1.70075
609.255
254.753
-8.73314
614.601
239.143
-2.37855
618.664
227.324
3.75418
211.981
5.24485
-194.802
292.031
-2.82745
-154.021
346.49
-2.32972
-153.744
375.726
0.339819
-133.24
509.765
0.706994
-72.4163
587.815
-4.29045
0.243891
591.561
-4.02878
71.081
599.944
-3.62149
178.155
608.414
-2.37495
296.365
588.87
9.37741
391.56
547.18
-20.5725
453.278
474.115
-31.325
503.192
411.796
14.0926
528.863
383.751
32.2296
547.071
369.623
17.2553
563.727
348.378
-4.10199
577.803
324.979
-13.0196
586.463
309.52
-4.40407
593.214
288.21
9.17373
601.109
278.344
8.48036
257.182
4.63901
-163.269
315.052
-1.03935
-134.761
367.707
-0.847615
-150.721
409.199
0.908189
-133.555
524.489
-2.01519
-69.5565
590.537
-3.40513
-0.112081
590.699
-3.85523
67.976
599.636
-2.98464
167.463
608.069
0.785167
272.142
598.202
-5.78933
350.039
562.521
-17.5824
402.448
517.581
18.8245
443.83
458.425
41.7329
493.48
428.075
20.0495
520.459
412.983
-10.9217
527.731
393.862
-15.7267
541.658
371.172
-2.90905
554.339
357.342
10.821
564.622
336.578
13.0801
579.605
327.002
3.07724
301.121
-0.639642
-142.815
333.592
2.54547
-115.835
382.782
4.87317
-141.077
431.014
3.57654
-126.606
530.456
-2.61621
-66.6356
591.813
-3.8636
-0.472373
589.45
-3.69295
65.1322
599.561
-2.30844
158.345
607.443
-0.943357
250.961
601.876
-10.0596
327.935
573.12
3.37131
378.129
532.052
32.9124
418.541
499.972
22.9686
473.183
481.87
-10.1508
499.064
451.447
-21.1083
504.109
431.543
1.4394
511.266
406.808
21.331
526.13
398.542
20.581
544.476
381.567
10.3337
563.29
368.481
-1.64619
339.596
-2.51147
-128.754
345.11
3.19433
-107.451
390.294
6.25728
-131.769
446.147
4.12455
-117.758
533.571
-1.43608
-64.0915
590.881
-2.77458
-0.949019
587.771
-3.48928
62.6759
599.521
-2.53473
148.558
608.215
-4.40596
233.08
604.356
-4.66589
305.209
578.724
14.8536
361.831
544.763
18.5138
403.794
517.508
-7.13124
440.839
500.555
-18.7185
471.664
478.43
-3.44147
488.161
458.363
27.9558
498.86
434.324
30.1004
514.502
427.885
15.1707
528.639
415.754
-0.105238
539.118
399.573
-4.19766
372.315
0.789185
-113.824
349.163
1.26179
-94.2293
389.265
3.85609
-116.836
451.406
3.62245
-106.784
532.464
1.29193
-61.0429
587.913
-2.58303
-0.661102
586.2
-2.74077
61.0409
599.535
-2.84596
140.74
608.119
-3.38428
217.759
608.384
3.92556
283.943
587.475
11.6694
340.442
559.867
-1.22492
385.49
523.788
-13.9654
423.897
499.375
0.00385794
449.835
485.196
25.7752
475.919
479.537
32.9927
496.559
467.442
21.9062
508.472
455.271
4.58281
510.223
437.774
-4.2247
516.361
420.647
3.73576
399.487
7.60358
-102.444
351.057
0.849392
-82.1184
380.76
2.44575
-99.283
447.343
3.35303
-93.5286
528.214
5.63952
-56.4376
581.915
-3.18569
0.682382
584.709
-3.61362
59.4467
599.508
-2.98074
133.467
607.669
-0.423038
204.945
610.207
4.98678
266.765
598.579
-0.240428
317.828
573.525
-10.3247
363.421
537.053
-2.54162
399.148
505.682
18.8674
425.22
488.978
25.5558
456.86
491.369
19.371
482.257
484.037
9.03213
491.632
467.772
1.23453
493.291
446.413
9.06558
500.234
434.975
20.1589
420.662
15.6852
-90.4191
355.008
2.38772
-71.7272
376.213
3.94472
-78.3704
436.478
3.34429
-76.9705
516.914
3.15665
-51.1866
571.65
2.15102
2.86081
582.452
-2.28771
58.733
599.026
-2.56138
126.993
607.401
0.649035
191.825
612.897
0.265361
249.772
602.322
-6.33367
303.79
581.608
-2.03313
350.611
550.768
11.1494
389.858
520.834
19.4377
416.752
502.152
14.4659
443.23
495.238
1.67163
463.524
484.107
-0.15238
471.665
468.064
11.4532
479.103
454.644
26.4502
489.087
451.139
28.1658
439.038
22.1805
-85.4858
360.672
3.13608
-65.1972
376.117
4.71699
-55.1897
420.293
5.08711
-56.2895
493.44
1.46531
-40.4765
557.988
-0.816311
5.57972
578.773
-1.78238
57.9377
596.908
-1.81285
121.094
605.711
-1.17463
180.842
615.244
-2.63788
234.984
607.109
0.168083
283.858
588.673
11.1735
330.737
561.819
14.3136
372.94
538.379
11.9905
403.908
516.664
1.74493
426.078
496.191
-4.44557
440.042
481.245
6.87919
453.232
471.165
25.8104
468.305
467.124
30.257
482.337
465.339
25.4711
451.076
19.8531
-81.9153
367.607
2.54325
-63.8672
377.479
3.79183
-43.5784
408.395
4.18726
-27.5685
460.192
13.1541
-11.8608
527.87
5.90955
13.6845
569.938
0.696194
58.3849
592.83
-0.581565
113.648
602.9
-1.2937
168.744
613.892
-1.56854
223.124
610.671
5.81168
273.856
596.725
10.7084
321.119
575.993
5.87998
359.981
556.527
2.2883
389.441
529.053
-0.182177
412.025
504.636
4.90863
428.87
487.426
19.1988
445.172
479.381
25.9513
463.546
477.961
23.2713
473.113
470.816
18.4951
456.255
16.1053
-76.806
1.08786
-63.233
2.05506
-41.2946
1.08311
-10.4257
3.47704
16.8318
6.35429
39.9822
5.53891
70.6488
3.51301
113.982
1.83811
161.237
2.60487
207.538
6.83069
252.206
7.15711
295.416
2.88447
332.972
1.7628
365.121
4.82675
393.458
10.6177
415.879
16.6744
433.741
21.1804
447.892
18.5092
456.317
15.8471
16.1489
-138.133
-138.195
4.85267
-117.273
-140.378
8.11766
-124.217
-191.305
13.822
-109.403
-262.022
4.9962
-58.8755
-304.342
1.24971
1.62364
-297.031
-0.159178
62.1738
-295.264
-1.03099
138.246
-301.174
-0.650083
208.037
-288.793
-1.59343
258.95
-243.057
1.70223
295.321
-198.263
1.56684
318.036
-166.77
2.97088
335.838
-143.6
5.70766
348.284
-129.313
6.53724
353.411
-115.084
3.881
355.3
-104.207
2.75486
358.665
-93.4988
3.19313
363.681
-87.1655
3.29191
369.972
-82.8352
2.30168
-77.6439
1.14227
-139.392
-114.006
8.96507
-159.816
-155.547
11.514
-197.099
-233.324
18.8119
-146.603
-278.784
1.72526
-63.4281
-297.694
-0.468752
0.401044
-296.421
-0.106098
65.8438
-295.342
-0.987017
159.284
-299.675
-0.54259
253.645
-273.929
-1.7214
314.098
-203.196
2.53826
351.089
-153.789
3.84849
372.162
-138.283
4.34707
387.479
-116.637
9.62127
396.032
-105.871
10.7359
396.512
-93.4427
6.87573
389.788
-82.2212
4.63496
383.196
-73.175
4.847
382.123
-64.9842
4.51635
381.967
-63.0799
3.06448
-63.2869
1.8556
-186.798
-118.056
13.5447
-235.797
-197.784
19.1709
-229.273
-229.047
1.19601
-160.149
-68.1426
1.35712
-69.2664
-68.2084
-69.5492
-67.7435
-74.4583
0.516496
-74.1093
-74.6588
-74.1493
1.3586
-73.4876
0.67164
-73.9843
-73.6757
-74.3234
72.1489
-73.1557
-0.594022
-73.5513
-73.4294
-73.8322
171.714
-73.384
-0.586987
-73.7287
-73.5452
-73.6992
277.284
-66.946
1.29203
-55.0313
-66.2233
-54.342
338.357
-175.898
0.924375
380.953
-153.372
6.72972
420.951
-154.141
5.12029
446.211
-146.207
5.27142
461.104
-135.909
6.1146
465.891
-120.177
5.25943
462.085
-101.565
4.41193
451.039
-79.9751
3.57947
433.202
-56.0302
3.59032
417.712
-42.781
2.961
-40.5294
0.308629
-256.43
-106.703
5.67856
-275.864
-147.609
1.06734
-67.6147
-162.985
-1.81474
-68.5213
-68.016
-68.522
-1.22864
-61.0296
-61.5338
1.31215
-0.460029
-27.7237
0.855586
48.1404
-18.7243
-19.1587
-18.7409
-19.1795
-0.569662
18.1128
-8.16254
0.458356
-18.415
-18.3915
-18.389
-18.4653
0.179708
-0.2294
8.7509
-0.204596
-18.3956
-18.1105
-18.3516
-18.1588
0.257222
-19.1839
29.4819
-0.247606
-18.5913
-18.2144
-18.5561
-18.2532
-52.4618
-0.43659
66.6103
-63.0872
0.829758
492.468
-135.609
1.37904
-92.7829
-116.879
-93.9351
-122.045
527.779
-134.35
3.20483
547.218
-135.929
2.64476
554.783
-130.269
1.06309
557.969
-121.067
0.724776
557.217
-110.167
2.10158
553.321
-96.5731
5.72284
541.914
-80.5893
4.8331
517.94
-61.6936
0.9212
484.422
-30.8804
9.46263
-9.8296
2.95237
-304.202
-60.528
0.711336
-297.138
-65.9528
-1.62351
-72.8936
-70.955
-0.819653
-73.4557
-73.567
-73.8914
-0.0806089
-29.2516
-0.61217
48.2846
-17.9961
-17.6445
-17.8884
-17.6868
0.0398673
5.96154
31.3002
-7.73728
-0.00404378
608.269
-74.0861
0.233923
-147.932
-150.628
-151.949
-153.683
612.019
-74.1259
-0.721174
616.296
-71.133
-0.527596
618.931
-68.3692
-1.03419
618.997
-65.7399
-0.765835
616.803
-63.2055
-0.128803
611.559
-59.1743
-1.93075
601.169
-54.3235
2.10294
588.392
-45.2355
0.474917
561.43
-17.0598
4.62347
14.2886
5.03534
-297.237
0.501945
-0.678302
-296.276
-0.352988
-1.22223
-72.8721
1.16106
-0.532688
-73.6561
-73.4445
-73.8925
-0.0479428
18.7335
-8.19355
0.013293
-18.4254
-18.1315
-18.3356
-18.1712
0.167934
3.80917
37.6538
-2.68201
-0.145269
616.733
-1.16711
-0.721621
-151.382
-153.146
-154.38
-156.171
617.687
-1.62315
-0.64231
617.921
-1.90184
-0.705768
617.382
-2.18917
-0.698598
616.265
-2.37669
-0.855223
615.092
-2.2254
-0.0222244
614.388
-1.25463
-0.425334
613.196
0.882412
0.0535699
610.612
3.21649
0.586528
604.211
9.0949
2.1291
35.7439
5.63535
-295.528
61.4104
-1.55344
-295.218
65.667
-1.47471
-73.1277
72.2924
-1.05458
-73.4285
-73.3791
-73.7436
0.428967
-0.3824
8.88278
-0.332655
-18.3913
-18.0921
-18.3427
-18.1257
0.200418
0.0159441
38.0368
0.836488
-0.178327
625.083
70.3924
0.368505
-153.964
-154.66
-157.003
-157.763
626.631
68.472
-0.373334
627.376
65.8879
-0.819106
628.285
63.975
-0.0492587
628.896
62.1322
0.371947
629.666
60.3738
0.190787
630.026
58.9233
-0.531188
630.045
57.8955
-0.735301
628.685
57.6963
-0.451819
625.736
57.531
0.282489
67.8206
3.39278
-301.338
137.333
-1.13134
-299.557
157.84
-1.03827
-73.4222
170.669
-0.870664
-73.8225
-73.7567
-74.2431
0.601409
-19.2207
29.352
-0.472778
-18.6399
-18.211
-18.5563
-18.2649
0.167836
-3.79868
38.5319
5.16256
-0.14744
633.42
185.04
-2.41742
-155.775
-155.822
-158.862
-159.215
636.207
176.977
0.387923
638.848
168.448
3.89664
639.731
160.459
2.84743
639.983
151.414
-1.71905
639.606
142.832
-3.50024
639.368
136.613
-0.5796
640.042
129.925
2.91733
639.58
124.533
1.90025
637.474
116.884
0.468339
114.777
1.77468
-289.715
207.809
-1.92502
-274.825
252.244
-1.26292
-67.028
274.116
1.96798
-55.2122
-67.433
-55.4114
-52.1087
1.00494
-62.9689
66.1567
-0.171306
0.205359
5.95087
-7.69072
31.0643
-0.182586
0.188222
3.75122
-2.62287
37.3988
-0.18998
0.183107
-0.0695931
0.925015
37.7988
-0.171877
0.177913
-3.89907
5.22206
38.3345
-0.157245
-11.2695
-9.96776
-0.4311
134.735
129.923
0.591922
-16.3308
-11.2807
-16.4786
-16.7478
-9.94188
-16.5987
600.293
351.972
7.74383
-144.744
-129.425
-145.857
-129.85
613.958
298.628
14.5442
625.696
276.156
0.230468
630.956
256.852
-7.73392
633.92
240.402
-4.45664
640.049
225.885
5.30896
642.852
212.609
8.37569
643.982
199.227
3.71103
646.54
187.13
-2.04191
646.586
174.921
-3.41368
165.726
1.15398
-244.763
258.836
0.523944
-203.947
312.674
0.962848
-178.424
333.946
0.269079
-133.631
484.544
0.689502
-92.0535
-115.631
-92.3633
-116.876
-71.9962
601.376
-2.89402
-146.463
-149.405
-148.285
-151.368
0.633677
610.077
-3.16233
-150.115
-151.977
-152.267
-154.103
72.9653
618.48
-1.65727
-152.797
-153.564
-154.928
-155.757
191.303
627.238
-4.00282
-155.191
-156.373
-157.34
-158.228
349.223
596.959
5.77609
-142.183
-127.798
-145.893
-132.215
489.083
499.967
31.5177
549.242
400.654
-16.3895
570.842
349.373
-19.5508
593.13
332.363
0.741897
607.824
316.307
17.0335
617.7
296.5
18.7177
628.114
277.51
5.07207
630.569
258.707
-7.13169
634.027
242.239
-3.86563
639.834
231.662
4.06223
214.218
5.98523
-199.269
294.513
-0.000525712
-152.794
348.979
1.69452
-154.413
376.094
1.27448
-133.24
520.662
1.40551
-72.1943
605.101
-3.24552
0.501492
610.86
-3.14715
71.1557
619.331
-2.23349
179.78
628.367
-1.94603
302.075
608.347
11.2507
402.095
558.172
-15.0593
463.626
475.458
-36.9471
514.199
410.857
4.53057
546.998
383.76
33.5447
570.103
371.693
26.8484
587.354
353.906
3.86907
598.986
328.982
-10.5135
607.836
314.197
-6.52852
616.662
294.394
9.63364
623.696
282.743
12.8341
260.925
7.05209
-167.789
317.439
-0.737471
-140.264
371.005
0.178752
-155.335
417.092
2.47117
-135.127
540.545
0.175553
-69.2662
609.233
-2.60264
0.0777458
610.977
-3.1585
68.1442
620.166
-2.46087
169.41
630.107
1.46443
276.799
618.451
-2.26211
355.352
575.055
-20.0394
411.928
527.869
6.41327
456.714
465.388
43.7678
499.667
423.37
31.886
535.168
413.347
-3.72669
544.526
395.631
-16.2642
559.875
374.781
-5.67509
578.22
362.761
11.2691
587.33
341.875
20.2971
600.09
331.669
7.65529
305.169
0.224967
-145.944
335.908
0.807169
-120.145
388.062
2.64555
-148.602
443.575
2.73184
-130.201
548.794
-1.33759
-66.4881
611.926
-3.11856
-0.10119
610.411
-2.9962
65.9699
620.861
-1.99086
160.386
630.526
0.737937
254.189
622.3
-10.0414
333.819
591.553
-1.57643
387.934
553.325
32.294
424.338
509.483
33.9826
473.76
479.468
-6.16995
503.457
446.684
-22.8558
518.935
430.689
-5.71739
532.088
412.748
19.9878
543.768
403.12
26.5018
561.082
386.385
13.0472
579.714
373.697
-2.54318
344.728
-2.16245
-131.847
348.579
2.31435
-110.127
397.362
4.61728
-139.784
460.178
2.09739
-121.667
552.734
-1.43847
-63.7943
612.326
-2.87461
-0.287478
609.198
-2.96116
63.9789
621.218
-1.85753
150.816
630.919
-3.03835
236.441
623.851
-6.98939
313.655
602.219
12.069
372.852
570.935
22.5363
412.719
536.893
-2.14203
442.713
506.621
-21.2693
476.586
481.077
-2.88276
500.094
462.171
30.1664
507.156
441.491
33.4904
522.261
433.267
17.5139
539.942
420.374
-5.05893
552.489
406.785
-5.86914
378.268
1.67083
-117.017
353.226
1.57292
-97.211
397.886
2.61269
-124.814
466.094
1.30707
-111.158
552.536
-0.75427
-61.3429
610.458
-2.4296
-0.455811
607.733
-2.29217
62.1142
621.714
-2.12432
142.216
630.915
-3.95663
221.246
629.05
2.04394
292.78
610.881
12.5893
351.486
584.53
1.10108