/*--------------------------------*- C++ -*----------------------------------*\
  =========                 |
  \\      /  F ield         | OpenFOAM: The Open Source CFD Toolbox
   \\    /   O peration     | Website:  https://openfoam.org
    \\  /    A nd           | Version:  9
     \\/     M anipulation  |
\*---------------------------------------------------------------------------*/
FoamFile
{
    format      ascii;
    class       volScalarField;
    location    "0.007";
    object      rho;
}
// * * * * * * * * * * * * * * * * * * * * * * * * * * * * * * * * * * * * * //

dimensions      [1 -3 0 0 0 0 0];

internalField   nonuniform List<scalar> 
9720
(
5.21088
4.76113
4.50866
3.45377
3.08617
3.06661
3.02906
2.70441
2.26997
1.85811
1.53544
1.35893
1.28136
1.3045
1.37927
1.49364
1.61819
1.75406
1.88396
2.04631
4.74842
4.63254
3.33094
2.30054
2.55516
2.92926
2.9579
2.54366
1.84441
1.26779
0.93597
0.844678
0.86997
0.946447
1.08123
1.26225
1.45034
1.62747
1.78626
1.96901
4.52503
3.3771
1.9719
1.69389
2.44538
2.94298
2.97923
2.49329
1.50533
0.866027
0.656475
0.674898
0.739292
0.842906
0.992653
1.18726
1.43086
1.69185
1.8807
2.05857
3.46375
2.30695
1.67947
1.41294
2.01898
2.90164
3.09623
2.75853
1.41596
0.441149
0.470155
0.526237
0.602458
0.690696
0.78957
0.91382
1.10424
1.38811
1.72018
2.06285
3.03622
2.47603
2.36929
2.00478
0.345588
0.552402
0.594493
0.624188
0.651693
0.682479
0.723348
0.779595
0.859462
0.988167
1.22454
1.74394
2.98775
2.83849
2.8701
2.83453
0.707201
0.718419
0.707855
0.702016
0.703487
0.707858
0.716235
0.729006
0.749648
0.797074
0.900027
1.29323
2.94235
2.86724
2.90127
3.02376
0.75926
0.713477
0.705407
0.699374
0.696713
0.695072
0.69595
0.699843
0.708869
0.72872
0.766655
0.98256
2.62123
2.45801
2.40896
2.67954
0.643139
0.501773
0.52699
0.545177
0.557696
0.569087
0.580606
0.592585
0.606562
0.626038
0.652622
0.783023
2.19402
1.76491
1.4278
1.28883
0.34483
0.675436
0.730382
0.612921
0.0840328
0.139541
0.220442
0.293789
0.355146
0.402636
0.43894
0.467957
0.494428
0.522808
0.551709
0.646022
1.79563
1.2112
0.821585
0.425879
0.529147
0.686348
0.681753
0.485394
0.150733
0.060554
0.0792658
0.126311
0.191416
0.25602
0.306331
0.350438
0.39466
0.435703
0.466641
0.5432
1.48852
0.903802
0.636342
0.456069
0.569217
0.676079
0.673888
0.510013
0.232053
0.0846214
0.0572797
0.0668575
0.0959995
0.142192
0.195776
0.250878
0.303956
0.35363
0.385245
0.454087
1.31563
0.819726
0.659188
0.513191
0.596741
0.66966
0.668399
0.528455
0.302197
0.137349
0.0712141
0.0558274
0.0585364
0.0794385
0.122323
0.175156
0.225642
0.27295
0.308323
0.377809
1.24164
0.843293
0.724702
0.588947
0.622507
0.67099
0.666468
0.542082
0.36039
0.203608
0.106466
0.0623005
0.0588944
0.0645128
0.0845098
0.120429
0.160686
0.204267
0.243946
0.314937
1.2674
0.917437
0.821838
0.671689
0.652852
0.676028
0.66694
0.553866
0.404952
0.266765
0.155825
0.0888432
0.0673109
0.0682712
0.0737066
0.0869154
0.112368
0.152385
0.194258
0.263352
1.34719
1.04956
0.960189
0.765193
0.69382
0.68619
0.669745
0.56656
0.437832
0.315235
0.209461
0.13481
0.0928566
0.077279
0.0764395
0.0815683
0.0960195
0.126394
0.161158
0.221294
1.46939
1.23419
1.14477
0.881216
0.74979
0.702023
0.676545
0.579674
0.465646
0.357671
0.263147
0.187676
0.13212
0.0965442
0.0844454
0.0871271
0.0991929
0.119325
0.140099
0.187234
1.59879
1.43173
1.38395
1.05565
0.829756
0.726122
0.688814
0.594392
0.492275
0.400744
0.314381
0.236999
0.173846
0.126716
0.102219
0.102801
0.108977
0.119434
0.131062
0.168094
1.73341
1.61427
1.65276
1.32616
0.95623
0.775161
0.71223
0.615748
0.521277
0.440475
0.362542
0.284608
0.219143
0.168666
0.137473
0.125651
0.121373
0.123418
0.132843
0.166239
1.86222
1.76951
1.8516
1.65542
1.18201
0.877211
0.753657
0.644425
0.551675
0.471108
0.39414
0.321343
0.25987
0.210883
0.174441
0.149565
0.135361
0.135365
0.141512
0.169778
2.01859
1.94468
2.02526
2.00146
1.68586
1.26471
0.973054
0.77882
0.650423
0.550109
0.465873
0.394046
0.333221
0.280676
0.236297
0.200717
0.178566
0.171813
0.173984
0.188665
5.12653
4.66184
4.34086
3.28692
2.97482
3.00728
2.98325
2.65697
2.21884
1.8095
1.4852
1.31126
1.23053
1.24958
1.32014
1.43707
1.56703
1.70347
1.83517
2.00188
4.64825
4.5583
3.01973
2.13914
2.52744
2.90686
2.92503
2.50599
1.80037
1.2261
0.893649
0.802638
0.824191
0.892315
1.0175
1.19296
1.38603
1.5699
1.73279
1.9234
4.38609
3.08195
1.82457
1.6084
2.46703
2.93272
2.95092
2.45974
1.46305
0.82518
0.616111
0.632199
0.693495
0.790693
0.931359
1.11286
1.34577
1.61165
1.81185
2.00502
3.30659
2.13737
1.58477
1.3108
2.09315
2.88107
3.05416
2.72024
1.40318
0.418514
0.444465
0.493256
0.560986
0.643508
0.735222
0.849021
1.02218
1.29557
1.61993
1.98155
2.92965
2.42054
2.32942
1.9047
0.338958
0.535133
0.573103
0.597311
0.619287
0.644526
0.679628
0.729453
0.80116
0.916275
1.12783
1.63399
2.92487
2.80492
2.84236
2.80069
0.678865
0.698181
0.686042
0.674952
0.672199
0.673622
0.678643
0.687793
0.704175
0.743034
0.830314
1.18925
2.89251
2.83343
2.87469
2.98123
0.729174
0.692994
0.682638
0.673414
0.666398
0.660469
0.660323
0.662452
0.668998
0.684565
0.715194
0.901499
2.5745
2.42987
2.38919
2.64836
0.617645
0.485962
0.507544
0.521483
0.530142
0.539446
0.550754
0.560583
0.570481
0.585517
0.607834
0.719636
2.14579
1.73264
1.40111
1.29973
0.334663
0.645946
0.697693
0.582368
0.0800952
0.132159
0.207313
0.275022
0.334375
0.37948
0.411219
0.435761
0.459225
0.486539
0.513426
0.594799
1.74457
1.17542
0.793016
0.406054
0.511968
0.666856
0.660851
0.467757
0.142011
0.0542188
0.0716993
0.116699
0.176728
0.234773
0.27908
0.319326
0.363039
0.403778
0.431399
0.49815
1.43256
0.857755
0.596167
0.432034
0.549256
0.656061
0.652278
0.489929
0.21703
0.0760195
0.0517418
0.0607781
0.086238
0.124834
0.172173
0.224455
0.27565
0.322014
0.351328
0.414039
1.26358
0.772724
0.613063
0.480311
0.572595
0.645854
0.644592
0.504895
0.281768
0.124823
0.0637505
0.048779
0.0505737
0.0677301
0.105912
0.154233
0.200314
0.24382
0.277101
0.342314
1.19091
0.793453
0.671436
0.545399
0.593225
0.643209
0.638709
0.515531
0.337956
0.185428
0.0935943
0.0528383
0.0505674
0.0556101
0.0735621
0.1053
0.141072
0.18057
0.21689
0.283498
1.21349
0.861146
0.762146
0.621246
0.617155
0.645191
0.63519
0.525837
0.380853
0.242997
0.13564
0.0742688
0.0576902
0.058578
0.0628812
0.0755089
0.0984009
0.133698
0.170858
0.235263
1.288
0.985389
0.894489
0.706194
0.650632
0.651451
0.636248
0.537607
0.410747
0.287678
0.184426
0.115741
0.0794351
0.0653119
0.064725
0.068929
0.080853
0.107102
0.138319
0.196452
1.40913
1.16496
1.06993
0.811721
0.698288
0.662501
0.640188
0.547726
0.4351
0.327939
0.236466
0.164868
0.11366
0.0818971
0.0709977
0.0730425
0.0825521
0.0987316
0.118761
0.165991
1.54006
1.36401
1.30192
0.971083
0.768197
0.680732
0.648845
0.558348
0.459195
0.370583
0.286069
0.210843
0.151399
0.108873
0.0860208
0.0854369
0.0897961
0.0999575
0.11252
0.148637
1.67137
1.54724
1.57256
1.23404
0.879547
0.719451
0.666826
0.575116
0.486574
0.409626
0.331412
0.255697
0.193607
0.147264
0.116996
0.104863
0.102363
0.10543
0.114349
0.145286
1.79707
1.70271
1.77506
1.55765
1.08387
0.804879
0.699834
0.599233
0.513772
0.437046
0.361645
0.291483
0.232806
0.186521
0.15139
0.128722
0.117197
0.11713
0.1224
0.14814
1.95361
1.87996
1.95968
1.91887
1.57806
1.15887
0.888821
0.714348
0.598325
0.506335
0.427916
0.360982
0.303498
0.253924
0.212591
0.180075
0.159421
0.151275
0.152492
0.166143
5.15526
4.72546
4.30911
3.18809
2.89788
2.9931
2.97259
2.64076
2.20185
1.79499
1.46259
1.28817
1.20452
1.22096
1.28668
1.40443
1.54151
1.68086
1.817
1.98695
4.67855
4.63552
2.76454
2.0326
2.52284
2.91891
2.92012
2.4858
1.77717
1.21017
0.873647
0.779862
0.799254
0.862619
0.980006
1.15041
1.3496
1.54024
1.71573
1.91323
4.33243
2.80048
1.70955
1.56373
2.48018
2.93676
2.93753
2.43176
1.42676
0.807307
0.598251
0.609413
0.667851
0.764335
0.901697
1.0755
1.30105
1.579
1.79908
2.00252
3.17155
1.98117
1.5116
1.2505
2.0921
2.88372
3.0432
2.69957
1.34935
0.404001
0.431884
0.478525
0.54104
0.618881
0.706404
0.815231
0.979405
1.24867
1.58445
1.97766
2.83101
2.39399
2.33586
1.87042
0.314201
0.52377
0.561829
0.584157
0.602731
0.625
0.657049
0.704341
0.774835
0.878816
1.07165
1.58455
2.89244
2.80429
2.83251
2.79468
0.672791
0.690196
0.6761
0.664262
0.659738
0.661328
0.666826
0.675791
0.690618
0.722187
0.796209
1.12821
2.8772
2.83316
2.86378
2.96999
0.723264
0.683449
0.671384
0.661768
0.654514
0.649221
0.649792
0.653159
0.660587
0.674438
0.699164
0.858192
2.56261
2.42653
2.38478
2.63352
0.609066
0.478
0.498185
0.510534
0.518894
0.528396
0.540877
0.552139
0.562466
0.576486
0.596181
0.691086
2.12795
1.729
1.40659
1.32633
0.30376
0.643524
0.69403
0.578742
0.0743562
0.128377
0.202013
0.266808
0.323623
0.367921
0.398784
0.423891
0.448285
0.476705
0.504497
0.577367
1.72374
1.16715
0.787544
0.386451
0.501705
0.668209
0.659329
0.459455
0.129566
0.0494167
0.0665178
0.110192
0.16604
0.220925
0.265272
0.305221
0.349533
0.393388
0.421733
0.483976
1.39846
0.831583
0.57535
0.411501
0.539148
0.654667
0.648541
0.481102
0.203783
0.0685232
0.0460334
0.0544662
0.0788242
0.114589
0.158481
0.20912
0.259613
0.308331
0.341164
0.402714
1.22653
0.738212
0.581215
0.454661
0.562341
0.643688
0.640176
0.495354
0.26769
0.113713
0.0559509
0.0438996
0.0459748
0.0602415
0.0938521
0.138393
0.184549
0.229745
0.265035
0.33142
1.15432
0.757206
0.632534
0.513135
0.580375
0.638822
0.633151
0.505904
0.324
0.170453
0.0829424
0.0472687
0.0451313
0.0487991
0.0637572
0.0932312
0.12886
0.167232
0.203903
0.271683
1.1739
0.820616
0.722885
0.585283
0.600968
0.64045
0.629512
0.517129
0.368934
0.22683
0.121813
0.0649805
0.0503616
0.0508167
0.0546236
0.0669083
0.0881552
0.120655
0.156988
0.222973
1.24329
0.938621
0.854845
0.668309
0.629729
0.64603
0.630665
0.530153
0.40061
0.272862
0.168568
0.102275
0.069119
0.0572314
0.0560467
0.0584894
0.0677024
0.0912178
0.123297
0.18366
1.36582
1.11318
1.0265
0.769593
0.673315
0.65567
0.634942
0.541432
0.425481
0.314181
0.220533
0.149141
0.101811
0.0727993
0.0601837
0.0609753
0.0682341
0.083835
0.104726
0.151952
1.50575
1.31899
1.25376
0.91858
0.740044
0.670956
0.643181
0.552147
0.449662
0.35803
0.271094
0.196246
0.139029
0.0969913
0.0722912
0.0708771
0.0750294
0.0862151
0.0985751
0.133089
1.64329
1.51274
1.53922
1.17461
0.838654
0.699929
0.658077
0.566957
0.477811
0.40061
0.319431
0.242236
0.179176
0.132301
0.100522
0.0897239
0.0892086
0.0924147
0.0999294
0.129241
1.77591
1.68477
1.76662
1.51785
1.02338
0.769055
0.683794
0.587499
0.504891
0.428606
0.352498
0.279034
0.218343
0.171243
0.135752
0.114494
0.103316
0.102375
0.106981
0.132344
1.93801
1.8734
1.96552
1.92403
1.53118
1.09428
0.843541
0.683647
0.578674
0.49145
0.415656
0.348213
0.29005
0.240838
0.199329
0.165702
0.143567
0.134874
0.13648
0.151373
5.2301
4.83587
4.23714
3.08159
2.84065
2.9832
2.9659
2.6292
2.18165
1.77971
1.44134
1.26867
1.19085
1.20663
1.27
1.38867
1.53243
1.67542
1.81521
1.9882
4.7632
4.61924
2.53599
1.9554
2.51534
2.92122
2.91899
2.48045
1.75819
1.19796
0.851722
0.755044
0.775053
0.83826
0.954358
1.12238
1.32745
1.52615
1.71057
1.91684
4.23673
2.53731
1.65491
1.55127
2.46734
2.94061
2.93963
2.427
1.40991
0.790514
0.577573
0.581829
0.63387
0.731454
0.8726
1.04821
1.26868
1.55408
1.79715
2.00822
3.03107
1.88109
1.49865
1.24781
2.00302
2.89414
3.05143
2.69536
1.28284
0.380818
0.408705
0.454356
0.513779
0.586781
0.670665
0.773661
0.927627
1.18508
1.53335
1.96669
2.74172
2.39747
2.37377
1.93811
0.337881
0.504846
0.544616
0.568863
0.586181
0.605576
0.63268
0.672753
0.736735
0.827619
0.996219
1.51048
2.86617
2.80709
2.83554
2.78351
0.657219
0.673915
0.661831
0.651868
0.646013
0.646992
0.651142
0.658094
0.668845
0.691051
0.748853
1.04547
2.86179
2.82711
2.8546
2.96099
0.706912
0.666039
0.656543
0.648164
0.641725
0.63558
0.635244
0.637117
0.642777
0.653111
0.670861
0.799145
2.54541
2.41376
2.36831
2.62116
0.593659
0.459574
0.481492
0.495006
0.504242
0.512954
0.52425
0.535805
0.546762
0.558876
0.573509
0.646748
2.11212
1.71386
1.38532
1.28342
0.311644
0.647947
0.694754
0.576204
0.0692592
0.116241
0.186947
0.251716
0.306583
0.3513
0.38467
0.410846
0.434785
0.460049
0.48385
0.546137
1.71809
1.16241
0.774768
0.373217
0.49765
0.666815
0.65483
0.454233
0.126294
0.0445836
0.0595761
0.0996239
0.15249
0.205037
0.251612
0.29281
0.333593
0.376546
0.406281
0.463637
1.38579
0.823384
0.561941
0.400165
0.536462
0.653423
0.645541
0.477326
0.199507
0.0625687
0.0410055
0.0484525
0.0704278
0.10481
0.147494
0.19535
0.243439
0.292312
0.329317
0.38962
1.20728
0.719729
0.56321
0.443307
0.560464
0.642153
0.637652
0.491738
0.262775
0.106157
0.0501513
0.0397132
0.0422919
0.0556716
0.0846917
0.125257
0.169105
0.216311
0.255743
0.321425
1.13316
0.737686
0.609476
0.498871
0.576972
0.635734
0.630711
0.502028
0.315722
0.16202
0.0752058
0.0434613
0.0419804
0.0446227
0.0564318
0.0821319
0.117146
0.15741
0.195495
0.261714
1.15037
0.797864
0.700473
0.567281
0.595492
0.636966
0.626274
0.512045
0.36029
0.21707
0.112656
0.0597033
0.0460033
0.0453843
0.0478959
0.0593565
0.0814531
0.113692
0.148425
0.21152
1.2137
0.90895
0.832344
0.647312
0.62094
0.641753
0.626935
0.5244
0.394607
0.264077
0.157502
0.0920803
0.0610937
0.0498135
0.0489283
0.0513158
0.0599255
0.0820112
0.112225
0.171241
1.3331
1.07284
0.999808
0.743587
0.658632
0.65001
0.630154
0.536642
0.420258
0.304643
0.206697
0.135642
0.0904582
0.0646251
0.0528802
0.053162
0.05887
0.0713964
0.0908424
0.138667
1.48232
1.28155
1.21333
0.88238
0.720008
0.662317
0.637242
0.548401
0.443242
0.344467
0.255282
0.181176
0.127093
0.0887112
0.0641846
0.0603356
0.0633504
0.0726525
0.0849084
0.120111
1.62739
1.4881
1.50131
1.11835
0.806824
0.684284
0.649249
0.561189
0.467486
0.386497
0.303815
0.227636
0.167006
0.121367
0.0889128
0.0758555
0.075191
0.0786204
0.0869896
0.117035
1.76696
1.67583
1.75985
1.4645
0.964175
0.738917
0.668605
0.576613
0.49019
0.414913
0.339061
0.265449
0.204538
0.156686
0.12105
0.0988835
0.0890606
0.0893413
0.094689
0.120235
1.93849
1.88319
1.98371
1.92151
1.46785
1.02747
0.798352
0.651778
0.553151
0.471662
0.398738
0.331454
0.272879
0.223398
0.183135
0.150663
0.129783
0.122697
0.124503
0.139388
5.30565
4.92697
4.17215
3.00628
2.81114
2.98389
2.97226
2.6285
2.17073
1.76743
1.4244
1.25344
1.18639
1.205
1.26894
1.39006
1.54204
1.68913
1.83047
2.00134
4.85216
4.58964
2.39518
1.90979
2.53544
2.93464
2.92943
2.4815
1.74334
1.18503
0.834129
0.734963
0.757478
0.825384
0.943448
1.11138
1.32268
1.53037
1.72104
1.93098
4.176
2.39264
1.62508
1.5397
2.50306
2.95079
2.94606
2.42816
1.39417
0.777517
0.562367
0.562567
0.609614
0.706552
0.848541
1.02546
1.24537
1.53858
1.79991
2.02303
2.95683
1.83342
1.47147
1.2232
2.02881
2.89482
3.05171
2.69721
1.30005
0.367164
0.394672
0.439477
0.496458
0.566144
0.646732
0.743046
0.887306
1.13641
1.49048
1.95786
2.7048
2.38223
2.34957
1.90564
0.294492
0.489669
0.530668
0.556751
0.574097
0.592576
0.61761
0.653506
0.711208
0.794134
0.945515
1.45503
2.85279
2.80015
2.83198
2.78004
0.641264
0.659483
0.64812
0.638413
0.633179
0.634017
0.637681
0.643927
0.652335
0.669331
0.717385
0.988801
2.85337
2.82309
2.85075
2.95215
0.686547
0.650752
0.643097
0.63558
0.629536
0.623742
0.622765
0.624003
0.628286
0.636646
0.650872
0.760819
2.53458
2.40379
2.35643
2.61044
0.57612
0.445665
0.468035
0.481838
0.491797
0.501288
0.512278
0.523882
0.534657
0.545114
0.556684
0.61774
2.10064
1.6972
1.36128
1.26274
0.295103
0.640539
0.685378
0.566052
0.0651479
0.109379
0.177407
0.241175
0.294343
0.338261
0.374021
0.400617
0.423705
0.447457
0.468341
0.524077
1.71108
1.15118
0.758847
0.363515
0.493592
0.662362
0.649643
0.448114
0.122184
0.0419797
0.055522
0.0917934
0.143528
0.198193
0.243903
0.283174
0.32137
0.363234
0.394346
0.448235
1.37977
0.815866
0.55381
0.391675
0.534007
0.650349
0.641995
0.4728
0.195679
0.0594604
0.0379565
0.0457004
0.0688162
0.102446
0.142294
0.186872
0.232818
0.283238
0.320825
0.378113
1.20545
0.714273
0.554631
0.43658
0.558933
0.639856
0.634739
0.489425
0.260273
0.100912
0.0475751
0.0393507
0.0417888
0.0535908
0.0784449
0.116461
0.16266
0.210968
0.24955
0.312762
1.13044
0.731953
0.600505
0.493214
0.575555
0.633908
0.629504
0.499635
0.310975
0.156387
0.0741332
0.0431113
0.0408551
0.0423569
0.052188
0.0779673
0.114293
0.154179
0.190773
0.254129
1.14567
0.79168
0.693616
0.562052
0.593668
0.634928
0.625237
0.50825
0.353424
0.212613
0.110967
0.0578323
0.0433122
0.0435349
0.0475138
0.0599668
0.0815846
0.111404
0.143113
0.2039
1.20536
0.90179
0.827227
0.641749
0.618729
0.639429
0.625242
0.519203
0.389799
0.259719
0.153896
0.0861307
0.0562021
0.0492426
0.0488431
0.0504336
0.0579706
0.0774797
0.10601
0.164231
1.32019
1.06063
0.994408
0.736081
0.654967
0.64747
0.627333
0.53219
0.417086
0.299461
0.199699
0.126799
0.0849931
0.0642395
0.0516755
0.050726
0.0540829
0.0650486
0.0844954
0.132717
1.46996
1.26486
1.20077
0.871975
0.713387
0.658477
0.633377
0.546054
0.440017
0.335917
0.245183
0.173193
0.122076
0.0871788
0.0611965
0.0550293
0.0574712
0.0666513
0.0794352
0.114084
1.61953
1.47688
1.48396
1.09923
0.795672
0.677799
0.644413
0.558989
0.462208
0.375953
0.294271
0.220125
0.161274
0.117336
0.0829091
0.0678835
0.0686011
0.0729844
0.0817267
0.110847
1.76499
1.67111
1.75177
1.43653
0.937559
0.725609
0.661357
0.57213
0.482149
0.406757
0.330899
0.257931
0.197786
0.149509
0.112867
0.0904041
0.0826802
0.0836119
0.0886513
0.113891
1.94131
1.89019
1.98976
1.91257
1.42576
0.989388
0.774247
0.63554
0.539279
0.462068
0.389804
0.322868
0.263721
0.213636
0.174125
0.142954
0.122729
0.116211
0.118127
0.133531
5.30838
4.9259
4.1499
2.99142
2.81197
2.99054
2.97575
2.62767
2.16829
1.76546
1.42191
1.24694
1.1844
1.20543
1.27176
1.39526
1.5495
1.69767
1.83916
2.00885
4.864
4.58416
2.37652
1.90155
2.55201
2.94733
2.93544
2.48135
1.74071
1.18394
0.834636
0.730684
0.753817
0.82401
0.944317
1.11431
1.32905
1.53812
1.73016
1.93828
4.18897
2.38124
1.61618
1.53302
2.53138
2.96554
2.95244
2.42819
1.3894
0.776805
0.563675
0.562888
0.60837
0.705131
0.848036
1.02587
1.24828
1.54715
1.81034
2.02901
2.95588
1.82598
1.45969
1.20611
2.09719
2.89905
3.05667
2.70028
1.2869
0.366525
0.394119
0.43849
0.494956
0.564763
0.645552
0.742818
0.887591
1.13808
1.50078
1.96974
2.69868
2.37152
2.33501
1.84413
0.284687
0.486029
0.526551
0.551561
0.568817
0.587785
0.613876
0.650994
0.709567
0.792753
0.945478
1.46046
2.84843
2.79364
2.82736
2.77853
0.633593
0.655621
0.643741
0.632682
0.627963
0.629163
0.633652
0.640818
0.650071
0.667721
0.716131
0.988651
2.84931
2.81873
2.8481
2.94963
0.679441
0.646935
0.639004
0.630801
0.624686
0.619423
0.619079
0.620736
0.625681
0.634777
0.649428
0.759433
2.53199
2.40247
2.3571
2.6053
0.567697
0.443864
0.466449
0.481296
0.490234
0.498387
0.509498
0.521559
0.532884
0.543136
0.554548
0.615229
2.09844
1.69663
1.36637
1.29252
0.27757
0.642761
0.686703
0.566901
0.0629203
0.111976
0.180402
0.243517
0.29489
0.337596
0.372887
0.399886
0.422968
0.445801
0.466069
0.521276
1.7087
1.15033
0.760056
0.361697
0.495796
0.66777
0.653718
0.449244
0.119928
0.04185
0.0557188
0.0922665
0.144315
0.198168
0.243068
0.282092
0.319747
0.361288
0.391905
0.445134
1.38003
0.815976
0.554737
0.390111
0.536814
0.655439
0.645781
0.473323
0.192631
0.0585099
0.037423
0.0452371
0.0682986
0.101435
0.140808
0.185033
0.231332
0.280987
0.317837
0.374671
1.2078
0.715687
0.556254
0.436241
0.561875
0.644649
0.638509
0.487848
0.256433
0.0991338
0.047098
0.0382518
0.0406588
0.0523347
0.0773468
0.115767
0.160987
0.208021
0.24646
0.30945
1.13265
0.733387
0.603243
0.494429
0.578783
0.638303
0.632826
0.498241
0.308309
0.154099
0.0732711
0.0421402
0.0400764
0.0419699
0.0527011
0.0777212
0.112184
0.151135
0.187496
0.25099
1.14788
0.793395
0.696235
0.564336
0.59704
0.639286
0.628403
0.509034
0.352824
0.210126
0.109806
0.0567087
0.0430354
0.0434674
0.0468554
0.0582014
0.0790958
0.108799
0.140884
0.20113
1.20702
0.903515
0.830265
0.644598
0.622008
0.643501
0.628588
0.521553
0.387435
0.256916
0.152145
0.0851722
0.0568733
0.0487882
0.0472292
0.0487653
0.0563869
0.0761434
0.104372
0.161314
1.3221
1.06284
0.997592
0.738056
0.658827
0.65131
0.630856
0.533873
0.413459
0.296597
0.198401
0.126483
0.0849367
0.062691
0.0499197
0.0495483
0.0533386
0.0641031
0.082259
0.129511
1.47117
1.26685
1.20489
0.874616
0.716643
0.661931
0.63668
0.545208
0.437278
0.334716
0.244983
0.172354
0.120768
0.0856249
0.0601581
0.0543564
0.0567452
0.0652194
0.0777398
0.112288
1.61861
1.47683
1.48647
1.10536
0.798747
0.680742
0.64727
0.557881
0.46229
0.376488
0.293517
0.219197
0.160449
0.11652
0.0828108
0.0669152
0.0671532
0.0713532
0.0802958
0.110405
1.76258
1.66897
1.74835
1.43591
0.939704
0.727941
0.663935
0.572394
0.483907
0.406767
0.330836
0.258087
0.197535
0.149906
0.112753
0.0888923
0.0810452
0.0822416
0.0878962
0.113489
1.93763
1.886
1.98195
1.90199
1.41961
0.986411
0.7744
0.636309
0.540426
0.461088
0.390012
0.323843
0.264539
0.213963
0.173734
0.141815
0.121676
0.115614
0.117577
0.132813
5.23657
4.83516
4.19968
3.05342
2.83854
2.99477
2.97572
2.62715
2.17095
1.76905
1.43041
1.25927
1.19062
1.20987
1.27652
1.39912
1.54658
1.69243
1.83252
2.00205
4.78506
4.61453
2.49981
1.93677
2.5575
2.94919
2.93412
2.48099
1.74558
1.18915
0.842288
0.746439
0.769558
0.837901
0.957828
1.13031
1.3396
1.54131
1.72707
1.93045
4.25796
2.52746
1.63837
1.549
2.53556
2.96918
2.95249
2.42953
1.39683
0.785001
0.57165
0.575022
0.627299
0.727327
0.871216
1.04942
1.27496
1.56798
1.81308
2.02139
3.03257
1.86655
1.47054
1.2231
2.11886
2.91311
3.06739
2.70437
1.28779
0.375056
0.40328
0.449023
0.50878
0.582655
0.667192
0.77136
0.926474
1.1877
1.54656
1.98189
2.73065
2.36706
2.32925
1.85234
0.290656
0.494687
0.534807
0.559613
0.57752
0.597445
0.625583
0.666019
0.73006
0.820111
0.991272
1.51684
2.85265
2.79055
2.82858
2.78612
0.634623
0.663564
0.651026
0.640683
0.635226
0.636365
0.640919
0.648324
0.659309
0.681335
0.739063
1.03943
2.84959
2.81799
2.85356
2.95664
0.681652
0.655543
0.646458
0.638211
0.632244
0.627418
0.627506
0.629307
0.634912
0.645095
0.662185
0.789723
2.53243
2.40243
2.35964
2.61431
0.57061
0.45364
0.475697
0.490231
0.499599
0.508014
0.51913
0.531125
0.542503
0.554146
0.567496
0.637893
2.0984
1.69632
1.36494
1.2557
0.295032
0.648659
0.69403
0.574644
0.0649255
0.118299
0.189441
0.252297
0.305147
0.349035
0.382545
0.408619
0.431676
0.455537
0.477828
0.538155
1.70578
1.14843
0.76512
0.37181
0.499873
0.669174
0.658876
0.45437
0.119971
0.0433349
0.0587744
0.0991177
0.152268
0.205174
0.251303
0.290439
0.32973
0.372295
0.401588
0.457331
1.3818
0.817637
0.560185
0.399966
0.540151
0.655775
0.649406
0.477562
0.192654
0.0600559
0.0397814
0.0475036
0.0703717
0.104898
0.145923
0.192465
0.240287
0.288891
0.325386
0.383736
1.21218
0.721344
0.56368
0.445765
0.56428
0.644795
0.640964
0.492424
0.256525
0.102255
0.0487343
0.0388338
0.0415413
0.0541474
0.0825202
0.123244
0.166748
0.213555
0.251878
0.315014
1.13871
0.739529
0.612418
0.503859
0.580504
0.638294
0.634449
0.502129
0.310907
0.157297
0.0735861
0.042429
0.0407555
0.0437055
0.0561786
0.0816456
0.115692
0.15441
0.190633
0.255234
1.15543
0.800594
0.70449
0.573704
0.59854
0.639212
0.629142
0.510906
0.35648
0.212551
0.110288
0.057412
0.0448645
0.0449709
0.0474404
0.058587
0.079669
0.110154
0.14408
0.206128
1.21848
0.913285
0.83833
0.653533
0.623778
0.64343
0.629136
0.522623
0.390661
0.259802
0.153668
0.0887845
0.0602646
0.0492872
0.0480978
0.0501917
0.0580243
0.07938
0.108901
0.166286
1.33729
1.07803
1.00689
0.749011
0.661388
0.650875
0.630963
0.534743
0.416495
0.299717
0.202255
0.132222
0.0887557
0.0633372
0.051481
0.0516002
0.0573343
0.0698704
0.088053
0.13396
1.48438
1.28636
1.22078
0.888933
0.721868
0.661856
0.636737
0.54619
0.439106
0.339652
0.251059
0.177754
0.125055
0.0868581
0.0621147
0.0586926
0.0618885
0.0710118
0.0829739
0.116748
1.62735
1.49093
1.50816
1.12641
0.806995
0.682451
0.647538
0.558729
0.463789
0.382537
0.300455
0.225539
0.164856
0.119249
0.0868551
0.0741606
0.0734681
0.0769353
0.0849916
0.115188
1.76584
1.6768
1.76252
1.46624
0.96091
0.735398
0.665674
0.573482
0.487138
0.412421
0.337621
0.264439
0.202847
0.155314
0.119524
0.0969955
0.087138
0.087432
0.0927823
0.118611
1.9341
1.8798
1.97795
1.9128
1.45554
1.0169
0.791105
0.645861
0.54959
0.470365
0.398753
0.331648
0.272596
0.223142
0.182457
0.148934
0.127645
0.121122
0.123077
0.137972
5.15465
4.71718
4.27642
3.17247
2.8995
3.00583
2.97775
2.63804
2.19122
1.78457
1.45281
1.28108
1.20515
1.2245
1.29435
1.41498
1.55124
1.69014
1.82572
1.99524
4.68548
4.62865
2.72856
2.02814
2.55244
2.94047
2.92796
2.48494
1.7642
1.19995
0.860243
0.768798
0.791396
0.86108
0.984984
1.16006
1.35876
1.54844
1.72285
1.91972
4.34
2.79011
1.70561
1.57267
2.51834
2.95443
2.9412
2.43246
1.41515
0.798861
0.586371
0.596935
0.656005
0.757578
0.901214
1.08031
1.31154
1.59031
1.80673
2.00737
3.16446
1.96977
1.50395
1.24758
2.11553
2.90269
3.05353
2.70108
1.30456
0.393948
0.42144
0.468096
0.531723
0.611133
0.70089
0.812813
0.981829
1.25786
1.59844
1.98519
2.81582
2.37229
2.31571
1.86233
0.307756
0.5117
0.549979
0.573586
0.592769
0.615101
0.646945
0.694051
0.764862
0.869332
1.07008
1.5931
2.87532
2.78908
2.82848
2.79181
0.654007
0.678446
0.664251
0.652941
0.647907
0.649257
0.65421
0.662664
0.677452
0.709637
0.785913
1.12696
2.86055
2.8199
2.86004
2.96571
0.70193
0.67121
0.659992
0.651019
0.644211
0.639088
0.639567
0.642717
0.649904
0.663344
0.687739
0.84923
2.54444
2.41201
2.37507
2.62439
0.588415
0.466495
0.487645
0.501181
0.510128
0.519907
0.532898
0.544875
0.554851
0.567653
0.586227
0.680624
2.11125
1.71016
1.38708
1.3099
0.28968
0.644174
0.693808
0.578251
0.0721581
0.12468
0.196501
0.259698
0.316046
0.361692
0.394266
0.419018
0.442271
0.469707
0.496795
0.569401
1.71219
1.15326
0.776906
0.381452
0.500839
0.666826
0.659253
0.460509
0.128991
0.0476311
0.0636637
0.106102
0.162024
0.217912
0.261913
0.300512
0.34414
0.388865
0.417623
0.478996
1.39396
0.825172
0.567081
0.407925
0.540096
0.654359
0.649266
0.482334
0.201862
0.0657539
0.0450014
0.0536776
0.0779731
0.112841
0.155221
0.204969
0.25624
0.306148
0.338832
0.398874
1.22654
0.733577
0.575838
0.453145
0.563773
0.643633
0.641497
0.496585
0.264733
0.110418
0.0550655
0.0427219
0.0447006
0.0582087
0.0910836
0.13596
0.182659
0.227996
0.262396
0.327271
1.15514
0.752686
0.629317
0.513045
0.581841
0.639095
0.635536
0.506416
0.321296
0.167882
0.0817636
0.0457003
0.0434155
0.0473643
0.0629256
0.0924971
0.1276
0.164878
0.200539
0.267522
1.17574
0.818209
0.721507
0.586161
0.602321
0.640816
0.631948
0.517058
0.367498
0.224975
0.119361
0.0617592
0.048443
0.0494613
0.053847
0.0663433
0.0868056
0.117998
0.154024
0.219727
1.24716
0.940132
0.857272
0.669485
0.630973
0.646597
0.6329
0.53058
0.400227
0.27037
0.164149
0.0977324
0.0668992
0.0559218
0.0551196
0.0573306
0.0659817
0.089082
0.12093
0.180528
1.37177
1.11911
1.0325
0.77018
0.674406
0.656444
0.636955
0.542645
0.424519
0.310139
0.21582
0.145374
0.099586
0.0711504
0.0585412
0.0591966
0.0663905
0.0821548
0.102872
0.148695
1.51295
1.33032
1.26349
0.919226
0.741193
0.671559
0.645071
0.552995
0.447705
0.354317
0.268163
0.193969
0.137227
0.0946313
0.0694378
0.0685711
0.0730227
0.0848406
0.0972457
0.130647
1.65123
1.52643
1.55555
1.1752
0.838054
0.699711
0.659416
0.566623
0.475803
0.399122
0.31822
0.240652
0.176625
0.128844
0.0971373
0.087568
0.0878567
0.0912841
0.0984949
0.127485
1.78413
1.70093
1.78976
1.52197
1.01848
0.767581
0.684189
0.586237
0.503461
0.427898
0.351352
0.276694
0.215158
0.168251
0.133376
0.112938
0.102018
0.100884
0.105353
0.13076
1.94327
1.88459
1.97941
1.93144
1.52485
1.08713
0.839478
0.680242
0.576951
0.490046
0.413633
0.345643
0.287673
0.239479
0.198442
0.164482
0.141941
0.133468
0.135207
0.150431
5.11804
4.6558
4.32016
3.29146
2.98529
3.02809
2.99359
2.66383
2.22416
1.81375
1.48677
1.31234
1.23379
1.25427
1.32703
1.44308
1.56925
1.70233
1.83271
1.99995
4.639
4.55636
2.98074
2.15654
2.5609
2.93129
2.93154
2.51065
1.8024
1.2293
0.892003
0.801452
0.824625
0.89557
1.02364
1.19838
1.38668
1.56539
1.72626
1.91741
4.38073
3.07869
1.82522
1.62917
2.50283
2.949
2.94832
2.46126
1.46259
0.827161
0.614105
0.629358
0.690428
0.790354
0.932308
1.11417
1.34708
1.60584
1.79828
1.99044
3.2865
2.11797
1.57656
1.28599
2.12043
2.89464
3.04343
2.70452
1.37144
0.414658
0.439384
0.486937
0.554822
0.637353
0.730988
0.848917
1.03105
1.31099
1.62759
1.97112
2.91023
2.39968
2.31347
1.87869
0.311521
0.519765
0.557179
0.581946
0.604406
0.630504
0.666595
0.717754
0.791748
0.912407
1.13468
1.63785
2.90121
2.78759
2.8378
2.79504
0.658756
0.680879
0.669122
0.65935
0.656646
0.658006
0.662659
0.671702
0.688974
0.731495
0.824299
1.19339
2.87336
2.8221
2.87308
2.97337
0.70723
0.674879
0.665314
0.657177
0.650894
0.645496
0.645628
0.648144
0.654985
0.671006
0.702893
0.896123
2.55767
2.42242
2.38943
2.63647
0.594911
0.474201
0.495537
0.509348
0.518358
0.527992
0.539719
0.549625
0.559317
0.574275
0.596787
0.71177
2.12941
1.7249
1.40326
1.28404
0.319465
0.644556
0.695017
0.581011
0.075227
0.13086
0.204139
0.26981
0.327682
0.372244
0.403411
0.42757
0.450868
0.477933
0.504716
0.587514
1.72802
1.16588
0.791433
0.399784
0.511022
0.670744
0.664965
0.469008
0.13807
0.0530322
0.070465
0.114779
0.173698
0.230512
0.273584
0.31323
0.356982
0.397804
0.42532
0.49209
1.41772
0.845568
0.587208
0.425382
0.549086
0.659219
0.655819
0.491555
0.213122
0.0740972
0.0511294
0.0603409
0.0851445
0.122302
0.168441
0.220131
0.271592
0.317909
0.346735
0.409276
1.25126
0.759682
0.602955
0.473622
0.572716
0.648802
0.648116
0.506288
0.278372
0.122232
0.0629253
0.047671
0.0493163
0.0659926
0.103551
0.151572
0.19743
0.240194
0.273232
0.33876
1.18501
0.781187
0.661433
0.538531
0.592885
0.645031
0.64234
0.516712
0.335757
0.183179
0.0918485
0.051004
0.049136
0.0543513
0.0726915
0.104299
0.13904
0.177743
0.213924
0.280894
1.21031
0.852091
0.753689
0.615072
0.615864
0.646777
0.638419
0.527315
0.380344
0.241082
0.132434
0.0710786
0.0559478
0.0574677
0.0623324
0.0749759
0.0971982
0.1317
0.168888
0.233781
1.28947
0.981801
0.889648
0.699449
0.647996
0.65292
0.639386
0.53969
0.411098
0.285214
0.180349
0.111774
0.077437
0.0643223
0.0638265
0.0677897
0.0795446
0.105722
0.137351
0.195599
1.4167
1.1695
1.06951
0.803359
0.694409
0.66372
0.643165
0.549858
0.434764
0.324958
0.232814
0.161883