/*--------------------------------*- C++ -*----------------------------------*\
  =========                 |
  \\      /  F ield         | OpenFOAM: The Open Source CFD Toolbox
   \\    /   O peration     | Website:  https://openfoam.org
    \\  /    A nd           | Version:  9
     \\/     M anipulation  |
\*---------------------------------------------------------------------------*/
FoamFile
{
    format      ascii;
    class       volScalarField;
    location    "0.007";
    object      rho.C4;
}
// * * * * * * * * * * * * * * * * * * * * * * * * * * * * * * * * * * * * * //

dimensions      [1 -3 0 0 0 0 0];

internalField   nonuniform List<scalar> 
9720
(
5.21112
4.76131
4.50882
3.45389
3.08628
3.06672
3.02917
2.7045
2.27005
1.85817
1.53549
1.35897
1.28141
1.30455
1.37933
1.49371
1.61826
1.75415
1.88405
2.04644
4.7486
4.63271
3.33106
2.30063
2.55525
2.92937
2.95801
2.54375
1.84447
1.26784
0.93601
0.844725
0.870033
0.946525
1.08132
1.26235
1.45044
1.62757
1.78636
1.96913
4.52519
3.37722
1.97198
1.69397
2.44549
2.94311
2.97935
2.4934
1.50539
0.866102
0.656572
0.675037
0.739482
0.843134
0.992916
1.18756
1.43118
1.69215
1.88097
2.05878
3.46386
2.30703
1.67954
1.41304
2.01913
2.90185
3.09645
2.75872
1.41606
0.441297
0.470357
0.526495
0.602779
0.69107
0.789993
0.914296
1.10478
1.38872
1.72082
2.06337
3.03631
2.47611
2.36938
2.00491
0.345749
0.552808
0.594936
0.62466
0.652189
0.682999
0.723897
0.780182
0.860096
0.988868
1.22534
1.74486
2.98784
2.83859
2.87021
2.83472
0.707724
0.719063
0.708496
0.702658
0.704135
0.708514
0.716904
0.729689
0.750349
0.797814
0.900845
1.2943
2.94244
2.86733
2.90138
3.02395
0.759953
0.714256
0.706182
0.700146
0.697486
0.695849
0.696732
0.700633
0.709672
0.729545
0.767521
0.983633
2.62131
2.45809
2.40904
2.67971
0.643844
0.502421
0.527675
0.545886
0.558424
0.569833
0.581371
0.593368
0.607365
0.626871
0.653496
0.784066
2.19409
1.76497
1.42786
1.28892
0.344946
0.675769
0.730822
0.613364
0.0841275
0.139727
0.220749
0.294214
0.355671
0.403236
0.439595
0.468658
0.495174
0.523605
0.55256
0.64703
1.79568
1.21123
0.821645
0.425988
0.529423
0.686783
0.682277
0.485828
0.150899
0.0606323
0.0793784
0.126502
0.191716
0.25643
0.306831
0.351021
0.39533
0.436455
0.467456
0.544168
1.48856
0.903835
0.636419
0.456216
0.569523
0.676517
0.674414
0.510474
0.232299
0.0847278
0.0573606
0.0669593
0.0961536
0.142431
0.19612
0.251338
0.304529
0.354309
0.385996
0.454996
1.31567
0.819765
0.659297
0.51338
0.59707
0.670104
0.66893
0.528938
0.302519
0.137519
0.0713132
0.0559121
0.058632
0.0795776
0.122552
0.175501
0.226103
0.273522
0.308982
0.378651
1.24168
0.843345
0.724851
0.589184
0.622856
0.671443
0.667005
0.542585
0.360776
0.203856
0.106611
0.062395
0.0589925
0.0646296
0.0846742
0.120678
0.161032
0.204725
0.244511
0.315713
1.26744
0.9175
0.822015
0.671967
0.653224
0.676492
0.667486
0.554388
0.405388
0.26709
0.156038
0.0889793
0.0674253
0.0683978
0.0738534
0.0870998
0.112621
0.152748
0.194744
0.264069
1.34724
1.04963
0.960391
0.765508
0.694216
0.686668
0.670301
0.567101
0.438307
0.315621
0.20975
0.13502
0.0930171
0.0774246
0.0765948
0.081746
0.0962442
0.126714
0.161594
0.221956
1.46944
1.23427
1.145
0.881568
0.750216
0.702519
0.677113
0.580235
0.466156
0.358113
0.263516
0.187972
0.132352
0.0967293
0.0846213
0.0873242
0.0994378
0.119648
0.140509
0.187846
1.59885
1.43181
1.38419
1.05605
0.830222
0.726636
0.689399
0.594975
0.492823
0.401248
0.314829
0.237377
0.174155
0.126964
0.10244
0.103047
0.109265
0.119783
0.131476
0.168694
1.73348
1.61435
1.653
1.32661
0.956749
0.775708
0.712841
0.616362
0.521868
0.44104
0.363065
0.285068
0.219538
0.169007
0.137785
0.125972
0.121719
0.123807
0.133297
0.166888
1.8623
1.76959
1.8518
1.65589
1.18261
0.877819
0.754304
0.645081
0.552313
0.471722
0.394717
0.32187
0.260348
0.211323
0.174856
0.149968
0.135769
0.135818
0.142029
0.170504
2.0187
1.94478
2.02542
2.00185
1.68654
1.26551
0.973868
0.779613
0.651194
0.550848
0.466578
0.39472
0.333869
0.2813
0.236898
0.201297
0.179148
0.172448
0.174705
0.189629
5.12669
4.66195
4.34095
3.28698
2.97487
3.00733
2.9833
2.65701
2.21888
1.80953
1.48523
1.31129
1.23056
1.24961
1.32017
1.43712
1.56708
1.70353
1.83524
2.00197
4.64836
4.55838
3.01977
2.13916
2.52747
2.9069
2.92507
2.50602
1.8004
1.22612
0.893677
0.802678
0.824253
0.892395
1.01759
1.19306
1.38613
1.57
1.73288
1.9235
4.38618
3.08199
1.82458
1.60841
2.46705
2.93274
2.95094
2.45975
1.46307
0.825246
0.616212
0.632351
0.693708
0.790953
0.93166
1.1132
1.34613
1.612
1.81215
2.00525
3.30664
2.13739
1.58478
1.31081
2.09316
2.88108
3.05417
2.72025
1.4032
0.418686
0.444699
0.493552
0.561353
0.643937
0.735707
0.849566
1.0228
1.29627
1.62067
1.98218
2.92969
2.42056
2.32944
1.90471
0.339163
0.535622
0.573631
0.597866
0.619864
0.645126
0.680258
0.730125
0.801886
0.917077
1.12875
1.63507
2.92491
2.80495
2.84238
2.8007
0.679519
0.698956
0.686805
0.675706
0.672952
0.67438
0.67941
0.688574
0.704974
0.743873
0.831235
1.19045
2.89255
2.83346
2.87471
2.98124
0.730034
0.693927
0.683554
0.674316
0.667291
0.661357
0.661216
0.663352
0.66991
0.6855
0.716169
0.902694
2.57453
2.42989
2.3892
2.64837
0.618515
0.486731
0.508343
0.522297
0.530971
0.540294
0.551624
0.561468
0.571384
0.586447
0.60881
0.720787
2.14581
1.73266
1.40113
1.29975
0.334837
0.646446
0.698354
0.583028
0.0802205
0.132384
0.207669
0.275509
0.334976
0.380161
0.411949
0.436534
0.460044
0.487419
0.51437
0.595905
1.7446
1.17544
0.793073
0.406204
0.512373
0.667493
0.661613
0.468387
0.142234
0.0543112
0.0718328
0.116924
0.177067
0.235221
0.279615
0.319951
0.36377
0.404604
0.432289
0.499192
1.43258
0.857778
0.596254
0.432233
0.54969
0.656685
0.653022
0.490577
0.217356
0.07615
0.0518387
0.0608941
0.0864049
0.125082
0.172532
0.224947
0.276268
0.322741
0.352126
0.415001
1.2636
0.772758
0.613193
0.480559
0.573046
0.646465
0.64532
0.505552
0.282189
0.125037
0.0638666
0.0488707
0.0506739
0.0678749
0.106157
0.154602
0.200797
0.244413
0.277786
0.343198
1.19093
0.793506
0.671616
0.545703
0.593691
0.643815
0.639425
0.516199
0.338461
0.185739
0.0937601
0.0529385
0.0506731
0.0557388
0.0737408
0.10556
0.141428
0.181037
0.217472
0.284311
1.21351
0.861215
0.762363
0.621596
0.617637
0.645798
0.635902
0.526518
0.381419
0.243392
0.13588
0.0744149
0.0578178
0.0587167
0.0630347
0.0756986
0.0986581
0.134068
0.171357
0.236009
1.28803
0.985466
0.894739
0.706588
0.651136
0.652064
0.63696
0.538302
0.411345
0.288143
0.184759
0.115978
0.0796129
0.065466
0.064884
0.0691067
0.0810755
0.107421
0.13876
0.197133
1.40917
1.16504
1.07021
0.812159
0.698824
0.663124
0.640905
0.548433
0.435732
0.328474
0.236905
0.165209
0.113913
0.0820907
0.071176
0.0732401
0.0827962
0.0990506
0.119169
0.166614
1.5401
1.36409
1.30222
0.971575
0.768773
0.68137
0.649572
0.55907
0.459867
0.371199
0.286604
0.211277
0.151736
0.109135
0.0862474
0.0856859
0.0900836
0.100304
0.112933
0.149236
1.67142
1.54732
1.57285
1.2346
0.880181
0.720119
0.667573
0.575864
0.487295
0.410312
0.33203
0.256223
0.194042
0.147632
0.117326
0.105193
0.102714
0.105818
0.114797
0.145924
1.79712
1.70278
1.77531
1.55824
1.0846
0.805611
0.700616
0.600022
0.514544
0.437781
0.36232
0.292086
0.233342
0.187008
0.151838
0.129144
0.117616
0.117584
0.12291
0.14885
1.95368
1.88003
1.95986
1.91937
1.5789
1.15982
0.889783
0.715283
0.599232
0.507198
0.428732
0.361757
0.304238
0.254627
0.213252
0.180697
0.16003
0.151918
0.153212
0.167091
5.15531
4.72549
4.30912
3.1881
2.89788
2.9931
2.9726
2.64076
2.20186
1.795
1.4626
1.28818
1.20454
1.22098
1.2867
1.40446
1.54154
1.68089
1.81703
1.98699
4.67858
4.63554
2.76455
2.0326
2.52284
2.91891
2.92012
2.48581
1.77718
1.21018
0.873675
0.779911
0.799334
0.862729
0.980129
1.15055
1.34973
1.54035
1.71582
1.9133
4.33245
2.80049
1.70955
1.56373
2.48018
2.93676
2.93753
2.43176
1.42677
0.807398
0.59839
0.609623
0.668147
0.764709
0.902134
1.076
1.30158
1.57953
1.79954
2.00283
3.17156
1.98117
1.5116
1.2505
2.0921
2.88372
3.0432
2.69957
1.34937
0.404242
0.432211
0.478937
0.541547
0.619481
0.707085
0.815999
0.980284
1.2497
1.58557
1.97864
2.83102
2.39399
2.33586
1.87042
0.314441
0.524436
0.562556
0.584923
0.603529
0.625829
0.657919
0.705271
0.775845
0.879933
1.07294
1.58613
2.89245
2.80429
2.83251
2.79468
0.673591
0.691255
0.677147
0.665299
0.660774
0.662373
0.667886
0.676872
0.691725
0.723341
0.797467
1.12987
2.8772
2.83316
2.86378
2.96999
0.724322
0.68471
0.672627
0.662995
0.65573
0.650433
0.651013
0.654394
0.661842
0.675724
0.700498
0.859798
2.56262
2.42653
2.38478
2.63352
0.610128
0.479028
0.499255
0.511625
0.520004
0.529534
0.542053
0.553341
0.563692
0.577747
0.597501
0.69262
2.12795
1.72901
1.4066
1.32635
0.303973
0.644222
0.694949
0.579653
0.0745089
0.128673
0.202482
0.267445
0.324415
0.368823
0.399751
0.424914
0.449371
0.477877
0.505762
0.578833
1.72374
1.16716
0.787615
0.386645
0.50226
0.669103
0.660389
0.460311
0.129843
0.0495303
0.0666847
0.110482
0.166475
0.221495
0.265955
0.306019
0.350476
0.394473
0.422903
0.485334
1.39846
0.831604
0.575461
0.411764
0.539749
0.655546
0.649582
0.481992
0.204207
0.0686837
0.0461523
0.0546086
0.0790303
0.114893
0.158917
0.209728
0.26039
0.309256
0.342189
0.403948
1.22654
0.73825
0.581384
0.454994
0.562973
0.644554
0.6412
0.496262
0.268247
0.113982
0.0560922
0.0440121
0.0460967
0.0604125
0.094142
0.138835
0.185137
0.230478
0.265888
0.332536
1.15433
0.757271
0.632773
0.513544
0.581029
0.639682
0.63416
0.50683
0.324678
0.170852
0.0831456
0.0473903
0.0452578
0.0489518
0.0639665
0.0935374
0.129285
0.167794
0.204613
0.272694
1.17392
0.820709
0.723189
0.585764
0.601644
0.641313
0.630516
0.518077
0.369705
0.227348
0.122111
0.0651536
0.0505127
0.0509798
0.0548021
0.0671304
0.0884568
0.121091
0.157585
0.223886
1.24331
0.938726
0.855201
0.668855
0.630435
0.646901
0.631671
0.531126
0.401438
0.27348
0.168987
0.102561
0.0693305
0.0574137
0.05623
0.0586882
0.0679476
0.0915755
0.123809
0.184476
1.36584
1.1133
1.0269
0.770206
0.674062
0.656554
0.635956
0.542425
0.426356
0.314898
0.221098
0.149565
0.10212
0.0730311
0.0603847
0.0611937
0.0685007
0.0841893
0.10519
0.152674
1.50577
1.3191
1.2542
0.919276
0.740851
0.671859
0.644209
0.553161
0.450591
0.358862
0.271799
0.196803
0.139451
0.0973052
0.0725452
0.0711512
0.0753449
0.0866006
0.0990354
0.133764
1.64331
1.51284
1.53966
1.17542
0.839543
0.700866
0.659129
0.568
0.478808
0.401551
0.320261
0.242922
0.179727
0.132748
0.100901
0.0900972
0.0896057
0.0928495
0.100424
0.129948
1.77593
1.68485
1.76701
1.51875
1.0244
0.770069
0.684885
0.588591
0.505958
0.429618
0.353414
0.279831
0.219032
0.171848
0.136289
0.114989
0.103794
0.102881
0.107543
0.133128
1.93804
1.87346
1.96578
1.92482
1.53244
1.09561
0.844856
0.684916
0.579908
0.492622
0.416756
0.349244
0.291017
0.241739
0.200157
0.166455
0.144278
0.135607
0.137288
0.152422
5.23011
4.83588
4.23715
3.08159
2.84065
2.9832
2.96591
2.62921
2.18165
1.77971
1.44134
1.26867
1.19086
1.20665
1.27002
1.38869
1.53245
1.67544
1.81523
1.98822
4.7632
4.61924
2.53599
1.9554
2.51534
2.92122
2.91899
2.48045
1.7582
1.19798
0.851759
0.755111
0.775166
0.838417
0.954536
1.12257
1.32764
1.52631
1.71069
1.91691
4.23674
2.53731
1.65491
1.55127
2.46734
2.94061
2.93963
2.427
1.40993
0.79064
0.577764
0.582114
0.634268
0.73197
0.873213
1.04891
1.26945
1.55485
1.79784
2.00867
3.03107
1.88109
1.49865
1.24781
2.00302
2.89414
3.05143
2.69536
1.28289
0.381139
0.409141
0.454906
0.514454
0.587581
0.671578
0.774694
0.928815
1.18648
1.53494
1.96813
2.74172
2.39747
2.37377
1.93811
0.338327
0.505756
0.545607
0.569908
0.587262
0.606692
0.633843
0.673982
0.738065
0.829081
0.997901
1.51264
2.86617
2.80709
2.83554
2.78351
0.658404
0.675363
0.663259
0.653279
0.647416
0.6484
0.652562
0.659532
0.670306
0.692558
0.75047
1.0476
2.86179
2.82711
2.8546
2.96099
0.708443
0.667734
0.658215
0.649814
0.643359
0.637199
0.636866
0.638749
0.644429
0.654793
0.672588
0.801171
2.54541
2.41376
2.36831
2.62116
0.595157
0.46092
0.482902
0.496448
0.505707
0.514448
0.525785
0.537377
0.548368
0.56052
0.575209
0.648669
2.11212
1.71386
1.38534
1.28346
0.31196
0.648902
0.695994
0.577415
0.0694537
0.116599
0.187529
0.252519
0.307585
0.352452
0.385925
0.412179
0.436198
0.461556
0.485457
0.547976
1.71809
1.16242
0.774865
0.373463
0.498357
0.667953
0.656163
0.455295
0.126643
0.0447174
0.0597685
0.0999663
0.153019
0.205744
0.252479
0.293829
0.334778
0.37791
0.407767
0.465356
1.38579
0.823413
0.562087
0.4005
0.537234
0.654545
0.646856
0.478438
0.20004
0.0627561
0.0411407
0.0486189
0.0706723
0.105179
0.148029
0.196086
0.244384
0.293457
0.330614
0.391185
1.20728
0.719781
0.563428
0.443731
0.561279
0.643264
0.638953
0.49288
0.263469
0.106475
0.0503152
0.0398473
0.0424397
0.0558766
0.0850234
0.125768
0.169802
0.217208
0.256817
0.322827
1.13317
0.737773
0.609781
0.49939
0.577819
0.63684
0.632
0.503196
0.316556
0.162503
0.0754458
0.0436076
0.0421321
0.0447985
0.056667
0.0824799
0.117648
0.158098
0.196374
0.262959
1.15039
0.797988
0.700874
0.5679
0.596368
0.638078
0.627556
0.513239
0.361242
0.217705
0.113012
0.0599075
0.0461773
0.045569
0.0480972
0.0596121
0.0818151
0.114221
0.149146
0.212615
1.21372
0.909092
0.832819
0.648017
0.621852
0.642878
0.628223
0.525629
0.395646
0.264845
0.158002
0.0924039
0.0613294
0.0500164
0.0491349
0.0515419
0.0602048
0.0824193
0.112812
0.172196
1.33312
1.07299
1.00036
0.744385
0.659596
0.651155
0.631455
0.537905
0.421365
0.305531
0.207364
0.136127
0.0908078
0.0648891
0.0531077
0.0534059
0.0591605
0.071774
0.0913455
0.139491
1.48234
1.28171
1.21394
0.883291
0.721052
0.663484
0.638563
0.549697
0.444414
0.345482
0.256118
0.181827
0.127586
0.089079
0.0644714
0.0606279
0.0636811
0.0730555
0.0854014
0.12087
1.62741
1.48824
1.50194
1.11943
0.80797
0.685488
0.6506
0.562522
0.468733
0.38765
0.304818
0.228458
0.16766
0.121886
0.0893307
0.0762447
0.0756038
0.0790774
0.0875217
0.117826
1.76698
1.67593
1.76041
1.46574
0.965488
0.740207
0.669998
0.577996
0.491512
0.416161
0.340187
0.266416
0.205356
0.157379
0.121642
0.0994112
0.0895695
0.0898855
0.0953004
0.121103
1.9385
1.88325
1.98408
1.92267
1.46955
1.02916
0.799992
0.653348
0.554666
0.473104
0.400089
0.3327
0.274022
0.224441
0.184082
0.151516
0.13058
0.123518
0.125401
0.140542
5.30566
4.92697
4.17215
3.00628
2.81114
2.98389
2.97226
2.6285
2.17073
1.76743
1.42441
1.25345
1.18641
1.20503
1.26897
1.39008
1.54207
1.68914
1.83049
2.00135
4.85217
4.58964
2.39518
1.90979
2.53544
2.93464
2.92943
2.4815
1.74335
1.18505
0.834173
0.735042
0.757613
0.825571
0.94366
1.11161
1.32291
1.53056
1.72118
1.93106
4.176
2.39264
1.62508
1.5397
2.50306
2.95079
2.94606
2.42816
1.3942
0.777666
0.562587
0.562895
0.61007
0.707149
0.849254
1.02628
1.24628
1.53951
1.80074
2.02357
2.95683
1.83342
1.47147
1.2232
2.02881
2.89482
3.05171
2.69721
1.3001
0.367537
0.395175
0.440111
0.497233
0.567063
0.647779
0.744229
0.888662
1.13801
1.49234
1.95958
2.7048
2.38223
2.34957
1.90564
0.294955
0.49073
0.531825
0.557973
0.575358
0.593875
0.618957
0.65492
0.712727
0.795793
0.947408
1.4575
2.85279
2.80015
2.83198
2.78004
0.642736
0.661189
0.649799
0.640068
0.63482
0.63566
0.639332
0.645592
0.654019
0.671051
0.719211
0.991175
2.85337
2.82309
2.85075
2.95215
0.688433
0.65275
0.645067
0.637522
0.631453
0.625636
0.624653
0.625896
0.630191
0.638577
0.652843
0.763085
2.53458
2.40379
2.35643
2.61044
0.57796
0.447239
0.469684
0.483526
0.493509
0.503027
0.514054
0.525699
0.536512
0.547007
0.558623
0.61989
2.10064
1.6972
1.3613
1.26278
0.295461
0.641667
0.686828
0.567455
0.0653659
0.109784
0.178078
0.242101
0.295484
0.339572
0.375467
0.402162
0.42534
0.449188
0.470165
0.526139
1.71108
1.1512
0.758967
0.363811
0.494438
0.663713
0.651211
0.449346
0.122582
0.0421314
0.0557348
0.0921622
0.144119
0.199013
0.244915
0.284355
0.32272
0.364775
0.396035
0.450184
1.37977
0.815903
0.55399
0.392076
0.534932
0.651682
0.643543
0.474094
0.196298
0.0596709
0.038102
0.0458858
0.0691045
0.102885
0.142915
0.187703
0.233872
0.284538
0.322313
0.379903
1.20546
0.714338
0.554897
0.437087
0.559909
0.641173
0.636268
0.490761
0.261081
0.101265
0.0477569
0.0395102
0.0419658
0.0538269
0.0788036
0.11701
0.163445
0.212002
0.250789
0.314362
1.13045
0.732062
0.600874
0.493835
0.576566
0.635217
0.631021
0.500996
0.311932
0.156928
0.0744137
0.0432857
0.0410307
0.0425498
0.0524373
0.0783528
0.114871
0.154978
0.191782
0.255531
1.14569
0.791835
0.694101
0.562791
0.594711
0.636241
0.626744
0.509635
0.354507
0.21334
0.111382
0.0580662
0.0435015
0.0437387
0.0477475
0.0602732
0.082015
0.112011
0.143918
0.205114
1.20539
0.901965
0.827805
0.642592
0.619814
0.640755
0.62675
0.52062
0.39099
0.260597
0.154468
0.0864805
0.0564507
0.0494762
0.0490876
0.0506981
0.058288
0.0779238
0.106644
0.165283
1.32021
1.06083
0.995079
0.737034
0.656109
0.648814
0.628849
0.533646
0.41836
0.300473
0.200442
0.127317
0.0853719
0.0645473
0.0519387
0.0509991
0.0543901
0.0654396
0.0850289
0.133623
1.46998
1.26505
1.20151
0.873063
0.714617
0.659843
0.634911
0.547553
0.441364
0.337056
0.246101
0.173906
0.122624
0.0876013
0.0615145
0.0553345
0.0578106
0.0670704
0.0799617
0.114909
1.61954
1.47705
1.48473
1.10051
0.797017
0.679202
0.645977
0.560529
0.463629
0.377236
0.295381
0.221039
0.162005
0.117913
0.0833514
0.0682745
0.0690247
0.0734656
0.0822959
0.111699
1.765
1.67123
1.75247
1.43801
0.939085
0.727099
0.662961
0.573716
0.483642
0.408156
0.332157
0.259011
0.198693
0.15026
0.113487
0.0909444
0.083212
0.0841876
0.0892978
0.114817
1.94132
1.89026
1.99023
1.914
1.42775
0.991317
0.776103
0.637308
0.540971
0.463684
0.391314
0.32425
0.264969
0.214755
0.175133
0.143863
0.123576
0.11708
0.119075
0.134758
5.30838
4.9259
4.1499
2.99142
2.81197
2.99054
2.97575
2.62767
2.16829
1.76546
1.42191
1.24695
1.18442
1.20546
1.27179
1.39528
1.54953
1.69769
1.83918
2.00886
4.864
4.58416
2.37652
1.90155
2.55201
2.94733
2.93544
2.48135
1.74071
1.18397
0.834682
0.730766
0.753956
0.824202
0.944534
1.11455
1.32928
1.53832
1.73031
1.93836
4.18897
2.38124
1.61618
1.53302
2.53138
2.96554
2.95244
2.42819
1.38942
0.776961
0.563905
0.563228
0.608843
0.705746
0.848771
1.02672
1.24922
1.54811
1.81119
2.02955
2.95588
1.82598
1.45969
1.20611
2.09719
2.89905
3.05667
2.70028
1.28695
0.366911
0.394639
0.439145
0.495756
0.565712
0.646633
0.74404
0.888992
1.13974
1.5027
1.97151
2.69868
2.37152
2.33501
1.84413
0.285165
0.48712
0.527741
0.552816
0.570112
0.589121
0.615265
0.652455
0.711138
0.794469
0.947438
1.46302
2.84843
2.79364
2.82736
2.77853
0.635179
0.657381
0.645472
0.634386
0.629653
0.630857
0.635356
0.642541
0.651814
0.669504
0.718024
0.991113
2.84931
2.81873
2.8481
2.94963
0.681487
0.649003
0.641042
0.632806
0.626666
0.621381
0.621032
0.622695
0.627655
0.636779
0.651474
0.761785
2.53199
2.40247
2.3571
2.6053
0.5697
0.4455
0.468163
0.483054
0.492014
0.500189
0.511337
0.523442
0.534809
0.5451
0.556559
0.617458
2.09844
1.69663
1.36639
1.29255
0.277942
0.64409
0.688393
0.568521
0.0631545
0.112416
0.181125
0.244503
0.296085
0.338963
0.374393
0.401497
0.424672
0.447602
0.467961
0.523412
1.7087
1.15035
0.760185
0.362015
0.496724
0.66925
0.655426
0.450578
0.120347
0.0420111
0.0559449
0.0926563
0.144939
0.199032
0.24413
0.283328
0.321154
0.36289
0.393657
0.447154
1.38004
0.816017
0.554932
0.390544
0.537824
0.656892
0.647459
0.474715
0.193284
0.0587303
0.0375745
0.0454306
0.0686015
0.101895
0.141457
0.185898
0.232429
0.282337
0.31938
0.376526
1.20781
0.715758
0.556544
0.436789
0.562937
0.646077
0.640161
0.489273
0.257284
0.0995011
0.0472879
0.0384157
0.0408413
0.0525786
0.0777189
0.11634
0.161801
0.20909
0.247743
0.311106
1.13266
0.733506
0.603644
0.495101
0.579876
0.639716
0.634456
0.499689
0.309317
0.154663
0.0735639
0.0423205
0.0402582
0.0421708
0.0529652
0.0781248
0.112781
0.151956
0.188534
0.252436
1.1479
0.793562
0.696759
0.565132
0.598165
0.640699
0.630016
0.510508
0.353969
0.210885
0.11024
0.0569509
0.0432332
0.0436808
0.0470977
0.0585144
0.0795344
0.109421
0.141712
0.202378
1.20705
0.903705
0.830888
0.645506
0.623174
0.644921
0.630198
0.523061
0.388685
0.257833
0.152741
0.085536
0.0571371
0.0490314
0.0474781
0.0490342
0.0567104
0.0765993
0.105022
0.16239
1.32212
1.06305
0.998313
0.739077
0.660051
0.652745
0.63247
0.535416
0.414789
0.297652
0.199177
0.127025
0.0853334
0.0630064
0.0501868
0.0498278
0.053655
0.0645046
0.0828
0.130432
1.47119
1.26706
1.20568
0.87578
0.717956
0.663386
0.638307
0.546785
0.438686
0.335908
0.245944
0.173097
0.121336
0.0860595
0.060485
0.0546709
0.0570942
0.0656463
0.0782763
0.113134
1.61863
1.47701
1.4873
1.10673
0.800178
0.682231
0.648923
0.559497
0.463782
0.377833
0.294675
0.220148
0.161208
0.117119
0.083271
0.0673158
0.0675839
0.0718423
0.0808773
0.111287
1.7626
1.6691
1.7491
1.43748
0.941322
0.729517
0.665628
0.574058
0.485476
0.408229
0.33215
0.259214
0.198479
0.150689
0.113396
0.0894426
0.0815854
0.0828288
0.088561
0.114448
1.93764
1.88607
1.98245
1.90349
1.42171
0.988432
0.776346
0.638158
0.542194
0.462767
0.391585
0.325285
0.265838
0.215123
0.174773
0.142745
0.122542
0.116506
0.118551
0.134072
5.23658
4.83517
4.19968
3.05342
2.83854
2.99477
2.97572
2.62715
2.17095
1.76905
1.43041
1.25928
1.19064
1.20989
1.27654
1.39915
1.5466
1.69245
1.83253
2.00206
4.78506
4.61453
2.49981
1.93677
2.5575
2.94919
2.93412
2.48099
1.74559
1.18917
0.842329
0.746514
0.769685
0.838072
0.95802
1.13052
1.3398
1.54148
1.72719
1.93052
4.25796
2.52746
1.63837
1.549
2.53556
2.96918
2.95249
2.42953
1.39686
0.785145
0.571864
0.575341
0.627747
0.727901
0.871896
1.0502
1.2758
1.56883
1.81382
2.02186
3.03257
1.86655
1.47054
1.2231
2.11886
2.91311
3.06739
2.70437
1.28785
0.37542
0.403772
0.449644
0.509542
0.583556
0.66822
0.772524
0.927809
1.18928
1.54834
1.98348
2.73065
2.36706
2.32925
1.85234
0.291129
0.495712
0.535925
0.560792
0.578739
0.598704
0.626896
0.667406
0.731558
0.821754
0.993164
1.51926
2.85265
2.79055
2.82858
2.78612
0.63617
0.665212
0.652648
0.642283
0.636813
0.637957
0.642523
0.649947
0.660957
0.683031
0.740883
1.04183
2.84959
2.81799
2.85356
2.95664
0.683652
0.657481
0.648367
0.640092
0.634103
0.629263
0.629351
0.63116
0.636784
0.646997
0.664136
0.792008
2.53243
2.40243
2.35964
2.61431
0.572568
0.455189
0.477316
0.491889
0.50128
0.509725
0.520881
0.532917
0.544334
0.556019
0.569426
0.64006
2.0984
1.69633
1.36497
1.25574
0.295437
0.649974
0.695711
0.576266
0.0651561
0.11873
0.190144
0.253247
0.306306
0.35036
0.383989
0.410155
0.4333
0.45726
0.479653
0.540233
1.70578
1.14844
0.76524
0.372114
0.500734
0.670549
0.660483
0.455637
0.120365
0.0434897
0.0589983
0.0995153
0.152888
0.206007
0.252322
0.291623
0.331093
0.373856
0.403286
0.459289
1.38181
0.817673
0.560365
0.400375
0.541089
0.657126
0.650986
0.478884
0.193265
0.0602682
0.0399341
0.0476943
0.0706607
0.105337
0.14655
0.193316
0.241372
0.290209
0.326879
0.385526
1.21218
0.721408
0.56395
0.446283
0.565268
0.646127
0.642519
0.493778
0.257325
0.102614
0.0489201
0.0389882
0.0417134
0.0543831
0.0828986
0.12383
0.167553
0.214594
0.253115
0.316608
1.13872
0.739638
0.612793
0.504493
0.581523
0.639614
0.635984
0.503503
0.311871
0.157843
0.0738613
0.0425972
0.0409285
0.0439056
0.0564505
0.0820509
0.116274
0.155201
0.191631
0.256637
1.15545
0.800747
0.704977
0.574454
0.59959
0.640535
0.630661
0.512303
0.357579
0.213275
0.110695
0.0576414
0.045061
0.045183
0.0476735
0.0588831
0.0800836
0.110749
0.144888
0.207356
1.2185
0.913459
0.838907
0.654385
0.624868
0.644761
0.630654
0.524053
0.391855
0.260676
0.154235
0.089145
0.0605323
0.04952
0.048335
0.0504499
0.058338
0.0798344
0.109554
0.167352
1.33731
1.07822
1.00755
0.749971
0.662535
0.652221
0.632485
0.536206
0.417763
0.300725
0.203007
0.132765
0.08915
0.0636365
0.0517379
0.0518737
0.0576589
0.0702932
0.0886123
0.134876
1.4844
1.28655
1.22151
0.890026
0.723104
0.663223
0.638274
0.547685
0.440445
0.340802
0.252
0.178484
0.12561
0.0872717
0.0624327
0.0590169
0.0622563
0.0714621
0.0835264
0.117593
1.62737
1.49109
1.50891
1.1277
0.808345
0.683854
0.6491
0.560261
0.46521
0.383841
0.301585
0.226467
0.165592
0.119828
0.0873168
0.0745898
0.0739249
0.0774446
0.0855845
0.116076
1.76586
1.67692
1.7632
1.46771
0.962448
0.736893
0.667277
0.575062
0.48864
0.413834
0.338896
0.265532
0.203766
0.156088
0.120179
0.0975755
0.0876981
0.0880332
0.0934595
0.119581
1.93412
1.87987
1.9784
1.91416
1.45752
1.01884
0.792976
0.647639
0.551301
0.471993
0.400279
0.33305
0.273874
0.224303
0.183505
0.149869
0.128516
0.122022
0.124063
0.139245
5.1547
4.71721
4.27643
3.17247
2.8995
3.00584
2.97776
2.63804
2.19123
1.78458
1.45281
1.28109
1.20517
1.22452
1.29437
1.41501
1.55127
1.69017
1.82575
1.99528
4.68551
4.62867
2.72856
2.02814
2.55244
2.94047
2.92796
2.48494
1.7642
1.19996
0.860274
0.768854
0.791489
0.861203
0.985122
1.16021
1.3589
1.54856
1.72294
1.91979
4.34002
2.79012
1.70561
1.57267
2.51834
2.95443
2.9412
2.43246
1.41517
0.79897
0.586536
0.597186
0.65636
0.758019
0.901729
1.08089
1.31216
1.59091
1.80724
2.0077
3.16447
1.96977
1.50395
1.24758
2.11553
2.90269
3.05353
2.70108
1.3046
0.394243
0.421837
0.468598
0.532344
0.611861
0.701718
0.813746
0.982895
1.2591
1.59977
1.98632
2.81583
2.37229
2.31571
1.86233
0.308168
0.512528
0.550881
0.574536
0.593754
0.616121
0.648013
0.695187
0.766092
0.870686
1.07165
1.595
2.87533
2.78908
2.82848
2.79181
0.655326
0.679774
0.665559
0.654233
0.649193
0.650547
0.655512
0.663984
0.678799
0.71104
0.787443
1.12898
2.86055
2.8199
2.86004
2.96571
0.703643
0.672788
0.661546
0.652551
0.645725
0.640591
0.641075
0.644236
0.651441
0.664912
0.689363
0.851185
2.54444
2.41201
2.37507
2.62439
0.590097
0.467769
0.488974
0.502538
0.511508
0.521319
0.53435
0.546357
0.556358
0.569198
0.587835
0.682488
2.11125
1.71016
1.3871
1.30992
0.289994
0.645251
0.695211
0.579627
0.072364
0.125042
0.19708
0.260487
0.317027
0.362813
0.39547
0.420286
0.443613
0.471149
0.498346
0.571191
1.7122
1.15328
0.776998
0.381693
0.501518
0.667913
0.660539
0.461543
0.129329
0.0477674
0.063863
0.106452
0.162558
0.218623
0.262766
0.301504
0.34531
0.39021
0.419074
0.480672
1.39396
0.8252
0.567223
0.408253
0.540837
0.655431
0.650532
0.483412
0.202373
0.0659435
0.0451448
0.0538527
0.0782288
0.113218
0.155763
0.205727
0.25721
0.307306
0.340113
0.400403
1.22655
0.733628
0.576053
0.45356
0.564553
0.644693
0.642747
0.497687
0.265402
0.110737
0.0552368
0.0428574
0.0448483
0.0584163
0.0914406
0.13651
0.183396
0.228913
0.263459
0.328648
1.15516
0.752772
0.62962
0.513556
0.582651
0.640151
0.636773
0.507539
0.32211
0.16836
0.0820081
0.0458449
0.0435662
0.0475482
0.063183
0.0928777
0.128128
0.165573
0.201413
0.268764
1.17576
0.818329
0.721896
0.586764
0.603158
0.641877
0.633179
0.518208
0.368426
0.225595
0.119714
0.06196
0.048621
0.0496567
0.054065
0.0666167
0.0871751
0.118528
0.154754
0.220846
1.24718
0.940269
0.85773
0.67017
0.631848
0.647669
0.634134
0.531763
0.401225
0.271107
0.164641
0.098063
0.0671478
0.0561397
0.055341
0.0575704
0.0662763
0.0895137
0.121552
0.181522
1.3718
1.11926
1.03302
0.770951
0.675334
0.657533
0.638199
0.543855
0.425572
0.31099
0.216485
0.145872
0.0999522
0.0714252
0.0587791
0.0594551
0.0667081
0.0825824
0.103434
0.149565
1.51298
1.33047
1.26407
0.920106
0.742199
0.672671
0.646332
0.554227
0.44882
0.355307
0.268999
0.194629
0.137727
0.095
0.0697317
0.0688918
0.0733968
0.0853051
0.0978018
0.131457
1.65126
1.52655
1.55613
1.17623
0.839161
0.700865
0.660704
0.567889
0.477001
0.400249
0.319209
0.241467
0.177273
0.129363
0.0975746
0.0880051
0.0883288
0.0918043
0.0990855
0.128332
1.78416
1.70103
1.79027
1.52313
1.01976
0.768829
0.685524
0.587559
0.504744
0.429109
0.352443
0.277634
0.215963
0.168955
0.134001
0.113518
0.102581
0.101481
0.106017
0.131693
1.9433
1.88466
1.97974
1.93246
1.52644
1.08877
0.841078
0.681774
0.578432
0.491443
0.414936
0.346854
0.288804
0.240534
0.19941
0.16536
0.142766
0.13432
0.13615
0.151664
5.1182
4.65591
4.32025
3.29152
2.98534
3.02814
2.99363
2.66387
2.22419
1.81378
1.4868
1.31237
1.23382
1.2543
1.32707
1.44312
1.5693
1.70239
1.83278
2.00004
4.63911
4.55644
2.98078
2.15657
2.56093
2.93132
2.93157
2.51068
1.80243
1.22932
0.892031
0.801495
0.82469
0.895653
1.02374
1.19848
1.38678
1.56548
1.72635
1.9175
4.38082
3.07873
1.82524
1.62918
2.50285
2.94902
2.94834
2.46127
1.46261
0.827235
0.614217
0.629529
0.690666
0.790639
0.932636
1.11454
1.34746
1.6062
1.79858
1.99066
3.28656
2.118
1.57657
1.28599
2.12043
2.89464
3.04343
2.70452
1.37146
0.41486
0.439655
0.487279
0.555244
0.637843
0.731543
0.849539
1.03175
1.31179
1.62841
1.97179
2.91027
2.39971
2.31349
1.87869
0.311807
0.520337
0.557794
0.582588
0.605072
0.631197
0.667325
0.718531
0.792587
0.913336
1.13575
1.63907
2.90126
2.78763
2.83782
2.79504
0.659711
0.6818
0.670022
0.660234
0.657527
0.658889
0.663549
0.672606
0.689899
0.73247
0.825375
1.1948
2.8734
2.82213
2.8731
2.97337
0.708492
0.675995
0.666403
0.658242
0.651944
0.646538
0.646672
0.649194
0.656047
0.672095
0.704031
0.897527
2.55771
2.42245
2.38945
2.63647
0.596172
0.475126
0.49649
0.510309
0.519334
0.52899
0.540739
0.550658
0.560368
0.575358
0.597926
0.713122
2.12944
1.72492
1.40328
1.28407
0.319728
0.645346
0.696051
0.582033
0.0753849
0.131132
0.204568
0.270397
0.328402
0.373055
0.404269
0.428474
0.451828
0.478967
0.505828
0.588814
1.72804
1.1659
0.791503
0.399961
0.511503
0.671504
0.665872
0.46975
0.138325
0.0531407
0.0706247
0.115045
0.174099
0.231038
0.274211
0.313966
0.357851
0.398784
0.426372
0.493318
1.41774
0.845596
0.587314
0.425619
0.549604
0.659964
0.656707
0.492321
0.213498
0.0742494
0.0512452
0.0604785
0.0853403
0.122592
0.168867
0.220723
0.272333
0.318774
0.347679
0.410411
1.25129
0.759725
0.603113
0.47392
0.573259
0.649535
0.648987
0.507068
0.278865
0.122482
0.0630617
0.047777
0.0494321
0.0661632
0.103847
0.152015
0.198006
0.240895
0.27404
0.339809
1.18504
0.781254
0.661655
0.538898
0.593447
0.645761
0.643202
0.517509
0.336353
0.183543
0.0920402
0.0511183
0.0492586
0.0545037
0.0729045
0.104608
0.139459
0.178293
0.214612
0.281865
1.21034
0.85218
0.753962
0.615501
0.616448
0.647511
0.639278
0.528132
0.381015
0.241545
0.13271
0.071244
0.0560957
0.0576308
0.0625141
0.0751998
0.0975004
0.132135
0.169483
0.234677
1.2895
0.981902
0.889965
0.699932
0.648608
0.653663
0.640249
0.540528
0.411813
0.285761
0.180733
0.112046
0.0776435
0.0645033
0.0640129
0.0679969
0.0798056
0.106103
0.13788
0.196418
1.41674
1.16961
1.06987
0.8039
0.695061
0.664479
0.644037
0.550714
0.43552
0.325588