/*--------------------------------*- C++ -*----------------------------------*\
  =========                 |
  \\      /  F ield         | OpenFOAM: The Open Source CFD Toolbox
   \\    /   O peration     | Website:  https://openfoam.org
    \\  /    A nd           | Version:  9
     \\/     M anipulation  |
\*---------------------------------------------------------------------------*/
FoamFile
{
    format      ascii;
    class       volScalarField;
    location    "0.007";
    object      rho.Air;
}
// * * * * * * * * * * * * * * * * * * * * * * * * * * * * * * * * * * * * * //

dimensions      [1 -3 0 0 0 0 0];

internalField   nonuniform List<scalar> 
9720
(
0.00503315
0.00455842
0.0042335
0.00317969
0.00282871
0.00284197
0.0028158
0.00251169
0.00215212
0.00176147
0.00142366
0.00117554
0.000982017
0.000974051
0.00101675
0.00111989
0.00127613
0.00147077
0.00165766
0.00196352
0.00452748
0.00428953
0.00305118
0.0021362
0.00237981
0.00272865
0.00276763
0.00240926
0.00177932
0.00107082
0.000630328
0.000382497
0.000267035
0.000271965
0.000303352
0.000371842
0.000482021
0.000641505
0.000824573
0.00119862
0.00422729
0.00308245
0.00185399
0.00160409
0.00232734
0.00280819
0.00285925
0.00240688
0.00140635
0.000465149
0.000205342
0.000110992
8.48925e-05
8.62521e-05
9.43033e-05
0.000113036
0.000148869
0.000216446
0.000308734
0.000528322
0.00318344
0.00212852
0.00158064
0.00124106
0.0017374
0.00251727
0.00269357
0.00239979
0.00117728
5.64719e-05
3.0932e-05
2.15271e-05
2.1095e-05
2.18105e-05
2.42074e-05
2.91027e-05
3.87304e-05
5.88495e-05
9.48317e-05
0.000192238
0.00278883
0.00231888
0.00226901
0.00173455
5.71308e-05
1.13108e-05
1.09008e-05
1.08631e-05
1.09793e-05
1.13878e-05
1.22103e-05
1.36304e-05
1.59834e-05
2.03144e-05
2.93338e-05
6.57137e-05
0.0027714
0.00265009
0.00275362
0.0024503
2.20752e-05
1.2034e-05
1.1261e-05
1.06618e-05
1.03144e-05
1.03452e-05
1.05249e-05
1.09212e-05
1.16207e-05
1.30284e-05
1.56918e-05
2.87714e-05
0.00273849
0.00268822
0.00280933
0.00262057
2.05806e-05
1.10124e-05
1.03995e-05
9.9475e-06
9.55791e-06
9.37922e-06
9.41889e-06
9.59453e-06
9.97332e-06
1.06792e-05
1.17535e-05
1.74019e-05
0.00243815
0.0023351
0.00234918
0.00231742
1.55947e-05
7.24313e-06
7.27241e-06
7.29841e-06
7.26978e-06
7.28351e-06
7.38696e-06
7.61227e-06
7.96855e-06
8.51214e-06
9.21076e-06
1.23658e-05
0.0020784
0.00170471
0.00134047
0.00104994
4.6194e-05
2.51296e-05
2.38051e-05
1.77642e-05
1.71446e-06
2.02393e-06
2.97774e-06
3.79064e-06
4.46119e-06
4.99409e-06
5.43136e-06
5.83013e-06
6.24985e-06
6.77998e-06
7.38124e-06
9.53483e-06
0.00170171
0.00102766
0.000450688
5.32283e-05
1.17736e-05
1.24542e-05
1.12787e-05
7.48634e-06
2.16021e-06
7.98e-07
1.031e-06
1.59716e-06
2.3788e-06
3.15429e-06
3.75454e-06
4.29059e-06
4.86417e-06
5.4878e-06
6.05681e-06
7.72603e-06
0.00137443
0.000599242
0.000192744
2.92116e-05
1.09395e-05
1.13666e-05
1.04163e-05
7.36917e-06
3.14855e-06
1.07638e-06
7.01738e-07
8.25252e-07
1.17821e-06
1.72045e-06
2.34422e-06
3.00221e-06
3.6777e-06
4.39018e-06
4.92702e-06
6.33144e-06
0.00113007
0.000364249
0.000106817
2.02392e-05
1.06708e-05
1.06815e-05
9.86657e-06
7.30491e-06
3.94055e-06
1.69171e-06
8.60007e-07
6.75191e-07
7.06475e-07
9.42581e-07
1.43244e-06
2.06189e-06
2.705e-06
3.3698e-06
3.90904e-06
5.19371e-06
0.000943753
0.000249525
7.93306e-05
1.97722e-05
1.07634e-05
1.01829e-05
9.40893e-06
7.19974e-06
4.55535e-06
2.4783e-06
1.25653e-06
7.34092e-07
7.07713e-07
7.76947e-07
1.01053e-06
1.43329e-06
1.92573e-06
2.50183e-06
3.04692e-06
4.28347e-06
0.000940502
0.000251842
7.94637e-05
2.04012e-05
1.114e-05
1.0184e-05
9.18646e-06
7.20572e-06
5.0472e-06
3.2406e-06
1.81542e-06
1.00204e-06
7.96818e-07
8.1931e-07
9.0829e-07
1.08328e-06
1.38017e-06
1.86788e-06
2.39895e-06
3.56192e-06
0.00098662
0.000278746
8.53031e-05
2.25404e-05
1.19136e-05
1.03387e-05
9.23323e-06
7.31581e-06
5.46109e-06
3.83526e-06
2.43142e-06
1.49285e-06
1.05325e-06
9.33426e-07
9.48567e-07
1.04136e-06
1.25639e-06
1.63786e-06
2.03633e-06
2.92973e-06
0.00109465
0.000344401
0.000101428
2.68886e-05
1.32625e-05
1.07401e-05
9.42736e-06
7.54871e-06
5.85936e-06
4.36787e-06
3.07369e-06
2.10375e-06
1.47401e-06
1.14323e-06
1.06786e-06
1.12111e-06
1.30878e-06
1.63773e-06
1.92313e-06
2.67494e-06
0.00125475
0.000455401
0.000133991
3.53443e-05
1.55525e-05
1.1469e-05
9.83528e-06
7.90062e-06
6.28331e-06
4.94439e-06
3.74601e-06
2.7413e-06
1.96933e-06
1.45033e-06
1.30171e-06
1.33767e-06
1.46479e-06
1.67638e-06
1.92704e-06
2.69203e-06
0.0014529
0.000616484
0.000196999
5.34499e-05
1.97643e-05
1.29068e-05
1.05956e-05
8.45588e-06
6.81975e-06
5.58173e-06
4.48407e-06
3.44679e-06
2.5728e-06
1.92825e-06
1.67992e-06
1.67537e-06
1.70439e-06
1.79729e-06
2.00899e-06
2.7956e-06
0.00164309
0.000797928
0.000284499
8.67245e-05
2.84204e-05
1.56223e-05
1.1751e-05
9.1876e-06
7.44479e-06
6.17203e-06
5.06467e-06
4.04343e-06
3.14759e-06
2.45361e-06
2.04536e-06
1.96736e-06
1.97617e-06
2.04058e-06
2.21861e-06
2.99841e-06
0.00193977
0.00116933
0.000500127
0.000180462
6.44358e-05
2.9443e-05
1.79213e-05
1.26277e-05
9.8055e-06
7.98703e-06
6.61682e-06
5.47293e-06
4.4922e-06
3.65201e-06
2.90808e-06
2.68548e-06
2.71739e-06
2.82347e-06
3.01101e-06
3.76263e-06
0.00503519
0.00470808
0.00447048
0.00324234
0.00285714
0.00287399
0.0028503
0.00256597
0.00218122
0.00167779
0.00125527
0.000974746
0.000777734
0.000758768
0.000796318
0.000896583
0.00106183
0.00127371
0.00147624
0.00180271
0.00468669
0.00486882
0.00332481
0.00231072
0.00247629
0.00284125
0.00295437
0.00253998
0.00173748
0.00079049
0.000367218
0.000194109
0.000141598
0.000147692
0.000169941
0.000218258
0.000305136
0.000443337
0.000610894
0.000969138
0.00450958
0.00340058
0.00222253
0.00215119
0.00323976
0.00381868
0.00385956
0.00332851
0.00118511
0.000181227
7.40122e-05
4.04954e-05
3.72524e-05
3.88865e-05
4.41897e-05
5.54852e-05
7.73676e-05
0.0001209
0.000186153
0.000346667
0.00328474
0.00230365
0.00210078
0.00315831
0.0102683
0.0116438
0.0112681
0.0108713
0.00150528
6.54231e-06
7.42596e-06
7.52699e-06
8.02931e-06
9.04882e-06
1.08873e-05
1.39423e-05
1.92248e-05
3.01107e-05
5.10514e-05
0.00011012
0.00284121
0.00243115
0.00305062
0.00906461
1.99541e-05
3.00434e-06
3.69647e-06
4.36073e-06
5.02038e-06
5.75402e-06
6.60614e-06
7.67466e-06
9.19657e-06
1.16487e-05
1.65181e-05
3.70144e-05
0.00280729
0.0027539
0.00379806
0.0120336
3.11052e-06
3.88132e-06
4.48914e-06
5.03065e-06
5.50924e-06
5.97092e-06
6.45021e-06
6.9652e-06
7.58323e-06
8.55899e-06
1.02021e-05
1.79408e-05
0.00277269
0.00283425
0.00393504
0.012403
3.95511e-06
4.41175e-06
4.88759e-06
5.31695e-06
5.69073e-06
6.01577e-06
6.34096e-06
6.70424e-06
7.12923e-06
7.70871e-06
8.46022e-06
1.20614e-05
0.00248945
0.00246129
0.00338295
0.0124239
3.86805e-06
3.39746e-06
3.83929e-06
4.24351e-06
4.59358e-06
4.95074e-06
5.31829e-06
5.67595e-06
6.0409e-06
6.49811e-06
7.03565e-06
9.22055e-06
0.00211172
0.00166335
0.00112849
0.00148974
1.14418e-05
2.33942e-06
2.96828e-06
2.82407e-06
5.0204e-07
1.01474e-06
1.69383e-06
2.342e-06
2.96498e-06
3.52722e-06
4.01673e-06
4.45317e-06
4.88167e-06
5.38517e-06
5.89724e-06
7.47799e-06
0.00161422
0.000737825
0.000162312
5.29103e-06
2.3486e-06
3.06678e-06
3.45035e-06
2.68396e-06
9.35428e-07
4.49806e-07
6.07633e-07
1.03657e-06
1.63781e-06
2.26634e-06
2.80389e-06
3.32617e-06
3.90852e-06
4.51356e-06
4.99602e-06
6.27463e-06
0.0012004
0.000330829
6.23455e-05
5.90318e-06
3.03718e-06
3.65341e-06
3.93557e-06
3.12311e-06
1.50549e-06
5.97843e-07
4.96426e-07
5.76473e-07
8.2677e-07
1.23326e-06
1.76084e-06
2.37185e-06
3.00536e-06
3.64726e-06
4.12698e-06
5.29052e-06
0.000920319
0.000170619
3.46983e-05
6.11606e-06
3.65816e-06
4.18703e-06
4.39091e-06
3.5337e-06
2.0626e-06
9.79285e-07
5.80942e-07
5.13871e-07
5.37316e-07
7.14436e-07
1.11907e-06
1.65802e-06
2.21617e-06
2.80908e-06
3.30649e-06
4.45195e-06
0.000725295
0.000123101
3.18693e-05
6.66308e-06
4.26641e-06
4.65238e-06
4.78394e-06
3.91029e-06
2.6158e-06
1.50739e-06
8.20498e-07
5.46435e-07
5.46486e-07
6.22832e-07
8.28988e-07
1.17685e-06
1.59286e-06
2.10888e-06
2.61319e-06
3.74555e-06
0.000709661
0.000128022
3.31436e-05
7.60257e-06
4.93951e-06
5.10289e-06
5.12217e-06
4.27032e-06
3.13376e-06
2.07681e-06
1.19861e-06
7.29728e-07
6.33658e-07
6.60198e-07
7.40998e-07
9.05947e-07
1.17674e-06
1.62265e-06
2.10447e-06
3.16669e-06
0.000746884
0.000147179
3.74543e-05
9.21319e-06
5.70921e-06
5.5713e-06
5.45909e-06
4.63188e-06
3.58843e-06
2.58419e-06
1.68466e-06
1.10762e-06
8.37395e-07
7.54278e-07
7.73294e-07
8.69898e-07
1.07424e-06
1.42967e-06
1.80017e-06
2.65959e-06
0.000847328
0.00019105
4.6994e-05
1.18624e-05
6.67721e-06
6.07771e-06
5.82921e-06
4.98277e-06
4.00357e-06
3.07198e-06
2.24332e-06
1.59529e-06
1.15917e-06
9.32088e-07
8.88686e-07
9.42376e-07
1.11526e-06
1.41425e-06
1.70475e-06
2.45337e-06
0.00101349
0.000272837
6.60776e-05
1.63914e-05
8.09269e-06
6.69038e-06
6.26447e-06
5.34206e-06
4.41066e-06
3.60091e-06
2.81934e-06
2.11083e-06
1.55545e-06
1.19923e-06
1.11324e-06
1.14191e-06
1.24977e-06
1.45482e-06
1.71343e-06
2.4683e-06
0.00122629
0.000404606
0.000104889
2.5997e-05
1.03688e-05
7.62923e-06
6.85788e-06
5.79646e-06
4.88152e-06
4.15601e-06
3.42265e-06
2.68923e-06
2.06453e-06
1.62372e-06
1.46412e-06
1.45983e-06
1.48714e-06
1.58863e-06
1.79273e-06
2.55822e-06
0.00142823
0.000565328
0.000164165
4.51555e-05
1.49792e-05
9.20999e-06
7.61977e-06
6.32943e-06
5.36989e-06
4.62152e-06
3.89385e-06
3.19002e-06
2.56892e-06
2.08842e-06
1.80191e-06
1.75987e-06
1.77168e-06
1.83039e-06
1.99774e-06
2.7446e-06
0.00174147
0.000911741
0.000313744
0.000100294
3.49395e-05
1.70469e-05
1.13076e-05
8.54212e-06
6.97412e-06
5.91473e-06
5.06322e-06
4.33425e-06
3.69677e-06
3.12685e-06
2.59609e-06
2.46125e-06
2.49744e-06
2.59637e-06
2.76656e-06
3.49092e-06
0.0051321
0.00519459
0.00518402
0.00363218
0.0030653
0.00299908
0.00296621
0.00272745
0.00216622
0.00132527
0.000773576
0.000484268
0.000322354
0.000304725
0.000329362
0.000401381
0.000544056
0.000758408
0.000980011
0.00134509
0.00517329
0.00651401
0.00475293
0.00300732
0.00302552
0.00396844
0.00422727
0.00381765
0.00114517
0.000225227
7.67919e-05
3.18797e-05
2.90056e-05
3.17146e-05
3.87175e-05
5.42374e-05
8.6843e-05
0.000149808
0.000243165
0.000483253
0.00525204
0.00506627
0.00407782
0.00546153
0.00593075
0.00667533
0.00736639
0.00545023
0.000225865
1.94716e-05
7.01968e-06
5.79925e-06
6.40815e-06
7.52456e-06
9.29104e-06
1.23948e-05
1.83259e-05
3.11229e-05
5.3436e-05
0.000112708
0.00373648
0.00304268
0.00522765
0.0198383
0.0104381
0.0111896
0.0242703
0.000826408
1.84608e-05
1.4348e-06
1.93556e-06
2.44129e-06
2.97896e-06
3.60785e-06
4.49054e-06
5.61436e-06
7.23488e-06
1.02926e-05
1.61024e-05
3.31482e-05
0.00311344
0.00320734
0.00497188
0.0004505
1.22332e-06
3.16818e-06
3.509e-06
3.76465e-06
4.00681e-06
4.29376e-06
4.64365e-06
5.13706e-06
5.89814e-06
6.97759e-06
8.83269e-06
1.55301e-05
0.00294141
0.00397259
0.00727519
0.0262185
3.51722e-06
4.79466e-06
4.86122e-06
4.97645e-06
5.12363e-06
5.30004e-06
5.49245e-06
5.72416e-06
6.03579e-06
6.52646e-06
7.41164e-06
1.10413e-05
0.00289381
0.00425207
0.00777105
0.0270786
4.62898e-06
5.55784e-06
5.56529e-06
5.61639e-06
5.70887e-06
5.82012e-06
5.9542e-06
6.13504e-06
6.35552e-06
6.66512e-06
7.09797e-06
9.16749e-06
0.00266115
0.00389893
0.0057683
0.000608087
4.57659e-06
4.33556e-06
4.48858e-06
4.62125e-06
4.7696e-06
4.96834e-06
5.20573e-06
5.43665e-06
5.67058e-06
5.98716e-06
6.36685e-06
7.8162e-06
0.00215182
0.00122561
0.000226947
1.4271e-05
1.07991e-06
2.88919e-06
3.80177e-06
3.71584e-06
6.56296e-07
1.28726e-06
2.00354e-06
2.64203e-06
3.21482e-06
3.68416e-06
4.05091e-06
4.38591e-06
4.73996e-06
5.17624e-06
5.61568e-06
6.77627e-06
0.00130982
0.000229941
1.82091e-05
1.02276e-06
2.53867e-06
3.87608e-06
4.47273e-06
3.50916e-06
1.14149e-06
5.11653e-07
7.04419e-07
1.18637e-06
1.77808e-06
2.35779e-06
2.8594e-06
3.35554e-06
3.92871e-06
4.51461e-06
4.92232e-06
5.90564e-06
0.000761186
7.36151e-05
6.10934e-06
1.45168e-06
2.78979e-06
3.89985e-06
4.45944e-06
3.62818e-06
1.71606e-06
6.70807e-07
5.22694e-07
6.01269e-07
8.55449e-07
1.26239e-06
1.80303e-06
2.45304e-06
3.09759e-06
3.71977e-06
4.16738e-06
5.14949e-06
0.00045532
2.71514e-05
4.52747e-06
1.8494e-06
2.97273e-06
3.96546e-06
4.49445e-06
3.73876e-06
2.2307e-06
1.06833e-06
5.90042e-07
5.36822e-07
5.65098e-07
7.34637e-07
1.15067e-06
1.70955e-06
2.2903e-06
2.8851e-06
3.38189e-06
4.47321e-06
0.000281949
2.28816e-05
5.00261e-06
2.26166e-06
3.14157e-06
4.06061e-06
4.55667e-06
3.87007e-06
2.70635e-06
1.56456e-06
8.13488e-07
5.65425e-07
5.69852e-07
6.46466e-07
8.48452e-07
1.20709e-06
1.64913e-06
2.18017e-06
2.72093e-06
3.87287e-06
0.000260221
2.49908e-05
5.86703e-06
2.73392e-06
3.3466e-06
4.18703e-06
4.63778e-06
4.02947e-06
3.10589e-06
2.06748e-06
1.17418e-06
7.3097e-07
6.52318e-07
6.78233e-07
7.60656e-07
9.31141e-07
1.20738e-06
1.68067e-06
2.22535e-06
3.36047e-06
0.000282739
3.07107e-05
7.23676e-06
3.40933e-06
3.60695e-06
4.33917e-06
4.74359e-06
4.21422e-06
3.40948e-06
2.50012e-06
1.65134e-06
1.10934e-06
8.53291e-07
7.74392e-07
7.9355e-07
8.72782e-07
1.06382e-06
1.44396e-06
1.90767e-06
2.88151e-06
0.000349703
4.37761e-05
9.66786e-06
4.29892e-06
3.98211e-06
4.52994e-06
4.89372e-06
4.39955e-06
3.67613e-06
2.91778e-06
2.20795e-06
1.6017e-06
1.18268e-06
9.55141e-07
8.91907e-07
9.35265e-07
1.09997e-06
1.43687e-06
1.77341e-06
2.58167e-06
0.000485792
7.19815e-05
1.44541e-05
5.56132e-06
4.58484e-06
4.79652e-06
5.0903e-06
4.59843e-06
3.96025e-06
3.38023e-06
2.74892e-06
2.10678e-06
1.57586e-06
1.21001e-06
1.10634e-06
1.13291e-06
1.25017e-06
1.49255e-06
1.77322e-06
2.58199e-06
0.000697507
0.000127669
2.51985e-05
8.04523e-06
5.48653e-06
5.20598e-06
5.36965e-06
4.87344e-06
4.3168e-06
3.84999e-06
3.26907e-06
2.62138e-06
2.04547e-06
1.63063e-06
1.48256e-06
1.48933e-06
1.52993e-06
1.64063e-06
1.8379e-06
2.65583e-06
0.000918076
0.000211832
4.46374e-05
1.31441e-05
7.07176e-06
5.93936e-06
5.75776e-06
5.20959e-06
4.681e-06
4.1921e-06
3.64611e-06
3.05191e-06
2.52643e-06
2.12297e-06
1.88704e-06
1.82401e-06
1.82933e-06
1.8748e-06
2.04181e-06
2.85576e-06
0.00127038
0.000432968
9.7298e-05
2.85819e-05
1.31789e-05
9.16692e-06
7.6153e-06
6.49974e-06
5.7117e-06
5.06346e-06
4.50656e-06
4.0025e-06
3.55142e-06
3.14437e-06
2.71764e-06
2.55529e-06
2.58998e-06
2.68898e-06
2.88234e-06
3.68116e-06
0.00431996
0.00436754
0.00452637
0.00325405
0.00271858
0.00246555
0.00225389
0.00205968
0.00189751
0.000932738
0.000246809
8.50215e-05
4.16761e-05
4.22139e-05
4.85478e-05
6.72191e-05
0.000112143
0.000208551
0.000355402
0.00069694
0.00433095
0.0111498
0.0142669
0.010116
0.00835097
0.00810549
0.00718485
0.00565796
0.00048148
7.41718e-05
1.90346e-05
5.21308e-06
5.05568e-06
5.57252e-06
6.7872e-06
9.21103e-06
1.44604e-05
2.63708e-05
4.88999e-05
0.000124763
0.00454655
0.0146562
0.0144841
0.00870477
0.00849709
0.00929983
0.00973299
0.00657095
1.96172e-05
2.68411e-06
2.53393e-06
2.75537e-06
3.28187e-06
3.97396e-06
4.77201e-06
5.71637e-06
7.0055e-06
9.40634e-06
1.34843e-05
2.41423e-05
0.00331046
0.0108067
0.00918609
0.000358173
0.000893195
0.00248188
0.0281522
0.000365909
9.61417e-07
1.786e-06
2.32652e-06
2.82821e-06
3.3317e-06
3.86267e-06
4.49431e-06
5.25786e-06
6.32203e-06
7.97658e-06
1.02015e-05
1.41121e-05
0.00267573
0.00880255
0.00930163
0.000721409
2.27672e-06
4.34276e-06
4.68988e-06
4.89928e-06
5.0677e-06
5.27156e-06
5.54764e-06
5.93935e-06
6.56428e-06
7.4381e-06
8.81946e-06
1.23619e-05
0.00231842
0.00804251
0.00976801
0.0132682
5.30435e-06
6.58585e-06
6.54137e-06
6.50018e-06
6.51328e-06
6.56384e-06
6.65879e-06
6.7967e-06
6.99168e-06
7.31986e-06
8.02589e-06
1.08526e-05
0.0020826
0.00690434
0.00960291
0.0292916
6.79978e-06
7.47403e-06
7.40418e-06
7.33949e-06
7.26537e-06
7.22091e-06
7.23514e-06
7.29861e-06
7.42682e-06
7.62067e-06
7.92467e-06
9.60744e-06
0.00187989
0.00531487
0.00657961
0.000486583
6.50377e-06
5.67024e-06
5.86761e-06
5.97461e-06
6.05134e-06
6.1521e-06
6.30077e-06
6.46132e-06
6.63261e-06
6.86562e-06
7.16131e-06
8.36428e-06
0.00187045
0.000686995
2.06429e-05
6.69206e-07
1.78675e-06
4.21107e-06
5.40726e-06
5.1467e-06
8.11472e-07
1.54926e-06
2.47294e-06
3.30609e-06
4.00023e-06
4.5432e-06
4.92641e-06
5.23971e-06
5.56494e-06
5.95315e-06
6.34417e-06
7.38836e-06
0.000986977
0.000103847
3.41715e-06
1.36412e-06
3.36135e-06
5.134e-06
5.8267e-06
4.51055e-06
1.42325e-06
5.93372e-07
8.18362e-07
1.40859e-06
2.148e-06
2.8404e-06
3.44261e-06
4.00514e-06
4.58908e-06
5.19976e-06
5.62242e-06
6.54947e-06
0.000272424
2.29534e-05
2.10135e-06
1.78424e-06
3.62599e-06
5.08777e-06
5.77412e-06
4.6836e-06
2.16629e-06
7.81602e-07
5.92871e-07
6.83991e-07
9.83527e-07
1.48576e-06
2.14113e-06
2.88855e-06
3.6128e-06
4.30011e-06
4.80879e-06
5.79227e-06
8.90258e-05
5.24561e-06
2.22912e-06
2.16454e-06
3.78945e-06
5.04766e-06
5.71521e-06
4.76441e-06
2.80995e-06
1.27336e-06
6.68723e-07
6.18603e-07
6.60864e-07
8.60115e-07
1.31632e-06
1.96313e-06
2.63692e-06
3.34426e-06
3.94953e-06
5.09414e-06
3.58724e-05
4.12921e-06
2.5811e-06
2.54566e-06
3.91994e-06
5.05798e-06
5.65756e-06
4.82506e-06
3.34201e-06
1.89154e-06
9.2391e-07
6.56355e-07
6.68957e-07
7.44759e-07
9.46938e-07
1.34669e-06
1.89307e-06
2.56392e-06
3.21967e-06
4.4554e-06
3.51673e-05
4.49448e-06
3.07648e-06
2.94908e-06
4.07552e-06
5.10359e-06
5.65962e-06
4.91708e-06
3.7709e-06
2.47219e-06
1.34866e-06
8.34703e-07
7.4587e-07
7.66359e-07
8.37577e-07
1.03634e-06
1.40117e-06
1.98001e-06
2.61884e-06
3.86857e-06
4.00234e-05
5.37381e-06
3.66114e-06
3.42147e-06
4.28921e-06
5.19383e-06
5.6871e-06
5.04943e-06
4.09367e-06
2.96216e-06
1.89356e-06
1.22922e-06
9.39638e-07
8.47895e-07
8.67343e-07
9.5186e-07
1.15106e-06
1.5891e-06
2.14882e-06
3.3213e-06
5.61919e-05
7.25374e-06
4.36668e-06
3.98846e-06
4.59154e-06
5.327e-06
5.76172e-06
5.19508e-06
4.35001e-06
3.40643e-06
2.50643e-06
1.77826e-06
1.29754e-06
1.05113e-06
9.69633e-07
1.00625e-06
1.16555e-06
1.48583e-06
1.87807e-06
2.86707e-06
9.6719e-05
1.16252e-05
5.353e-06
4.75829e-06
5.08097e-06
5.51436e-06
5.89547e-06
5.35633e-06
4.60851e-06
3.864e-06
3.09652e-06
2.34125e-06
1.75286e-06
1.35508e-06
1.17052e-06
1.18409e-06
1.2862e-06
1.52698e-06
1.8498e-06
2.8244e-06
0.000187507
2.20618e-05
7.2203e-06
5.98515e-06
5.79007e-06
5.80158e-06
6.08879e-06
5.56606e-06
4.91436e-06
4.35089e-06
3.66067e-06
2.91386e-06
2.28395e-06
1.80289e-06
1.54698e-06
1.5231e-06
1.55703e-06
1.68285e-06
1.92729e-06
2.88929e-06
0.000328411
4.21667e-05
1.06179e-05
7.78293e-06
6.87379e-06
6.37244e-06
6.37183e-06
5.83039e-06
5.22459e-06
4.69117e-06
4.07055e-06
3.39158e-06
2.79777e-06
2.31332e-06
2.00181e-06
1.88887e-06
1.89235e-06
1.95306e-06
2.1561e-06
3.08932e-06
0.000660021
0.000112558
2.00898e-05
1.11881e-05
9.77535e-06
8.68103e-06
7.82129e-06
6.87906e-06
6.12323e-06
5.47898e-06
4.89605e-06
4.3417e-06
3.83381e-06
3.37847e-06
2.93346e-06
2.73846e-06
2.77351e-06
2.88567e-06
3.0999e-06
3.98713e-06
0.00168826
0.001597
0.00145319
0.00116101
0.00100391
0.000879041
0.000794292
0.000727221
0.00077862
0.000405546
9.16558e-05
2.15963e-05
8.39268e-06
8.5047e-06
9.96055e-06
1.44651e-05
2.68271e-05
6.04578e-05
0.000127081
0.00037765
0.00161647
0.00266528
0.00263504
0.00252885
0.00246656
0.00259769
0.00247744
0.00191498
0.000192483
3.78815e-05
1.09012e-05
3.70913e-06
3.67097e-06
3.95896e-06
4.56797e-06
5.56963e-06
7.28381e-06
1.07698e-05
1.75259e-05
4.52005e-05
0.00149225
0.00266734
0.00467683
0.00507388
0.00675346
0.00695343
0.00731287
0.00497966
7.61085e-06
2.05516e-06
2.34397e-06
2.74818e-06
3.33578e-06
4.04246e-06
4.83203e-06
5.69548e-06
6.69094e-06
8.18371e-06
1.00836e-05
1.34661e-05
0.00121402
0.00240266
0.00488254
0.00148991
0.00224804
3.14944e-09
0.021819
0.00041277
9.53233e-07
2.07165e-06
2.71855e-06
3.31652e-06
3.89969e-06
4.46905e-06
5.07125e-06
5.7876e-06
6.8106e-06
8.44029e-06
1.06071e-05
1.32139e-05
0.00103206
0.00249163
0.00572042
9.59306e-05
2.69609e-06
5.07398e-06
5.50268e-06
5.76735e-06
5.95284e-06
6.16388e-06
6.45215e-06
6.84327e-06
7.46464e-06
8.32263e-06
9.62085e-06
1.28989e-05
0.000878133
0.00265984
0.00704004
0.000316289
6.65821e-06
7.71769e-06
7.65805e-06
7.62485e-06
7.63405e-06
7.6721e-06
7.75939e-06
7.89047e-06
8.06038e-06
8.33104e-06
8.96439e-06
1.16663e-05
0.000785728
0.0024876
0.00744178
0.0241588
8.43912e-06
8.7541e-06
8.66782e-06
8.58725e-06
8.50661e-06
8.44319e-06
8.44368e-06
8.48076e-06
8.58214e-06
8.7383e-06
8.99132e-06
1.05208e-05
0.00071546
0.00188515
0.00499856
0.000303137
7.99008e-06
6.58489e-06
6.8212e-06
6.9492e-06
7.04379e-06
7.16246e-06
7.31975e-06
7.49774e-06
7.67848e-06
7.88608e-06
8.14255e-06
9.22946e-06
0.000784867
0.000267099
1.08819e-05
7.60993e-07
2.11335e-06
5.16835e-06
6.54579e-06
6.12965e-06
8.87701e-07
1.73281e-06
2.814e-06
3.7874e-06
4.57147e-06
5.20458e-06
5.71288e-06
6.09323e-06
6.4391e-06
6.82392e-06
7.1927e-06
8.21368e-06
0.000432501
5.11397e-05
2.02488e-06
1.68409e-06
4.07954e-06
6.16517e-06
6.91604e-06
5.27755e-06
1.59221e-06
6.52529e-07
8.92625e-07
1.52641e-06
2.40461e-06
3.29313e-06
4.00981e-06
4.62143e-06
5.22437e-06
5.89639e-06
6.40491e-06
7.37512e-06
0.000103986
1.33512e-05
2.24248e-06
2.18511e-06
4.42482e-06
6.11403e-06
6.86083e-06
5.50789e-06
2.48867e-06
8.57808e-07
6.39779e-07
7.5986e-07
1.15816e-06
1.75876e-06
2.4725e-06
3.26152e-06
4.05672e-06
4.91022e-06
5.53287e-06
6.57605e-06
2.51139e-05
3.69425e-06
2.41316e-06
2.66573e-06
4.63675e-06
6.0803e-06
6.80761e-06
5.64853e-06
3.27321e-06
1.39474e-06
7.42349e-07
7.24946e-07
7.69728e-07
9.83485e-07
1.44112e-06
2.15076e-06
3.00196e-06
3.88077e-06
4.57106e-06
5.78874e-06
8.04923e-06
3.16063e-06
2.77615e-06
3.14033e-06
4.78751e-06
6.09124e-06
6.76266e-06
5.73077e-06
3.87801e-06
2.12916e-06
1.07846e-06
7.62989e-07
7.71148e-07
8.20045e-07
1.01807e-06
1.51158e-06
2.21042e-06
2.99851e-06
3.71594e-06
5.0307e-06
7.77533e-06
3.38495e-06
3.31684e-06
3.59077e-06
4.9536e-06
6.13045e-06
6.75765e-06
5.821e-06
4.37517e-06
2.86137e-06
1.57614e-06
9.45285e-07
8.21032e-07
8.45759e-07
9.54237e-07
1.21898e-06
1.66528e-06
2.2934e-06
2.95846e-06
4.32723e-06
8.76322e-06
3.85237e-06
3.9346e-06
4.05045e-06
5.18194e-06
6.21197e-06
6.76728e-06
5.95047e-06
4.7991e-06
3.45786e-06
2.17575e-06
1.33201e-06
1.00431e-06
9.58651e-07
1.00424e-06
1.09348e-06
1.28005e-06
1.71394e-06
2.33973e-06
3.71821e-06
1.24912e-05
4.60771e-06
4.59868e-06
4.60285e-06
5.49277e-06
6.33437e-06
6.81365e-06
6.11429e-06
5.11982e-06
3.95598e-06
2.82059e-06
1.91764e-06
1.41861e-06
1.20244e-06
1.10082e-06
1.11875e-06
1.23666e-06
1.54365e-06
2.00493e-06
3.1924e-06
2.33942e-05
5.96378e-06
5.34595e-06
5.38322e-06
5.99201e-06
6.50065e-06
6.92259e-06
6.30194e-06
5.40023e-06
4.41797e-06
3.45282e-06
2.59722e-06
1.97198e-06
1.55405e-06
1.26563e-06
1.23921e-06
1.32168e-06
1.59315e-06
1.98603e-06
3.09137e-06
5.43721e-05
8.94299e-06
6.47238e-06
6.60904e-06
6.6743e-06
6.75159e-06
7.09398e-06
6.50603e-06
5.69405e-06
4.93684e-06
4.12636e-06
3.28652e-06
2.57866e-06
2.02091e-06
1.59566e-06
1.54226e-06
1.59558e-06
1.77189e-06
2.07132e-06
3.13646e-06
0.000116948
1.49862e-05
7.98233e-06
8.31744e-06
7.68381e-06
7.2724e-06
7.34261e-06
6.74144e-06
5.98356e-06
5.34635e-06
4.62168e-06
3.83422e-06
3.14099e-06
2.52965e-06
2.07155e-06
1.95344e-06
1.97292e-06
2.06776e-06
2.29092e-06
3.32362e-06
0.000357727
4.10205e-05
1.08948e-05
1.05136e-05
1.03104e-05
9.46203e-06
8.64691e-06
7.67692e-06
6.84574e-06
6.16517e-06
5.50021e-06
4.84679e-06
4.22671e-06
3.66179e-06
3.14547e-06
2.92189e-06
2.95276e-06
3.05657e-06
3.28436e-06
4.28225e-06
0.00167408
0.00159881
0.0014623
0.00116028
0.000997474
0.0008712
0.000787503
0.00072138
0.000753401
0.000385279
8.74499e-05
2.00254e-05
8.15727e-06
8.37184e-06
9.94552e-06
1.46009e-05
2.73714e-05
6.23497e-05
0.000131616
0.000386998
0.00159785
0.00264421
0.00263575
0.00257442
0.00243992
0.00255247
0.00244471
0.00190756
0.000164225
3.36554e-05
1.03236e-05
3.68655e-06
3.68228e-06
3.98718e-06
4.61693e-06
5.64541e-06
7.41282e-06
1.09929e-05
1.79158e-05
4.6204e-05
0.0014849
0.00265884
0.00468774
0.00506211
0.00695526
0.00691529
0.00720646
0.00495081
7.39654e-06
2.07029e-06
2.34952e-06
2.7609e-06
3.37836e-06
4.11206e-06
4.91349e-06
5.78645e-06
6.81348e-06
8.37101e-06
1.0322e-05
1.37101e-05
0.00121664
0.00240877
0.00493911
0.00158038
0.00615337
0.000144911
0.0170858
0.000217639
1.01565e-06
2.1243e-06
2.79449e-06
3.40975e-06
4.0101e-06
4.60545e-06
5.24397e-06
5.9879e-06
7.034e-06
8.70512e-06
1.09492e-05
1.35433e-05
0.00103905
0.00256754
0.00581063
1.50447e-06
2.75314e-06
5.19079e-06
5.63055e-06
5.90273e-06
6.09942e-06
6.32681e-06
6.63938e-06
7.05988e-06
7.71588e-06
8.61184e-06
9.96831e-06
1.33236e-05
0.000885082
0.00272394
0.00717798
0.00302006
7.10865e-06
7.928e-06
7.85873e-06
7.82719e-06
7.84264e-06
7.89668e-06
8.00775e-06
8.16272e-06
8.35374e-06
8.64504e-06
9.30845e-06
1.21067e-05
0.000790698
0.00251449
0.00750021
0.0272448
9.08557e-06
9.03528e-06
8.93084e-06
8.83639e-06
8.75584e-06
8.72579e-06
8.7349e-06
8.78781e-06
8.90789e-06
9.08459e-06
9.35394e-06
1.09383e-05
0.00071883
0.00190939
0.00503341
0.000737824
8.62506e-06
6.8413e-06
7.08364e-06
7.22434e-06
7.30807e-06
7.4148e-06
7.58305e-06
7.78103e-06
7.98366e-06
8.20041e-06
8.46548e-06
9.58383e-06
0.000786405
0.000231337
1.09903e-05
6.98808e-07
2.08432e-06
5.9326e-06
7.46373e-06
6.94585e-06
9.79706e-07
1.87002e-06
2.99794e-06
3.99276e-06
4.77314e-06
5.411e-06
5.93814e-06
6.34659e-06
6.7106e-06
7.09718e-06
7.47017e-06
8.52137e-06
0.00041293
4.59748e-05
1.98591e-06
1.76309e-06
4.36733e-06
6.61666e-06
7.39979e-06
5.61076e-06
1.6624e-06
6.9455e-07
9.51929e-07
1.61342e-06
2.5277e-06
3.44003e-06
4.174e-06
4.80531e-06
5.42157e-06
6.11808e-06
6.64693e-06
7.65126e-06
9.5589e-05
1.26807e-05
2.29686e-06
2.31184e-06
4.73187e-06
6.54053e-06
7.30682e-06
5.83207e-06
2.59396e-06
8.99834e-07
6.66736e-07
7.99035e-07
1.21964e-06
1.83517e-06
2.56149e-06
3.36742e-06
4.19988e-06
5.08611e-06
5.7336e-06
6.81607e-06
2.21293e-05
3.67325e-06
2.52488e-06
2.83631e-06
4.94573e-06
6.47896e-06
7.23393e-06
5.9432e-06
3.40269e-06
1.44977e-06
7.81289e-07
7.38185e-07
7.87822e-07
1.00923e-06
1.48649e-06
2.23001e-06
3.10437e-06
4.00616e-06
4.72653e-06
5.98835e-06
7.44536e-06
3.23734e-06
2.92095e-06
3.34915e-06
5.09993e-06
6.48309e-06
7.16718e-06
6.02182e-06
4.04614e-06
2.20914e-06
1.13116e-06
7.83274e-07
7.89829e-07
8.47344e-07
1.07123e-06
1.57529e-06
2.27422e-06
3.0779e-06
3.81895e-06
5.18896e-06
7.29427e-06
3.46989e-06
3.48604e-06
3.83018e-06
5.26985e-06
6.51539e-06
7.14667e-06
6.13123e-06
4.58742e-06
2.97031e-06
1.64489e-06
9.73244e-07
8.48579e-07
8.80503e-07
9.87097e-07
1.24565e-06
1.69345e-06
2.33985e-06
3.03961e-06
4.45674e-06
8.25842e-06
3.93837e-06
4.14014e-06
4.31952e-06
5.50177e-06
6.58952e-06
7.15623e-06
6.27785e-06
5.00208e-06
3.58548e-06
2.25576e-06
1.37573e-06
1.05272e-06
9.91459e-07
1.02568e-06
1.10933e-06
1.30175e-06
1.75948e-06
2.40405e-06
3.81185e-06
1.17098e-05
4.69881e-06
4.81886e-06
4.89712e-06
5.82687e-06
6.70661e-06
7.20082e-06
6.43593e-06
5.3161e-06
4.0998e-06
2.92758e-06
1.99279e-06
1.47329e-06
1.22629e-06
1.11756e-06
1.14021e-06
1.27523e-06
1.59558e-06
2.05022e-06
3.2662e-06
2.16938e-05
6.02869e-06
5.56629e-06
5.71793e-06
6.33907e-06
6.86751e-06
7.30424e-06
6.59715e-06
5.61602e-06
4.59853e-06
3.59703e-06
2.69246e-06
2.03037e-06
1.58697e-06
1.29209e-06
1.277e-06
1.36541e-06
1.63873e-06
2.04742e-06
3.20237e-06
5.00346e-05
8.8868e-06
6.73619e-06
7.01412e-06
7.04147e-06
7.11431e-06
7.46847e-06
6.7996e-06
5.95312e-06
5.1583e-06
4.28934e-06
3.4096e-06
2.66738e-06
2.08067e-06
1.64453e-06
1.58584e-06
1.63684e-06
1.82566e-06
2.14323e-06
3.26554e-06
0.00010817
1.4631e-05
8.26724e-06
8.74427e-06
8.09448e-06
7.64125e-06
7.71495e-06
7.05504e-06
6.27205e-06
5.57703e-06
4.81699e-06
3.99641e-06
3.2598e-06
2.62897e-06
2.13076e-06
2.00533e-06
2.02848e-06
2.13897e-06
2.3878e-06
3.4693e-06
0.000340623
3.90171e-05
1.10934e-05
1.08689e-05
1.07539e-05
9.87345e-06
9.03466e-06
8.01485e-06
7.14866e-06
6.41045e-06
5.73264e-06
5.05728e-06
4.40112e-06
3.79847e-06
3.23522e-06
3.00697e-06
3.04314e-06
3.16547e-06
3.40764e-06
4.43996e-06
0.00430288
0.00438248
0.00454785
0.00325312
0.00266223
0.00241904
0.00221872
0.0020236
0.00176457
0.000847022
0.000224051
7.20161e-05
3.65403e-05
3.83212e-05
4.60719e-05
6.6268e-05
0.000113676
0.000216005
0.000371202
0.000719297
0.0042993
0.0111712
0.0145496
0.0102636
0.00818236
0.00776774
0.00693399
0.00550528
0.000358593
5.71023e-05
1.62593e-05
4.9534e-06
4.90011e-06
5.43042e-06
6.70585e-06
9.22095e-06
1.45647e-05
2.65528e-05
4.91279e-05
0.000125905
0.00451419
0.0143286
0.0143301
0.00883806
0.00982023
0.0093488
0.00950446
0.00651764
1.39992e-05
2.34385e-06
2.61045e-06
2.90217e-06
3.44443e-06
4.20329e-06
5.06391e-06
6.05179e-06
7.37966e-06
9.78781e-06
1.37855e-05
2.39517e-05
0.00329814
0.0107589
0.00908723
0.00108249
0.00566721
5.83627e-10
0.0187994
0.000173244
1.01536e-06
1.99392e-06
2.58155e-06
3.14413e-06
3.70032e-06
4.24715e-06
4.89907e-06
5.71015e-06
6.83158e-06
8.56979e-06
1.0891e-05
1.468e-05
0.00269802
0.00928005
0.00879185
1.31636e-06
2.67906e-06
4.85958e-06
5.26303e-06
5.50754e-06
5.68611e-06
5.887e-06
6.17085e-06
6.57809e-06
7.23373e-06
8.14216e-06
9.59431e-06
1.32686e-05
0.00233472
0.00844006
0.0101411
0.0067927
6.90826e-06
7.40914e-06
7.35383e-06
7.32613e-06
7.3416e-06
7.39387e-06
7.49024e-06
7.6228e-06
7.80053e-06
8.11828e-06
8.85308e-06
1.18413e-05
0.00209563
0.00713688
0.0098207
0.0309569
8.84903e-06
8.47312e-06
8.37843e-06
8.29931e-06
8.232e-06
8.20525e-06
8.21761e-06
8.27052e-06
8.38833e-06
8.56561e-06
8.85267e-06
1.05846e-05
0.001894
0.00549459
0.00659925
0.000192979
8.44763e-06
6.49148e-06
6.70676e-06
6.83564e-06
6.92042e-06
7.02485e-06
7.17996e-06
7.35554e-06
7.54044e-06
7.77317e-06
8.0653e-06
9.28089e-06
0.00174736
0.000426057
1.35601e-05
8.4382e-07
2.20878e-06
5.79111e-06
7.33153e-06
6.86946e-06
1.00008e-06
1.85005e-06
2.93374e-06
3.85484e-06
4.60858e-06
5.21486e-06
5.65971e-06
6.01238e-06
6.35563e-06
6.75191e-06
7.15092e-06
8.23947e-06
0.000835
6.7026e-05
2.48226e-06
1.64034e-06
3.98698e-06
6.06752e-06
6.8903e-06
5.27277e-06
1.56616e-06
6.82397e-07
9.55304e-07
1.64067e-06
2.49871e-06
3.30981e-06
3.99637e-06
4.59274e-06
5.21489e-06
5.89333e-06
6.3626e-06
7.35023e-06
0.000211487
1.76169e-05
2.2979e-06
2.11998e-06
4.29494e-06
5.99494e-06
6.80048e-06
5.46152e-06
2.42645e-06
8.79997e-07