/*--------------------------------*- C++ -*----------------------------------*\
  =========                 |
  \\      /  F ield         | OpenFOAM: The Open Source CFD Toolbox
   \\    /   O peration     | Website:  https://openfoam.org
    \\  /    A nd           | Version:  9
     \\/     M anipulation  |
\*---------------------------------------------------------------------------*/
FoamFile
{
    format      ascii;
    class       volScalarField;
    location    "0.007";
    object      rhoE;
}
// * * * * * * * * * * * * * * * * * * * * * * * * * * * * * * * * * * * * * //

dimensions      [1 -1 -2 0 0 0 0];

internalField   nonuniform List<scalar> 
9720
(
1.04573e+07
9.2232e+06
8.77188e+06
6.92087e+06
6.43186e+06
6.22157e+06
6.12879e+06
5.59793e+06
4.88528e+06
4.02718e+06
3.33636e+06
2.97267e+06
2.83147e+06
2.96343e+06
3.15184e+06
3.45012e+06
3.76068e+06
4.16654e+06
4.55241e+06
5.17629e+06
9.17462e+06
8.70939e+06
6.14092e+06
4.66077e+06
5.35538e+06
5.92289e+06
5.96322e+06
5.29847e+06
4.02592e+06
2.72877e+06
2.03861e+06
1.91054e+06
2.02395e+06
2.26889e+06
2.62792e+06
3.0446e+06
3.48674e+06
3.96157e+06
4.4057e+06
5.02747e+06
8.78404e+06
6.20097e+06
4.06005e+06
3.59255e+06
5.02111e+06
5.91461e+06
5.98784e+06
5.15127e+06
3.18148e+06
1.75336e+06
1.42717e+06
1.61829e+06
1.90152e+06
2.30795e+06
2.81241e+06
3.37866e+06
4.03014e+06
4.66147e+06
5.02464e+06
5.53383e+06
6.89701e+06
4.64356e+06
3.54936e+06
3.06565e+06
4.17403e+06
5.79493e+06
6.17611e+06
5.57713e+06
3.00127e+06
1.21146e+06
1.45158e+06
1.74014e+06
2.04445e+06
2.37333e+06
2.71405e+06
3.12396e+06
3.71855e+06
4.51838e+06
5.31417e+06
5.99635e+06
6.2789e+06
5.16301e+06
4.84592e+06
4.10759e+06
1.06259e+06
2.06258e+06
2.24869e+06
2.38311e+06
2.50281e+06
2.62237e+06
2.77319e+06
2.9654e+06
3.21305e+06
3.60555e+06
4.32467e+06
5.5949e+06
6.03365e+06
5.71688e+06
5.75004e+06
5.64779e+06
2.61499e+06
2.69982e+06
2.66471e+06
2.64109e+06
2.64527e+06
2.65625e+06
2.685e+06
2.73139e+06
2.81192e+06
2.97178e+06
3.35572e+06
4.54257e+06
5.92917e+06
5.76001e+06
5.81194e+06
6.015e+06
2.82987e+06
2.72074e+06
2.69627e+06
2.6762e+06
2.67007e+06
2.66484e+06
2.67428e+06
2.69673e+06
2.73782e+06
2.80661e+06
2.95303e+06
3.66908e+06
5.41045e+06
5.11237e+06
4.96475e+06
5.39272e+06
2.4438e+06
1.96177e+06
2.08577e+06
2.16332e+06
2.20463e+06
2.25595e+06
2.30743e+06
2.35411e+06
2.41779e+06
2.49636e+06
2.58798e+06
3.05558e+06
4.70855e+06
3.84782e+06
3.00458e+06
2.72048e+06
1.08333e+06
2.40228e+06
2.62377e+06
2.24594e+06
328715
546223
866889
1.18139e+06
1.44192e+06
1.62388e+06
1.79092e+06
1.91167e+06
2.01861e+06
2.15609e+06
2.27462e+06
2.62734e+06
3.87375e+06
2.59287e+06
1.65255e+06
1.16233e+06
1.91246e+06
2.4878e+06
2.51119e+06
1.82787e+06
599168
219295
289516
492005
771734
1.02249e+06
1.22213e+06
1.43291e+06
1.61997e+06
1.79215e+06
1.95371e+06
2.25916e+06
3.22049e+06
1.9596e+06
1.38288e+06
1.39073e+06
2.08649e+06
2.4558e+06
2.49087e+06
1.94111e+06
889506
335363
212566
246920
375032
562291
774851
1.01337e+06
1.24039e+06
1.42876e+06
1.58861e+06
1.89161e+06
2.85897e+06
1.84347e+06
1.57443e+06
1.66605e+06
2.20985e+06
2.43435e+06
2.47746e+06
2.01944e+06
1.17207e+06
540213
274337
202410
224031
322392
488427
689452
903051
1.08751e+06
1.26423e+06
1.57636e+06
2.73521e+06
1.96127e+06
1.84927e+06
1.95246e+06
2.32095e+06
2.44043e+06
2.47587e+06
2.06328e+06
1.4137e+06
804338
414342
239444
241399
272959
345277
475875
649764
833884
1.01447e+06
1.32823e+06
2.87295e+06
2.20256e+06
2.23036e+06
2.25679e+06
2.43615e+06
2.45484e+06
2.48106e+06
2.11754e+06
1.58231e+06
1.04117e+06
603916
349482
278770
282612
305618
355682
470257
638130
804247
1.10422e+06
3.07452e+06
2.55806e+06
2.70142e+06
2.57425e+06
2.58385e+06
2.48952e+06
2.49881e+06
2.17216e+06
1.73241e+06
1.23177e+06
810966
520903
367862
316740
325628
351775
419213
537370
673047
937737
3.38435e+06
2.98026e+06
3.23994e+06
2.9492e+06
2.76944e+06
2.54427e+06
2.53184e+06
2.21856e+06
1.84658e+06
1.4331e+06
1.03972e+06
719422
506706
381941
355698
379838
430582
501998
587258
802630
3.70085e+06
3.42897e+06
3.87828e+06
3.48915e+06
3.01436e+06
2.63161e+06
2.58367e+06
2.28302e+06
1.95324e+06
1.60974e+06
1.25983e+06
931726
684736
507672
427163
435890
456310
496432
555957
725601
4.09919e+06
3.91217e+06
4.53782e+06
4.25041e+06
3.39559e+06
2.79199e+06
2.6652e+06
2.36642e+06
2.08525e+06
1.77251e+06
1.44412e+06
1.12049e+06
871813
675385
557261
510886
496158
521668
575238
726966
4.48464e+06
4.34598e+06
4.92352e+06
5.03218e+06
4.06713e+06
3.16218e+06
2.82214e+06
2.46536e+06
2.20245e+06
1.92596e+06
1.6062e+06
1.30292e+06
1.05705e+06
843765
702411
606135
558877
577858
605193
728182
5.0948e+06
4.95098e+06
5.41598e+06
5.74675e+06
5.28397e+06
4.30378e+06
3.53407e+06
2.93755e+06
2.55967e+06
2.23097e+06
1.91074e+06
1.62072e+06
1.38031e+06
1.14872e+06
973802
836010
750760
737569
739831
806092
1.02635e+07
8.9955e+06
8.42281e+06
6.63512e+06
6.26623e+06
6.15023e+06
6.08172e+06
5.54298e+06
4.81341e+06
3.94469e+06
3.2394e+06
2.87608e+06
2.72373e+06
2.84406e+06
3.0196e+06
3.31988e+06
3.64142e+06
4.04577e+06
4.43128e+06
5.05933e+06
8.95218e+06
8.54416e+06
5.63698e+06
4.42965e+06
5.35933e+06
5.94201e+06
5.9567e+06
5.27663e+06
3.96841e+06
2.66509e+06
1.96071e+06
1.81882e+06
1.92615e+06
2.15157e+06
2.4877e+06
2.89349e+06
3.33795e+06
3.8243e+06
4.27198e+06
4.90726e+06
8.49552e+06
5.70162e+06
3.82792e+06
3.46355e+06
5.13827e+06
5.9892e+06
6.0205e+06
5.15794e+06
3.1307e+06
1.69204e+06
1.35103e+06
1.5369e+06
1.80657e+06
2.18974e+06
2.66715e+06
3.19926e+06
3.82177e+06
4.47116e+06
4.85553e+06
5.39265e+06
6.62174e+06
4.38995e+06
3.40011e+06
2.89124e+06
4.4018e+06
5.86949e+06
6.20167e+06
5.58754e+06
3.02506e+06
1.18028e+06
1.40525e+06
1.67222e+06
1.94687e+06
2.25631e+06
2.57427e+06
2.95037e+06
3.49578e+06
4.27875e+06
5.05905e+06
5.80141e+06
6.11266e+06
5.10243e+06
4.8191e+06
4.00261e+06
1.07109e+06
2.05781e+06
2.22594e+06
2.33658e+06
2.43397e+06
2.53213e+06
2.65999e+06
2.82971e+06
3.05091e+06
3.39844e+06
4.0553e+06
5.31104e+06
5.94577e+06
5.69996e+06
5.77329e+06
5.66317e+06
2.60892e+06
2.70356e+06
2.65297e+06
2.60492e+06
2.58715e+06
2.5837e+06
2.5953e+06
2.62522e+06
2.68764e+06
2.8171e+06
3.14779e+06
4.24558e+06
5.87098e+06
5.74659e+06
5.84113e+06
6.02487e+06
2.82612e+06
2.72664e+06
2.68741e+06
2.64778e+06
2.61778e+06
2.5947e+06
2.59659e+06
2.6074e+06
2.63661e+06
2.68959e+06
2.80822e+06
3.43205e+06
5.35277e+06
5.10492e+06
4.99104e+06
5.4108e+06
2.43596e+06
1.96544e+06
2.06514e+06
2.12649e+06
2.15407e+06
2.19108e+06
2.2392e+06
2.27359e+06
2.31701e+06
2.37717e+06
2.45364e+06
2.86137e+06
4.63977e+06
3.81072e+06
2.98079e+06
2.78011e+06
1.098e+06
2.4067e+06
2.63476e+06
2.24902e+06
326122
532869
840698
1.13504e+06
1.39416e+06
1.57126e+06
1.71622e+06
1.82187e+06
1.91196e+06
2.04119e+06
2.15807e+06
2.46694e+06
3.79281e+06
2.54779e+06
1.61609e+06
1.13858e+06
1.9345e+06
2.53181e+06
2.55454e+06
1.85701e+06
587628
206319
272202
465239
728770
967327
1.14579e+06
1.33519e+06
1.52499e+06
1.69254e+06
1.83824e+06
2.1072e+06
3.1128e+06
1.87627e+06
1.30139e+06
1.35052e+06
2.093e+06
2.48253e+06
2.5168e+06
1.94824e+06
871701
309796
199038
230394
344296
506448
699844
926916
1.15618e+06
1.33782e+06
1.47881e+06
1.754e+06
2.75188e+06
1.74005e+06
1.48001e+06
1.6039e+06
2.19512e+06
2.43667e+06
2.48186e+06
2.00906e+06
1.13659e+06
509609
252256
180634
191782
275661
432101
623599
825377
992552
1.15284e+06
1.45231e+06
2.62738e+06
1.85077e+06
1.73229e+06
1.85951e+06
2.28328e+06
2.41889e+06
2.45759e+06
2.03979e+06
1.37642e+06
759071
378037
203697
202873
235579
307714
425283
577356
741964
917502
1.21957e+06
2.7568e+06
2.07766e+06
2.0925e+06
2.1424e+06
2.37371e+06
2.41689e+06
2.44163e+06
2.07997e+06
1.54029e+06
983462
545700
298786
242859
246663
263815
310531
411971
567841
726202
1.00631e+06
2.94326e+06
2.41482e+06
2.54828e+06
2.43335e+06
2.49195e+06
2.43099e+06
2.44597e+06
2.12954e+06
1.66972e+06
1.15832e+06
739172
463555
326267
272465
275788
296037
355327
466555
588931
840184
3.2444e+06
2.82734e+06
3.06583e+06
2.77575e+06
2.64921e+06
2.46447e+06
2.46186e+06
2.1622e+06
1.77056e+06
1.34581e+06
961012
654066
448942
327819
299112
321535
367633
428405
502152
713931
3.5612e+06
3.27349e+06
3.68756e+06
3.274e+06
2.86154e+06
2.52826e+06
2.49733e+06
2.20522e+06
1.86601e+06
1.52684e+06
1.18063e+06
854907
606882
440544
363017
371276
389041
421642
478386
645049
3.94703e+06
3.75078e+06
4.35693e+06
4.02796e+06
3.19309e+06
2.65243e+06
2.55852e+06
2.26791e+06
1.9919e+06
1.68368e+06
1.35621e+06
1.0287e+06
779945
601803
485432
438568
424912
445205
497568
642425
4.31863e+06
4.17735e+06
4.74469e+06
4.79477e+06
3.81275e+06
2.96715e+06
2.68403e+06
2.34983e+06
2.10372e+06
1.824e+06
1.50408e+06
1.19981e+06
964505
764898
619715
526387
485240
501404
531054
645227
4.91873e+06
4.77529e+06
5.24669e+06
5.55652e+06
5.02178e+06
4.02385e+06
3.30355e+06
2.75769e+06
2.41318e+06
2.09536e+06
1.78744e+06
1.51013e+06
1.28117e+06
1.05872e+06
884389
753312
673797
655793
657897
717413
1.03967e+07
9.20306e+06
8.50127e+06
6.59571e+06
6.20111e+06
6.21143e+06
6.1476e+06
5.59453e+06
4.85751e+06
3.96624e+06
3.23419e+06
2.86584e+06
2.69456e+06
2.80993e+06
2.98556e+06
3.28824e+06
3.61884e+06
4.02233e+06
4.41207e+06
5.04337e+06
9.08162e+06
8.78155e+06
5.37486e+06
4.35146e+06
5.41153e+06
6.05128e+06
6.03426e+06
5.31145e+06
3.97901e+06
2.66256e+06
1.94228e+06
1.79449e+06
1.8941e+06
2.11634e+06
2.45228e+06
2.86994e+06
3.32884e+06
3.80626e+06
4.27905e+06
4.9144e+06
8.48567e+06
5.37894e+06
3.66255e+06
3.41618e+06
5.22071e+06
6.07863e+06
6.08014e+06
5.1686e+06
3.09204e+06
1.6858e+06
1.32734e+06
1.52129e+06
1.80078e+06
2.19474e+06
2.68321e+06
3.21917e+06
3.84566e+06
4.551e+06
4.97533e+06
5.49116e+06
6.47611e+06
4.19631e+06
3.28427e+06
2.8188e+06
4.48687e+06
5.96935e+06
6.26272e+06
5.62508e+06
2.95227e+06
1.18282e+06
1.41184e+06
1.68735e+06
1.96727e+06
2.27649e+06
2.59686e+06
2.97753e+06
3.53004e+06
4.34831e+06
5.22457e+06
6.04844e+06
6.01218e+06
5.11175e+06
4.89139e+06
4.00766e+06
1.01629e+06
2.09021e+06
2.27163e+06
2.38503e+06
2.47847e+06
2.57599e+06
2.70076e+06
2.87399e+06
3.11036e+06
3.43092e+06
4.08568e+06
5.46075e+06
5.96683e+06
5.78018e+06
5.82804e+06
5.72276e+06
2.63102e+06
2.77945e+06
2.72828e+06
2.68259e+06
2.66028e+06
2.66044e+06
2.67502e+06
2.70592e+06
2.76739e+06
2.87813e+06
3.17976e+06
4.27722e+06
5.92282e+06
5.82517e+06
5.8985e+06
6.08631e+06
2.86428e+06
2.80575e+06
2.76552e+06
2.72901e+06
2.70154e+06
2.68247e+06
2.68989e+06
2.7086e+06
2.74337e+06
2.79636e+06
2.89873e+06
3.47147e+06
5.40164e+06
5.16033e+06
5.04141e+06
5.46244e+06
2.46576e+06
2.02204e+06
2.11613e+06
2.18182e+06
2.22133e+06
2.26043e+06
2.31204e+06
2.35319e+06
2.40098e+06
2.46534e+06
2.53761e+06
2.91012e+06
4.67125e+06
3.85167e+06
3.0279e+06
2.87971e+06
970641
2.48478e+06
2.71664e+06
2.31595e+06
312848
536261
864234
1.15492e+06
1.4184e+06
1.60257e+06
1.743e+06
1.86992e+06
1.97077e+06
2.09901e+06
2.23347e+06
2.52993e+06
3.79857e+06
2.56081e+06
1.63114e+06
1.10573e+06
1.9653e+06
2.64259e+06
2.65654e+06
1.90971e+06
538200
195657
267918
455100
703124
956128
1.15751e+06
1.35274e+06
1.5489e+06
1.727e+06
1.87993e+06
2.15713e+06
3.07509e+06
1.83379e+06
1.25388e+06
1.31607e+06
2.13935e+06
2.59348e+06
2.61958e+06
2.00219e+06
860320
287256
182264
210197
324166
491660
689622
909707
1.14426e+06
1.35389e+06
1.51658e+06
1.80069e+06
2.70742e+06
1.67811e+06
1.42559e+06
1.56981e+06
2.25181e+06
2.5508e+06
2.5878e+06
2.07191e+06
1.13595e+06
480133
225289
168346
178424
251543
399124
584268
802229
995794
1.16192e+06
1.47572e+06
2.57019e+06
1.78668e+06
1.68123e+06
1.83108e+06
2.33991e+06
2.52728e+06
2.56409e+06
2.11708e+06
1.38842e+06
722369
351104
189538
180356
205153
273421
394235
555960
719144
898209
1.22143e+06
2.69236e+06
2.01173e+06
2.05592e+06
2.11896e+06
2.42957e+06
2.52797e+06
2.55048e+06
2.16145e+06
1.56635e+06
968155
526673
275951
213695
213820
235216
285999
379730
526130
691783
994709
2.87786e+06
2.35086e+06
2.5326e+06
2.42196e+06
2.54078e+06
2.54098e+06
2.5575e+06
2.21762e+06
1.70164e+06
1.16684e+06
730219
434549
295421
245859
246647
258014
304352
409658
544721
814772
3.18534e+06
2.77565e+06
3.06586e+06
2.77193e+06
2.6992e+06
2.57261e+06
2.57904e+06
2.26001e+06
1.82358e+06
1.36326e+06
948454
624210
425142
306049
263363
277092
316659
384424
463250
678213
3.52068e+06
3.2431e+06
3.7006e+06
3.27096e+06
2.92351e+06
2.6323e+06
2.61597e+06
2.30684e+06
1.92775e+06
1.55351e+06
1.17794e+06
841693
591057
410446
317746
322586
346052
388017
438899
599473
3.91661e+06
3.73302e+06
4.44148e+06
4.05193e+06
3.22576e+06
2.73032e+06
2.67393e+06
2.36988e+06
2.05907e+06
1.72419e+06
1.38184e+06
1.03674e+06
762683
567400
437278
398559
396111
411851
454015
596070
4.30049e+06
4.19819e+06
4.8942e+06
4.95232e+06
3.84149e+06
3.00513e+06
2.77942e+06
2.44227e+06
2.18657e+06
1.87506e+06
1.54922e+06
1.21175e+06
952424
739109
581802
491803
448449
456329
487325
605590
4.90995e+06
4.80888e+06
5.39003e+06
5.83721e+06
5.18839e+06
4.05931e+06
3.34706e+06
2.80581e+06
2.47669e+06
2.14926e+06
1.83599e+06
1.53235e+06
1.28809e+06
1.05484e+06
864607
722091
629694
607437
617009
684592
1.06341e+07
9.50205e+06
8.45906e+06
6.47706e+06
6.1247e+06
6.24565e+06
6.18299e+06
5.62078e+06
4.85591e+06
3.95732e+06
3.20989e+06
2.84944e+06
2.68322e+06
2.79117e+06
2.97022e+06
3.27969e+06
3.62825e+06
4.03527e+06
4.42948e+06
5.0663e+06
9.31585e+06
8.79986e+06
5.09801e+06
4.27882e+06
5.42396e+06
6.10405e+06
6.0744e+06
5.34267e+06
3.96433e+06
2.64028e+06
1.90045e+06
1.75878e+06
1.85563e+06
2.07684e+06
2.42197e+06
2.85274e+06
3.34211e+06
3.82926e+06
4.31668e+06
4.9619e+06
8.35793e+06
5.03297e+06
3.58881e+06
3.43245e+06
5.22672e+06
6.12985e+06
6.13615e+06
5.19454e+06
3.07073e+06
1.6617e+06
1.28742e+06
1.47416e+06
1.75628e+06
2.16828e+06
2.68997e+06
3.25834e+06
3.89826e+06
4.65345e+06
5.14679e+06
5.63418e+06
6.27667e+06
4.06438e+06
3.28829e+06
2.83234e+06
4.37115e+06
6.0093e+06
6.32853e+06
5.64637e+06
2.82404e+06
1.15224e+06
1.38191e+06
1.66067e+06
1.95149e+06
2.25922e+06
2.58197e+06
2.96328e+06
3.51924e+06
4.34624e+06
5.33615e+06
6.28346e+06
5.87268e+06
5.14359e+06
5.00026e+06
4.18185e+06
1.37468e+06
2.12432e+06
2.31381e+06
2.43559e+06
2.52545e+06
2.61674e+06
2.72753e+06
2.88212e+06
3.11552e+06
3.39498e+06
4.01447e+06
5.50032e+06
5.9673e+06
5.83878e+06
5.88511e+06
5.77954e+06
2.73767e+06
2.8664e+06
2.81212e+06
2.76577e+06
2.73396e+06
2.72967e+06
2.73694e+06
2.75624e+06
2.80393e+06
2.88372e+06
3.13481e+06
4.18909e+06
5.93847e+06
5.84894e+06
5.92911e+06
6.10487e+06
2.98743e+06
2.88494e+06
2.84543e+06
2.81072e+06
2.78273e+06
2.7566e+06
2.75793e+06
2.76967e+06
2.79848e+06
2.84195e+06
2.92036e+06
3.41414e+06
5.4122e+06
5.17126e+06
5.04214e+06
5.47188e+06
2.55951e+06
2.0528e+06
2.14709e+06
2.2162e+06
2.26971e+06
2.30936e+06
2.35236e+06
2.3908e+06
2.4389e+06
2.50372e+06
2.56188e+06
2.86663e+06
4.6745e+06
3.84214e+06
2.99582e+06
2.79832e+06
1.11492e+06
2.63343e+06
2.86083e+06
2.41994e+06
301830
499203
840429
1.14467e+06
1.40763e+06
1.60154e+06
1.74469e+06
1.89094e+06
2.01133e+06
2.11849e+06
2.23997e+06
2.50564e+06
3.80446e+06
2.55904e+06
1.62107e+06
1.10996e+06
2.04954e+06
2.77605e+06
2.77494e+06
1.99109e+06
538144
181643
259045
429754
661840
911132
1.14906e+06
1.36616e+06
1.55623e+06
1.7239e+06
1.87433e+06
2.15689e+06
3.06403e+06
1.82074e+06
1.23597e+06
1.32849e+06
2.23422e+06
2.72207e+06
2.73849e+06
2.07921e+06
886659
277862
170715
191136
294095
466765
682771
894831
1.11498e+06
1.32848e+06
1.52266e+06
1.82427e+06
2.69751e+06
1.66044e+06
1.40884e+06
1.59137e+06
2.35342e+06
2.67412e+06
2.70776e+06
2.1454e+06
1.17892e+06
466949
204693
156556
171880
243608
377930
547623
750344
977905
1.17816e+06
1.49653e+06
2.54145e+06
1.76032e+06
1.67357e+06
1.86514e+06
2.43961e+06
2.64229e+06
2.68083e+06
2.20318e+06
1.42253e+06
708128
323667
183595
175554
187196
244292
353830
520791
714288
898062
1.21649e+06
2.64641e+06
1.97205e+06
2.05881e+06
2.15284e+06
2.52673e+06
2.6416e+06
2.66355e+06
2.24815e+06
1.60109e+06
958374
510062
270283
196677
187228
206890
261791
366672
515490
668096
965171
2.82737e+06
2.30651e+06
2.55125e+06
2.45964e+06
2.631e+06
2.65203e+06
2.66829e+06
2.30093e+06
1.73768e+06
1.18722e+06
731678
415116
266686
215993
220919
238595
282039
376983
503855
777546
3.13955e+06
2.7296e+06
3.0958e+06
2.81193e+06
2.77757e+06
2.6763e+06
2.68673e+06
2.34587e+06
1.87846e+06
1.39261e+06
941142
593044
389933
282997
244552
257633
284514
335388
414886
642560
3.50178e+06
3.22743e+06
3.71787e+06
3.30766e+06
3.00261e+06
2.72953e+06
2.72245e+06
2.39721e+06
1.9975e+06
1.57133e+06
1.15461e+06
798590
562662
397310
298836
288346
302341
342585
399397
566347
3.91145e+06
3.73354e+06
4.49331e+06
4.06472e+06
3.26988e+06
2.80726e+06
2.77447e+06
2.46196e+06
2.10616e+06
1.73281e+06
1.3631e+06
1.0226e+06
758096
549005
402260
349529
350717
375338
420222
564057
4.30374e+06
4.22849e+06
5.04502e+06
5.06184e+06
3.84079e+06
3.04085e+06
2.86005e+06
2.52089e+06
2.22227e+06
1.87921e+06
1.55343e+06
1.21722e+06
938277
699398
533509
442107
410169
426716
454426
573125
4.93014e+06
4.87464e+06
5.56765e+06
6.10407e+06
5.28964e+06
4.05555e+06
3.35739e+06
2.8231e+06
2.48403e+06
2.15698e+06
1.84834e+06
1.5301e+06
1.26085e+06
1.00968e+06
820049
685320
599090
579067
585836
655468
1.08278e+07
9.70913e+06
8.341e+06
6.34529e+06
6.07663e+06
6.27556e+06
6.21565e+06
5.63803e+06
4.84445e+06
3.9374e+06
3.18015e+06
2.82752e+06
2.67815e+06
2.7871e+06
2.97798e+06
3.29286e+06
3.66072e+06
4.07732e+06
4.47663e+06
5.10949e+06
9.5201e+06
8.74774e+06
4.87936e+06
4.20982e+06
5.47844e+06
6.15808e+06
6.11225e+06
5.35858e+06
3.93905e+06
2.61197e+06
1.86194e+06
1.72887e+06
1.82551e+06
2.04935e+06
2.40183e+06
2.83844e+06
3.34993e+06
3.85924e+06
4.3614e+06
5.01434e+06
8.25306e+06
4.81341e+06
3.5427e+06
3.42232e+06
5.32864e+06
6.18037e+06
6.17137e+06
5.21144e+06
3.0393e+06
1.63669e+06
1.25474e+06
1.43151e+06
1.71015e+06
2.12775e+06
2.658e+06
3.23985e+06
3.88948e+06
4.67937e+06
5.22969e+06
5.73053e+06
6.15418e+06
3.9955e+06
3.24744e+06
2.79757e+06
4.44973e+06
6.07691e+06
6.35739e+06
5.68729e+06
2.86339e+06
1.12275e+06
1.35065e+06
1.62607e+06
1.9194e+06
2.22293e+06
2.54055e+06
2.90509e+06
3.44271e+06
4.26383e+06
5.31029e+06
6.36411e+06
5.80741e+06
5.11752e+06
4.95669e+06
4.1398e+06
1.09307e+06
2.09928e+06
2.29676e+06
2.42753e+06
2.51974e+06
2.6101e+06
2.71561e+06
2.86024e+06
3.07848e+06
3.33219e+06
3.90411e+06
5.41702e+06
5.95674e+06
5.84007e+06
5.89447e+06
5.78707e+06
2.7611e+06
2.85941e+06
2.80814e+06
2.7621e+06
2.7327e+06
2.72884e+06
2.73411e+06
2.74932e+06
2.78853e+06
2.85055e+06
3.06505e+06
4.05482e+06
5.94085e+06
5.85874e+06
5.94654e+06
6.12466e+06
2.99695e+06
2.88151e+06
2.84843e+06
2.81706e+06
2.78877e+06
2.76109e+06
2.75763e+06
2.76759e+06
2.79257e+06
2.82953e+06
2.89407e+06
3.32693e+06
5.41119e+06
5.16762e+06
5.03164e+06
5.47425e+06
2.56116e+06
2.03798e+06
2.12963e+06
2.19531e+06
2.2561e+06
2.30611e+06
2.35081e+06
2.38402e+06
2.42369e+06
2.48568e+06
2.53594e+06
2.79794e+06
4.66652e+06
3.81441e+06
2.94484e+06
2.76618e+06
1.09834e+06
2.71591e+06
2.94449e+06
2.47892e+06
291463
471438
808064
1.12253e+06
1.3829e+06
1.57568e+06
1.72002e+06
1.86729e+06
1.99773e+06
2.1022e+06
2.21255e+06
2.44945e+06
3.7964e+06
2.53169e+06
1.59072e+06
1.10746e+06
2.09503e+06
2.84186e+06
2.83612e+06
2.02588e+06
536960
170544
253416
408101
629589
883004
1.12574e+06
1.34736e+06
1.54009e+06
1.70164e+06
1.84534e+06
2.11836e+06
3.06218e+06
1.809e+06
1.22846e+06
1.33245e+06
2.28842e+06
2.78869e+06
2.80307e+06
2.11848e+06
892249
275417
166341
181357
284573
459375
678735
884998
1.08936e+06
1.2995e+06
1.50134e+06
1.80246e+06
2.70836e+06
1.66229e+06
1.40404e+06
1.60544e+06
2.41282e+06
2.73948e+06
2.77241e+06
2.18624e+06
1.20348e+06
460828
195333
154469
175537
243336
363570
519476
720517
958487
1.17648e+06
1.48821e+06
2.54252e+06
1.75814e+06
1.68041e+06
1.89318e+06
2.50018e+06
2.70704e+06
2.74942e+06
2.24614e+06
1.44583e+06
702076
317479
186328
179505
181144
226022
333859
506215
717948
898511
1.1996e+06
2.63805e+06
1.96383e+06
2.0776e+06
2.18784e+06
2.58667e+06
2.70418e+06
2.72987e+06
2.2894e+06
1.61972e+06
956246
508271
271460
189028
178005
202412
265145
376357
522084
654424
937330
2.81555e+06
2.30016e+06
2.58051e+06
2.49917e+06
2.69041e+06
2.7125e+06
2.73013e+06
2.3378e+06
1.75531e+06
1.19248e+06
737308
405748
248880
212339
220519
240656
281653
366183
477537
750217
3.12308e+06
2.72149e+06
3.13451e+06
2.85403e+06
2.83528e+06
2.7327e+06
2.74273e+06
2.38398e+06
1.90193e+06
1.40156e+06
942096
571790
370212
285520
245730
255717
270925
309232
388990
625278
3.4879e+06
3.22192e+06
3.74732e+06
3.35393e+06
3.05559e+06
2.78085e+06
2.77308e+06
2.43805e+06
2.03039e+06
1.57822e+06
1.14143e+06
772461
544395
401361
295110
274113
281135
319462
383755
552795
3.90427e+06
3.73769e+06
4.51767e+06
4.0966e+06
3.30825e+06
2.84972e+06
2.82147e+06
2.50786e+06
2.12914e+06
1.72908e+06
1.34362e+06
1.00162e+06
752124
549341
388854
320026
326926
358686
408472
546437
4.30734e+06
4.23579e+06
5.10085e+06
5.10168e+06
3.83843e+06
3.0595e+06
2.8973e+06
2.5613e+06
2.23558e+06
1.8758e+06
1.54107e+06
1.21276e+06
932195
682660
504460
411139
393604
415078
439589
552532
4.94568e+06
4.90933e+06
5.64334e+06
6.20749e+06
5.28368e+06
4.01726e+06
3.34289e+06
2.82266e+06
2.47537e+06
2.15412e+06
1.84324e+06
1.52611e+06
1.242e+06
979209
790177
664475
585570
564454
566352
638549
1.08338e+07
9.70386e+06
8.2892e+06
6.31718e+06
6.08262e+06
6.29452e+06
6.22338e+06
5.63643e+06
4.83899e+06
3.93201e+06
3.17152e+06
2.81513e+06
2.67826e+06
2.78981e+06
2.98538e+06
3.30649e+06
3.67988e+06
4.09687e+06
4.49684e+06
5.12742e+06
9.54901e+06
8.73801e+06
4.84218e+06
4.19381e+06
5.51833e+06
6.18711e+06
6.12588e+06
5.35809e+06
3.93398e+06
2.60932e+06
1.85957e+06
1.72206e+06
1.82369e+06
2.04933e+06
2.40607e+06
2.84743e+06
3.36539e+06
3.87469e+06
4.38095e+06
5.02995e+06
8.28645e+06
4.79776e+06
3.52317e+06
3.41004e+06
5.39387e+06
6.21384e+06
6.18637e+06
5.21153e+06
3.03046e+06
1.6353e+06
1.25695e+06
1.43239e+06
1.70767e+06
2.12288e+06
2.65446e+06
3.23919e+06
3.89623e+06
4.70132e+06
5.25434e+06
5.74503e+06
6.15256e+06
3.98108e+06
3.22262e+06
2.76478e+06
4.57962e+06
6.10932e+06
6.37188e+06
5.69742e+06
2.83547e+06
1.12122e+06
1.34818e+06
1.62121e+06
1.91258e+06
2.21586e+06
2.53439e+06
2.90304e+06
3.4442e+06
4.2708e+06
5.34389e+06
6.39896e+06
5.79066e+06
5.09058e+06
4.92357e+06
3.99932e+06
1.05186e+06
2.08108e+06
2.2768e+06
2.40319e+06
2.49495e+06
2.5876e+06
2.69775e+06
2.84864e+06
3.07164e+06
3.32651e+06
3.90465e+06
5.43693e+06
5.94847e+06
5.82966e+06
5.88848e+06
5.79129e+06
2.73082e+06
2.83872e+06
2.7872e+06
2.7359e+06
2.70924e+06
2.70757e+06
2.71684e+06
2.73656e+06
2.77979e+06
2.84538e+06
3.06195e+06
4.05773e+06
5.9322e+06
5.84769e+06
5.93929e+06
6.11964e+06
2.98526e+06
2.86206e+06
2.82799e+06
2.79485e+06
2.76673e+06
2.74088e+06
2.74036e+06
2.75304e+06
2.7816e+06
2.82237e+06
2.88909e+06
3.32372e+06
5.40737e+06
5.16707e+06
5.03479e+06
5.46922e+06
2.53794e+06
2.02883e+06
2.12018e+06
2.18924e+06
2.2451e+06
2.28871e+06
2.3351e+06
2.3718e+06
2.41347e+06
2.4747e+06
2.52461e+06
2.78568e+06
4.66341e+06
3.81592e+06
2.96015e+06
2.84376e+06
968385
2.7579e+06
2.98493e+06
2.51033e+06
286395
487485
822679
1.1347e+06
1.38704e+06
1.57318e+06
1.71424e+06
1.86252e+06
1.99191e+06
2.09232e+06
2.20049e+06
2.43547e+06
3.79262e+06
2.52885e+06
1.59222e+06
1.10165e+06
2.10827e+06
2.87213e+06
2.86255e+06
2.03721e+06
524588
169695
254065
411123
635499
885615
1.12406e+06
1.34136e+06
1.53097e+06
1.69124e+06
1.83331e+06
2.10324e+06
3.06601e+06
1.81235e+06
1.23157e+06
1.32909e+06
2.30615e+06
2.81822e+06
2.8282e+06
2.12973e+06
880815
269893
163947
180835
284214
457537
671893
875267
1.0824e+06
1.29129e+06
1.49038e+06
1.78731e+06
2.71402e+06
1.66776e+06
1.40834e+06
1.60759e+06
2.4325e+06
2.76771e+06
2.79799e+06
2.18911e+06
1.18601e+06
451223
193079
151648
171884
237535
358596
517912
717007
951563
1.16402e+06
1.47212e+06
2.54674e+06
1.76262e+06
1.68889e+06
1.90112e+06
2.52135e+06
2.73356e+06
2.77383e+06
2.24884e+06
1.43331e+06
690407
313712
182231
175297
178785
229380
335422
502213
706963
882562
1.18463e+06
2.64312e+06
1.97031e+06
2.08888e+06
2.20136e+06
2.60829e+06
2.73033e+06
2.7527e+06
2.30015e+06
1.62007e+06
947399
503398
264878
186808
177721
200132
259536
366539
509513
643481
926071
2.8214e+06
2.30756e+06
2.59564e+06
2.51661e+06
2.71312e+06
2.73787e+06
2.7536e+06
2.35639e+06
1.75317e+06
1.18402e+06
728050
400401
251563
210570
214795
233788
274440
357383
471439
739200
3.1283e+06
2.72984e+06
3.1523e+06
2.87016e+06
2.85965e+06
2.75713e+06
2.76697e+06
2.40268e+06
1.89411e+06
1.38929e+06
934433
570112
370745
280507
238481
249443
265707
304475
380640
611706
3.49022e+06
3.2292e+06
3.76899e+06
3.37463e+06
3.07857e+06
2.80358e+06
2.79583e+06
2.44505e+06
2.02289e+06
1.5745e+06
1.1413e+06
771486
543351
395017
290271
269252
276541
312946
376707
543830
3.90143e+06
3.74005e+06
4.53431e+06
4.12994e+06
3.33088e+06
2.87047e+06
2.84232e+06
2.51071e+06
2.13351e+06
1.73612e+06
1.34557e+06
1.00358e+06
749160
543268
385665
315930
320894
351668
401084
542592
4.30145e+06
4.23275e+06
5.1003e+06
5.11555e+06
3.85923e+06
3.0784e+06
2.9171e+06
2.56962e+06
2.24942e+06
1.88333e+06
1.54564e+06
1.21437e+06
929478
684069
506411
406413
387035
408296
434267
550127
4.93622e+06
4.89972e+06
5.62803e+06
6.18754e+06
5.27882e+06
4.01912e+06
3.35454e+06
2.83519e+06
2.49009e+06
2.15572e+06
1.84756e+06
1.53146e+06
1.24665e+06
983913
791582
660717
581461
561348
564422
636708
1.06519e+07
9.49534e+06
8.36802e+06
6.41788e+06
6.12442e+06
6.28366e+06
6.20192e+06
5.61647e+06
4.83003e+06
3.92896e+06
3.17743e+06
2.82939e+06
2.68582e+06
2.7994e+06
2.98535e+06
3.30576e+06
3.66454e+06
4.07881e+06
4.47306e+06
5.09998e+06
9.37059e+06
8.78933e+06
5.02584e+06
4.23727e+06
5.51984e+06
6.17177e+06
6.10408e+06
5.34165e+06
3.93172e+06
2.61533e+06
1.87141e+06
1.74471e+06
1.84925e+06
2.07797e+06
2.42897e+06
2.86801e+06
3.36676e+06
3.86131e+06
4.35352e+06
4.99127e+06
8.41385e+06
5.01438e+06
3.54946e+06
3.42618e+06
5.38836e+06
6.20032e+06
6.16143e+06
5.19895e+06
3.03408e+06
1.6436e+06
1.27194e+06
1.45786e+06
1.74068e+06
2.15838e+06
2.68707e+06
3.26289e+06
3.91751e+06
4.69192e+06
5.18813e+06
5.66917e+06
6.28279e+06
4.03299e+06
3.2268e+06
2.8032e+06
4.62596e+06
6.12872e+06
6.38827e+06
5.69671e+06
2.83205e+06
1.13478e+06
1.36592e+06
1.64523e+06
1.93933e+06
2.25091e+06
2.57794e+06
2.96634e+06
3.53102e+06
4.37168e+06
5.39113e+06
6.33354e+06
5.84671e+06
5.07486e+06
4.89754e+06
4.0062e+06
1.06144e+06
2.08745e+06
2.2806e+06
2.40577e+06
2.49919e+06
2.59346e+06
2.70937e+06
2.86752e+06
3.10374e+06
3.38006e+06
4.01289e+06
5.53702e+06
5.93889e+06
5.8081e+06
5.88043e+06
5.80216e+06
2.71702e+06
2.83127e+06
2.77872e+06
2.73186e+06
2.70263e+06
2.70007e+06
2.71012e+06
2.73167e+06
2.78038e+06
2.86098e+06
3.11259e+06
4.18634e+06
5.9145e+06
5.83087e+06
5.93019e+06
6.11843e+06
2.95903e+06
2.84812e+06
2.81164e+06
2.7799e+06
2.75478e+06
2.73383e+06
2.73642e+06
2.74863e+06
2.7781e+06
2.82191e+06
2.89788e+06
3.39186e+06
5.39083e+06
5.15433e+06
5.02595e+06
5.47695e+06
2.52151e+06
2.03157e+06
2.12649e+06
2.197e+06
2.25038e+06
2.28949e+06
2.33461e+06
2.37691e+06
2.42446e+06
2.48676e+06
2.53948e+06
2.8328e+06
4.64741e+06
3.80434e+06
2.94632e+06
2.74398e+06
1.07139e+06
2.74527e+06
2.98153e+06
2.5148e+06
295037
515064
854966
1.15107e+06
1.40702e+06
1.59894e+06
1.74055e+06
1.88202e+06
1.99646e+06
2.09961e+06
2.21598e+06
2.4735e+06
3.77722e+06
2.52039e+06
1.59557e+06
1.12105e+06
2.08768e+06
2.82073e+06
2.82986e+06
2.01714e+06
515621
174888
255340
432813
668757
919542
1.15159e+06
1.35588e+06
1.54087e+06
1.70849e+06
1.85657e+06
2.1311e+06
3.06462e+06
1.81756e+06
1.2414e+06
1.34736e+06
2.28035e+06
2.767e+06
2.79209e+06
2.11159e+06
863915
265909
168467
191270
298270
470974
678202
885620
1.1065e+06
1.32012e+06
1.51289e+06
1.80376e+06
2.70892e+06
1.67188e+06
1.42053e+06
1.62142e+06
2.4024e+06
2.7197e+06
2.75888e+06
2.18198e+06
1.15613e+06
452804
201418
155433
169740
237007
370474
543546
746954
974395
1.16633e+06
1.47031e+06
2.55171e+06
1.76907e+06
1.69443e+06
1.90734e+06
2.48857e+06
2.68696e+06
2.73337e+06
2.23513e+06
1.4129e+06
693934
318617
177832
167731
183176
245432
355799
520512
705528
877970
1.18987e+06
2.6586e+06
1.98677e+06
2.09035e+06
2.2054e+06
2.57437e+06
2.68486e+06
2.7111e+06
2.27368e+06
1.60691e+06
950077
499278
257782
190978
186307
205824
260040
360421
500564
650734
945511
2.84262e+06
2.32738e+06
2.59587e+06
2.51647e+06
2.67969e+06
2.69311e+06
2.71251e+06
2.32344e+06
1.74796e+06
1.1775e+06
714041
401998
265218
214944
218876
233635
272442
363674
491136
758844
3.15092e+06
2.75334e+06
3.15046e+06
2.87363e+06
2.82697e+06
2.71427e+06
2.72477e+06
2.36931e+06
1.88668e+06
1.37836e+06
926094
583760
386998
279790
238480
248169
275177
327825
404342
623194
3.50551e+06
3.25036e+06
3.77833e+06
3.38197e+06
3.05032e+06
2.76215e+06
2.75399e+06
2.41708e+06
1.99958e+06
1.56364e+06
1.14852e+06
794285
560111
389167
288152
279354
295671
336510
391131
549968
3.90853e+06
3.7485e+06
4.5513e+06
4.14791e+06
3.31252e+06
2.83452e+06
2.80043e+06
2.48069e+06
2.11042e+06
1.73381e+06
1.36326e+06
1.02214e+06
748614
537642
393493
343979
345126
368807
410380
553290
4.29992e+06
4.2364e+06
5.08818e+06
5.13567e+06
3.87823e+06
3.0629e+06
2.88023e+06
2.5372e+06
2.23262e+06
1.88724e+06
1.55898e+06
1.21636e+06
931711
697481
532786
437917
403650
418527
444942
566724
4.91835e+06
4.8687e+06
5.57682e+06
6.13528e+06
5.30954e+06
4.06346e+06
3.36465e+06
2.83136e+06
2.49583e+06
2.16945e+06
1.85977e+06
1.53794e+06
1.26557e+06
1.01671e+06
823244
681637
591909
573631
582871
653716
1.03895e+07
9.17822e+06
8.43436e+06
6.57516e+06
6.20571e+06
6.2487e+06
6.1536e+06
5.58834e+06
4.83097e+06
3.93892e+06
3.20528e+06
2.84653e+06
2.69596e+06
2.81587e+06
2.99753e+06
3.30877e+06
3.63882e+06
4.04392e+06
4.43247e+06
5.06264e+06
9.09245e+06
8.76044e+06
5.32667e+06
4.35347e+06
5.47565e+06
6.10314e+06
6.04309e+06
5.30587e+06
3.94194e+06
2.63055e+06
1.90578e+06
1.77098e+06
1.87814e+06
2.1087e+06
2.45327e+06
2.8772e+06
3.3354e+06
3.81535e+06
4.28647e+06
4.92263e+06
8.4988e+06
5.34994e+06
3.65202e+06
3.43462e+06
5.31204e+06
6.11645e+06
6.08087e+06
5.16588e+06
3.05538e+06
1.65804e+06
1.29744e+06
1.4888e+06
1.76664e+06
2.17252e+06
2.67673e+06
3.22669e+06
3.86825e+06
4.57e+06
4.98573e+06