/*--------------------------------*- C++ -*----------------------------------*\
  =========                 |
  \\      /  F ield         | OpenFOAM: The Open Source CFD Toolbox
   \\    /   O peration     | Website:  https://openfoam.org
    \\  /    A nd           | Version:  9
     \\/     M anipulation  |
\*---------------------------------------------------------------------------*/
FoamFile
{
    format      ascii;
    class       volVectorField;
    location    "0.007";
    object      rhoU;
}
// * * * * * * * * * * * * * * * * * * * * * * * * * * * * * * * * * * * * * //

dimensions      [1 -2 -1 0 0 0 0];

internalField   nonuniform List<vector> 
9720
(
(-3199.61 -3209.72 63.4619)
(-2299.66 -3164.76 80.7383)
(-1835.03 -3327.14 34.5594)
(-1646.86 -3180.27 -56.7506)
(-1052.77 -3494.63 -61.8996)
(-309.386 -3492.09 -53.6457)
(362.029 -3444.68 -64.3033)
(1071.4 -3118.59 -50.6271)
(1582.88 -2564.91 -55.8924)
(1727.38 -1884.2 -27.5604)
(1688.9 -1346.04 -37.4594)
(1649.71 -1018.78 -17.8055)
(1649.41 -827.298 2.60013)
(1773.4 -744.431 -4.10001)
(1905.29 -690.145 -22.5573)
(2090.45 -665.414 -25.804)
(2276.39 -635.376 -11.2024)
(2512.2 -640.119 -6.63262)
(2735.48 -640.26 -10.5578)
(3100.17 -637.066 -20.4274)
(-3136.53 -2289.12 92.2273)
(-2450.23 -2451.08 87.5305)
(-2001.84 -2179.94 11.5291)
(-1759.78 -2140.37 -49.1039)
(-1089.44 -3006.98 -50.5394)
(-356.176 -3354.08 -46.4737)
(351.727 -3363.55 -55.2826)
(1132.11 -2955.37 -38.9449)
(1579.42 -2028.46 -39.9974)
(1433.02 -1119.89 -10.2151)
(1224.48 -654.053 -16.0083)
(1200.59 -490.447 -5.96194)
(1293.01 -431.231 9.14539)
(1451.18 -414.046 4.49205)
(1673.74 -407.318 -14.0557)
(1920.51 -415.929 -25.0495)
(2175.97 -427.151 -12.8702)
(2445.14 -464.164 -1.07155)
(2692.26 -508.679 -2.19673)
(3043.21 -539.05 -10.6626)
(-3321.52 -1808.85 65.5613)
(-2180.99 -1961.95 37.6333)
(-1782.63 -1773.87 -22.2773)
(-1456.2 -1781.65 -58.8427)
(-1139.96 -2776.94 -32.0812)
(-374.595 -3324.24 -30.2308)
(408.131 -3351.37 -37.9528)
(1202.04 -2828.42 -26.9468)
(1439.62 -1484.33 -17.7095)
(1042.54 -587.404 -11.9989)
(912.992 -350.059 -4.13155)
(1049.51 -315.115 -13.2081)
(1228.54 -300.403 -17.7219)
(1470.36 -331.084 -21.2748)
(1774.73 -348.294 -25.1073)
(2115.1 -368.129 -33.5921)
(2501.66 -389.581 -45.003)
(2872.3 -370.775 -39.2316)
(3073.82 -384.403 -22.6974)
(3350.28 -432.089 -23.0761)
(-3170.93 -1589.37 -20.3918)
(-2133.31 -1743.02 -9.43578)
(-1769.06 -1432.64 -5.49833)
(-1450.08 -1408.81 -48.5186)
(-1332.05 -2231.32 -49.1735)
(-670.755 -3210.72 -27.3085)
(179.846 -3424.04 -52.1749)
(1012.89 -3048.8 -47.8032)
(1344.56 -1442.93 -43.7258)
(777.006 -295.529 -14.94)
(915.903 -309.133 -10.9111)
(1079.62 -345.62 -22.26)
(1261.51 -375.396 -31.9902)
(1462.49 -396.573 -34.1309)
(1674.21 -403.675 -31.9645)
(1929.53 -396.062 -31.2913)
(2299.21 -356.84 -48.7722)
(2789.4 -293.834 -62.0207)
(3260.21 -252.875 -31.333)
(3637.71 -213.479 -55.2977)
(-3413.01 -1013.66 -59.7501)
(-2913.78 -1051.9 -42.5179)
(-2692.03 -1113.57 -22.4032)
(-2213.73 -1276.86 -32.7354)
(670.758 -240.786 -20.6277)
(1276.16 -267.879 -19.9795)
(1383.57 -283.866 -25.2597)
(1462.55 -286.772 -26.0907)
(1534.28 -282.376 -29.0278)
(1607.71 -275.609 -29.762)
(1700.38 -269.238 -33.3919)
(1820.16 -260.541 -41.4407)
(1977.51 -249.175 -38.2025)
(2224.93 -217.803 -48.2005)
(2668.5 -94.3262 -57.6417)
(3420.96 42.805 -69.6138)
(-3400.22 -297.909 -57.1761)
(-3255.79 -345.308 -49.7457)
(-3248.05 -365.687 -35.8521)
(-3144.5 -653.104 -27.0305)
(1636.13 -166.484 -31.5909)
(1685.18 -91.4797 -24.5425)
(1663.57 -88.8478 -26.6051)
(1650.44 -86.0547 -28.312)
(1653.39 -84.6743 -31.0161)
(1661.05 -83.2803 -33.3634)
(1679 -79.5728 -33.2897)
(1707.25 -73.1803 -37.0495)
(1755.19 -62.83 -37.3907)
(1853.61 -49.6281 -38.9356)
(2081.46 -6.94579 -45.4425)
(2788.67 140.509 -56.0815)
(-3350.25 354.507 -79.5482)
(-3269.41 341.883 -70.1613)
(-3270.19 397.376 -52.7625)
(-3350.5 174.839 -68.9404)
(1769.17 22.5443 -33.1067)
(1691.04 88.9049 -24.2818)
(1675.81 84.2305 -28.1725)
(1664.01 79.5161 -28.1202)
(1660.16 76.1449 -28.1545)
(1657.2 75.7011 -30.4318)
(1661.82 75.8548 -33.0916)
(1673.83 77.9156 -35.3125)
(1696.91 83.8899 -35.7218)
(1738.76 90.9864 -35.6483)
(1824.48 111.083 -38.1048)
(2249.05 213.217 -45.9699)
(-3031.77 1044.24 -62.7489)
(-2870.4 1102.71 -51.1837)
(-2740.6 1175.19 -41.919)
(-2963.9 983.098 -68.2514)
(1515.76 208.044 -28.9122)
(1201.65 255.601 -21.3039)
(1273.08 259.662 -16.3732)
(1320.68 257.428 -15.8289)
(1348.89 251.914 -24.946)
(1380.39 243.929 -33.7012)
(1411.49 238.92 -29.769)
(1441.01 232.584 -23.1263)
(1478.06 230.376 -23.9938)
(1525.05 228.879 -28.841)
(1582.3 230.186 -31.8317)
(1857.21 293.649 -35.6701)
(-2480.69 1540.97 -67.061)
(-1943.27 1527.47 -52.7404)
(-1398.98 1378.75 -37.0658)
(-1299.53 1253.64 -61.3567)
(-239.377 687.504 -20.1185)
(-159.686 1524.24 -31.8244)
(25.9595 1662.15 -33.3505)
(206.648 1410.84 -27.5707)
(137.293 157.069 -4.51229)
(307.369 162.262 1.29024)
(503.501 221.156 -4.53311)
(690.516 270.797 -23.0146)
(847.208 304.437 -25.6821)
(963.187 318.003 -17.2907)
(1063.4 324.459 -10.474)
(1138.71 324.948 -14.7664)
(1206.17 322.146 -27.1897)
(1285.9 323.898 -32.1889)
(1359.66 318.201 -30.5675)
(1567.65 363.976 -30.5379)
(-1814.37 1673.67 -50.55)
(-1064.62 1373.95 -32.2542)
(-553.727 992.3 -27.2133)
(-283.997 749.995 -18.1067)
(-257.501 1197.14 -20.5044)
(-85.6947 1573.77 -24.5725)
(90.8464 1580.9 -23.4597)
(252.701 1134.34 -18.8527)
(167.78 340.275 -1.0523)
(98.6064 104.172 -2.5581)
(154.637 108.878 -12.5591)
(269.224 162.223 -10.2864)
(429.087 228.451 -1.88134)
(580.418 281.492 0.736942)
(703.971 312.611 -8.51119)
(827.217 337.1 -24.0967)
(941.758 354.037 -31.2514)
(1046.47 368.916 -24.1539)
(1139.83 373.11 -19.5508)
(1320.32 409.12 -22.1428)
(-1298.89 1638.56 -60.3484)
(-628.418 1182.91 -36.3915)
(-339.904 888.808 -18.9408)
(-302.206 881.713 -16.1619)
(-271.271 1298.7 -25.0578)
(-82.6023 1553.72 -26.6493)
(85.1804 1567.68 -26.5548)
(254.547 1201.2 -16.7984)
(223.636 524.589 -3.26366)
(119.368 175.892 -9.6441)
(95.8176 99.941 -6.02403)
(125.575 101.396 2.92402)
(195.891 138.564 3.82385)
(300.674 193.753 -5.14793)
(424.652 248.244 -16.5431)
(562.132 299.771 -25.2586)
(695.592 342.156 -21.0505)
(814.099 369.533 -13.9196)
(905.917 386.926 -15.3203)
(1083.28 424.056 -19.3895)
(-980.998 1593.79 -39.6251)
(-473.962 1162.83 -25.8799)
(-307.499 1023.93 -24.7095)
(-336.854 1040.27 -27.6272)
(-272.529 1371.87 -25.9134)
(-79.5426 1541.04 -28.0496)
(79.5211 1559.08 -26.3631)
(250.923 1249.41 -15.6469)
(269.192 696.588 -20.4282)
(173.753 296.316 -11.7628)
(106.986 139.992 4.21774)
(92.9432 96.0107 3.81392)
(110.18 94.6418 -1.89355)
(162.424 123.181 -7.0485)
(251.662 180.384 -11.6805)
(364.906 242.756 -11.5757)
(485.082 298.919 -11.0247)
(597.448 338.536 -9.44994)
(696.743 370.959 -12.841)
(879.267 419.325 -19.1505)
(-802.099 1599.68 -17.5162)
(-424.152 1255.24 -11.0032)
(-295.489 1197.46 -28.4421)
(-365.392 1213.94 -36.8162)
(-266.639 1438.99 -29.2221)
(-77.9315 1544.64 -30.7441)
(76.1308 1557.75 -27.6551)
(244.046 1279.64 -22.6705)
(299.636 843.217 -25.7306)
(236.867 452.121 -4.86058)
(151.023 217.794 3.53427)
(98.3407 119.425 -1.43163)
(106.14 109.389 -4.08997)
(127.262 112.661 -6.24081)
(166.943 139.237 -4.59967)
(238.772 185.874 -1.06466)
(330.213 242.05 -1.88264)
(433.413 293.354 -1.21401)
(533.007 338.748 -11.3715)
(713.56 402.249 -20.9536)
(-725.764 1724.47 -22.9574)
(-412.854 1410.24 -12.6387)
(-328.73 1425 -29.9384)
(-382.572 1401.51 -39.5677)
(-260.382 1510.12 -29.7373)
(-76.8622 1554.07 -32.5181)
(74.7809 1560.42 -31.3929)
(236.583 1312.64 -28.7528)
(312.374 950.618 -20.0883)
(285.744 597.924 -1.39254)
(207.369 326.406 -4.50637)
(134.063 178.5 -7.41564)
(113.362 133.141 -6.79498)
(124.484 126.411 -6.19543)
(140.896 130.044 -1.45322)
(170.827 144.8 3.00897)
(227.87 184.382 1.90027)
(314.577 241.596 -3.63756)
(405.376 294.54 -14.0949)
(572 372.066 -17.7492)
(-678.918 1862.27 -41.9155)
(-407.799 1631.97 -27.7382)
(-347.059 1710.91 -31.46)
(-387.675 1600.25 -36.9751)
(-255.006 1601.3 -35.2975)
(-73.6201 1575.61 -32.9218)
(74.1196 1569.91 -34.0197)
(230.255 1346.14 -24.8603)
(316.928 1041.07 -12.2163)
(314.527 716.625 -7.28996)
(259.07 449.644 -14.8131)
(192.537 272.807 -12.9081)
(149.088 180.244 -6.72223)
(133.29 148.258 -3.07811)
(141.499 144.366 0.0104869)
(158.885 148.047 2.63623)
(192.669 170.163 -1.65533)
(253.098 214.088 -9.46275)
(324.189 262.642 -12.2469)
(465.334 340.992 -10.9593)
(-660.94 2052.68 -46.9064)
(-416.073 1884.03 -39.7597)
(-363.458 2037.07 -37.529)
(-381.34 1835.38 -33.6671)
(-247.1 1717.94 -42.4523)
(-67.6472 1609.35 -37.327)
(76.1686 1588.39 -35.5676)
(224.214 1376.18 -22.7402)
(316.026 1112.69 -13.1019)
(337.302 834.852 -19.5325)
(306.653 583.47 -23.3667)
(252.78 386.38 -12.5858)
(199.263 257.354 -3.47351)
(157.161 185.597 0.246383)
(148.93 163.973 0.520732)
(164.1 165.744 -1.21559)
(191.465 181.945 -6.96495)
(230.526 207.723 -9.88109)
(273.873 238.434 -5.23374)
(383.733 306.713 -2.67222)
(-632.304 2242.27 -34.7918)
(-420.73 2144.59 -32.4923)
(-388.012 2416.96 -46.3681)
(-345.044 2173.01 -51.8836)
(-235.701 1874.15 -36.107)
(-58.0794 1662.43 -36.9056)
(81.6151 1618.25 -35.4451)
(222.548 1414.03 -25.8517)
(314.318 1179.61 -22.1613)
(352.233 944.281 -26.7477)
(346.694 713.053 -18.2974)
(307.469 505.774 -9.83604)
(256.207 352.135 -2.51851)
(202.46 249.511 -0.552267)
(175.393 200.127 -4.54587)
(185.559 195.615 -8.27251)
(200.376 199.694 -9.24955)
(223.576 211.982 -5.30883)
(252.019 231.333 1.96665)
(336.294 287.573 3.45933)
(-634.211 2473.8 -31.3801)
(-458.041 2417.89 -24.5169)
(-376.383 2804.17 -42.3563)
(-279.249 2642.46 -61.3848)
(-206.06 2115.02 -50.3721)
(-44.6945 1761.97 -39.5012)
(88.7547 1667.8 -35.3294)
(221.395 1464.33 -31.4127)
(315.439 1257.63 -27.4602)
(365.869 1043.89 -18.7047)
(372.982 828.384 -9.1875)
(347.323 620.049 -5.85372)
(308.104 458.217 -1.6557)
(259.283 338.761 -6.59547)
(224.827 267.788 -12.1606)
(214.076 237.309 -10.6068)
(213.54 224.348 -5.006)
(226.975 227.718 1.21553)
(251.61 244.674 2.93366)
(325.878 296.433 0.884322)
(-636.158 2696.43 -35.3494)
(-505.327 2657.94 -27.0989)
(-384.068 3018.28 -35.0641)
(-235.367 3107.85 -15.3397)
(-94.7983 2531.9 -52.5327)
(-1.72105 1983.46 -45.3116)
(109.264 1760.26 -37.6188)
(224.46 1525.74 -33.7167)
(309.933 1331.77 -28.0436)
(367.895 1134.24 -13.3047)
(389.451 921.281 -9.06677)
(380.331 722.7 -8.51999)
(353.43 561.198 -10.7926)
(311.134 431.806 -14.7555)
(277.347 343.239 -12.8398)
(250.006 285.375 -5.10162)
(235.197 255.466 1.86229)
(246.42 254.686 2.8739)
(262.163 261.822 -0.600152)
(323.283 304.006 -3.93604)
(-633.531 3053.71 -44.5451)
(-538.466 2998.59 -36.2692)
(-424.861 3285.55 -41.283)
(-211.717 3502.14 -48.1364)
(38.8496 3254.04 -54.8071)
(140.807 2666.45 -51.8959)
(208.975 2184.38 -43.9994)
(289.134 1804.36 -36.7575)
(357.604 1543.95 -29.0497)
(404.841 1315.8 -16.797)
(426.776 1101.15 -13.5382)
(429.298 909.58 -14.2285)
(417.615 747.646 -17.4016)
(388.504 601.601 -14.7537)
(357.408 488.524 -8.52701)
(324.028 403.043 -1.70949)
(301.332 350.487 3.47876)
(302.922 332.665 0.934142)
(310.576 328.67 -3.97033)
(347.147 346.382 -3.86342)
(-3145.86 -3161.72 127.136)
(-2241.92 -3098.97 173.136)
(-1783.53 -3236.42 221.108)
(-1636.51 -3103.91 82.7228)
(-1048.94 -3450.12 9.82861)
(-308.388 -3482.95 -6.49425)
(355.649 -3444.18 -15.1549)
(1058.88 -3110.9 -4.79477)
(1559.17 -2545.8 -11.6048)
(1691.69 -1860.26 11.7151)
(1641.48 -1318.4 0.897923)
(1598.38 -994.27 14.0815)
(1589.85 -802.524 31.7137)
(1707.25 -718.771 31.5079)
(1831.79 -664.956 19.126)
(2017.46 -645.216 16.5862)
(2209.82 -619.833 28.2199)
(2445.4 -625.062 34.1695)
(2668.96 -626.767 30.0037)
(3035.7 -628.033 20.1515)
(-3059.23 -2247.21 182.094)
(-2400.4 -2431.63 210.84)
(-1958.92 -2104.55 286.465)
(-1673.36 -2118.66 34.9135)
(-1066.62 -3035.63 -22.9341)
(-342.8 -3389.09 -13.1023)
(349.932 -3384.65 -14.5927)
(1119.12 -2966.97 -3.58918)
(1550.22 -2017.3 -3.77168)
(1396.86 -1105.27 17.059)
(1179.44 -634.97 7.70046)
(1146.46 -468.288 15.7084)
(1234.54 -410.359 32.0442)
(1381.02 -392.804 32.1412)
(1590.86 -385.986 22.574)
(1833.08 -395.84 20.7171)
(2091.1 -406.329 32.2881)
(2368.19 -442.806 41.0407)
(2618.35 -490.21 38.4406)
(2976.86 -527.648 28.8118)
(-3223.68 -1775.05 225.541)
(-2071.96 -1942.95 294.942)
(-1700.2 -1712.7 49.2659)
(-1368.51 -1773.9 -16.5674)
(-1113.63 -2870.74 -15.0107)
(-364.265 -3396.67 -2.71224)
(401.311 -3403.17 -10.1851)
(1189.57 -2862.15 -3.57404)
(1407.24 -1480.19 20.0893)
(1006.25 -573.623 12.243)
(867.412 -333.326 14.5768)
(999.095 -300.1 10.8357)
(1169.58 -283.604 13.7093)
(1397.72 -310.603 13.3484)
(1686.31 -327.293 12.1129)
(2008.27 -342.669 13.0186)
(2379.92 -364.413 15.7212)
(2763.37 -350.367 28.2185)
(2980.47 -360.035 29.4593)
(3274.32 -409.619 15.7358)
(-3079.31 -1585.06 107.735)
(-2072 -1677.82 60.651)
(-1722.8 -1372.29 4.05169)
(-1348.45 -1373.73 9.82624)
(-1291.18 -2409.58 -14.1048)
(-655.797 -3295.58 4.32933)
(171.28 -3485.61 -21.8149)
(992.403 -3097.45 -17.2123)
(1324.69 -1487.13 9.88525)
(754.179 -284.823 5.76695)
(883.444 -295.102 7.04778)
(1033.3 -328.858 -0.912952)
(1197.84 -354.86 -5.24074)
(1387.17 -376.192 -2.52397)
(1585.36 -383.421 5.57274)
(1820.93 -376.437 16.8231)
(2162.25 -341.418 8.303)
(2645.69 -276.718 -0.0213983)
(3113.7 -222.831 60.9896)
(3530.67 -194.605 14.2167)
(-3361.99 -1018.65 16.251)
(-2901.13 -1050.35 -14.0167)
(-2698.19 -1106.77 -11.0544)
(-2190.63 -1262.54 4.47638)
(672.99 -231.554 -0.648169)
(1263.49 -260.804 -7.77503)
(1360.83 -274.498 -10.1555)
(1426.13 -275.637 -8.37043)
(1484.81 -270.097 -8.20194)
(1545.7 -262.508 -4.54742)
(1625.14 -256.162 -2.97379)
(1731.89 -247.746 -6.58077)
(1873.7 -237.79 5.91721)
(2095.37 -211.347 -4.01164)
(2502.79 -100.547 17.2597)
(3255.56 46.1122 25.8884)
(-3379.96 -300.784 -6.03056)
(-3269.36 -342.533 -14.8859)
(-3290.42 -363.513 -10.4472)
(-3189.23 -647.264 -10.2026)
(1615.73 -160.112 -14.4563)
(1673.85 -89.2916 -11.3802)
(1644.77 -85.7561 -10.5124)
(1617.53 -82.4221 -9.26638)
(1608.85 -80.3208 -8.68438)
(1608.44 -79.1981 -7.89079)
(1616.91 -75.8756 -4.99773)
(1635.96 -69.5891 -6.78512)
(1673.57 -60.7893 -3.59496)
(1754.17 -49.4769 -2.12347)
(1950.87 -13.5446 3.94385)
(2609.74 122.71 23.2911)
(-3343.9 344.73 -32.4297)
(-3285.8 338.107 -32.9861)
(-3317.84 392.227 -24.7757)
(-3399.5 167.571 -38.438)
(1748.28 20.9804 -16.2184)
(1680.07 86.84 -11.5532)
(1657.15 81.2056 -12.315)
(1634.86 77.0628 -10.5478)
(1618.05 73.6376 -6.73265)
(1604.62 71.9302 -5.28209)
(1605.56 71.8621 -5.4331)
(1611.49 73.0344 -6.09138)
(1628.01 77.2621 -5.36898)
(1660.65 83.1986 -3.78436)
(1730.44 100.014 -1.31675)
(2102.83 188.621 10.7844)
(-3022.56 1026.67 -23.4498)
(-2887.61 1086.95 -28.9324)
(-2780.99 1160.97 -26.0399)
(-3012.81 963.173 -37.4537)
(1495.64 200.048 -13.3633)
(1192.28 248.328 -11.8972)
(1251.26 251.271 -3.8849)
(1289.18 247.256 1.0235)
(1309.05 240.902 -4.07981)
(1333.42 231.512 -11.7629)
(1362.9 226.644 -8.64942)
(1385.55 221.048 0.0915262)
(1411.56 216.723 3.53931)
(1447.95 215.037 0.030372)
(1496.45 214.548 -0.887965)
(1737.13 267.283 6.34248)
(-2466.19 1512.26 -31.0542)
(-1945.1 1499.84 -30.3409)
(-1408.48 1355.29 -8.16094)
(-1355.95 1251.19 -8.02875)
(-236.736 687.409 -2.60616)
(-152.234 1508.41 -14.1243)
(24.8122 1646.54 -14.7453)
(197.272 1392.31 -11.9631)
(131.58 154.602 -0.27448)
(297.065 154.649 4.75286)
(484.236 209.297 3.83078)
(659.813 254.21 -11.5399)
(814.629 286.977 -15.2877)
(926.147 301.918 -5.66161)
(1014 305.853 7.19649)
(1079.89 304.942 7.68755)
(1138.65 301.351 -2.05036)
(1214.5 302.886 -7.83152)
(1285.9 297.968 -4.85245)
(1468.76 335.741 4.2467)
(-1795.91 1636.53 -18.1557)
(-1060.4 1343.41 -21.5911)
(-547.407 967.392 -12.7544)
(-273.225 731.673 0.0667478)
(-249.641 1196.5 -9.20734)
(-83.0266 1580.58 -12.2733)
(88.6132 1585.83 -10.7015)
(245.167 1134.5 -12.0077)
(158.846 329.898 3.34355)
(90.9254 96.335 2.32122)
(143.65 100.307 -8.91222)
(253.28 150.473 -9.06879)
(402.905 212.572 2.70598)
(544.99 260.865 12.8754)
(655.6 288.684 9.81487)
(767.874 310.305 -4.60135)
(883.264 328.082 -12.469)
(985.588 344.094 -3.24883)
(1069.49 347.99 4.65192)
(1229.62 376.858 8.8239)
(-1270.88 1585.54 -21.3213)
(-610.412 1133.88 -16.9374)
(-322.307 839.699 -3.5195)
(-284.318 854.026 -0.344903)
(-262.336 1289.51 -10.7217)
(-79.7147 1552.81 -12.4043)
(82.5213 1564.77 -11.7848)
(246.017 1190.61 -6.38789)
(210.893 507.393 6.68134)
(107.831 161.534 -6.20477)
(88.4231 92.0255 -5.85242)
(116.013 93.3863 3.54616)
(178.849 125.448 9.40714)
(269.36 172.098 5.61718)
(381.874 220.879 -4.09998)
(512.947 269.993 -11.4185)
(644.912 313.802 -3.72912)
(757.753 340.954 9.75783)
(840.363 356.404 8.13356)
(1002.84 389.021 5.80215)
(-955.211 1535.85 -4.73888)
(-450.449 1101.98 -3.40025)
(-290.187 966.607 0.331286)
(-316.366 997.775 -7.54065)
(-263.172 1350.64 -8.79151)
(-76.419 1527.01 -11.5177)
(77.6606 1545.49 -9.81876)
(241.266 1229.14 -0.786029)
(252.299 668.887 -7.21806)
(159.526 277.036 -7.97665)
(97.3755 127.28 5.02355)
(82.1385 84.7847 7.03125)
(94.8177 81.24 2.30774)
(139.005 105.313 -3.34807)
(222.14 157.3 -5.98403)
(328.769 215.813 -1.16748)
(441.65 267.507 5.94548)
(544.12 304.08 9.00808)
(634.769 335.091 2.13945)
(808.649 382.278 -1.01793)
(-778.985 1539.52 14.1481)
(-400.549 1190.19 16.4625)
(-274.777 1126.93 7.99447)
(-341.929 1152.15 -7.95028)
(-257.172 1404.56 -9.53073)
(-74.1133 1518.23 -10.8874)
(74.0167 1531.79 -7.44737)
(234.176 1251.87 -4.19154)
(282.062 813.462 -12.9507)
(218.161 422.739 2.59191)
(134.327 197.032 10.7246)
(83.4075 101.743 3.35865)
(90.3721 92.4557 -2.66583)
(110.178 96.9249 -3.92795)
(148.173 122.276 0.759406)
(212.636 163.797 7.58896)
(293.182 213.479 8.8135)
(386.093 259.808 7.75762)
(481.266 303.043 -0.432538)
(653.376 365.146 -3.3711)
(-701.916 1659.97 16.4252)
(-388.39 1336.59 22.2252)
(-304.82 1341.39 12.6707)
(-361.221 1326.05 -3.93076)
(-249.655 1461.3 -6.02119)
(-73.4404 1518.72 -9.93602)
(71.5951 1523.09 -7.30474)
(225.354 1278.22 -9.89492)
(296.669 917.118 -6.60006)
(263.316 559.639 13.2787)
(183.405 292.303 8.35733)
(113.011 152.234 -2.14095)
(98.0032 115.587 -3.4521)
(107.902 109.875 -1.33006)
(121.222 111.609 4.75704)
(148.762 126.327 7.78554)
(199.485 162.075 6.05317)
(279.671 213.206 1.54584)
(364.041 262.837 -2.38862)
(519.91 335.423 -0.797346)
(-654.59 1789.7 5.69621)
(-383.873 1547.61 16.0447)
(-323.716 1617.45 15.3102)
(-367.809 1508.62 5.10564)
(-243.77 1535.55 -5.3208)
(-70.8018 1529 -7.5902)
(71.0301 1525.74 -7.56837)
(220.002 1308.72 -6.17919)
(299.52 997.025 6.14705)
(290.468 669.148 12.2804)
(231.761 406.649 -0.348567)
(167.831 241.04 -5.41171)
(129.424 158.822 0.0154449)
(113.722 126.965 3.99898)
(120.138 122.137 5.83774)
(134.161 124.804 5.8714)
(163.694 143.403 2.12274)
(218.591 184.047 -0.969487)
(282.401 228.539 0.61554)
(417.393 303.601 3.85053)
(-639.393 1974.9 3.28177)
(-394.636 1795.15 12.3358)
(-338.524 1931.98 17.2746)
(-362.603 1724.6 20.1297)
(-236.182 1635.55 -6.67916)
(-64.809 1550.78 -9.84239)
(71.9553 1535.13 -7.728)
(214.086 1330.87 -0.215966)
(297.462 1060.83 8.96036)
(312.164 780.475 0.527432)
(278.285 536.501 -8.37854)
(225.596 348.63 -1.28708)
(173.43 226.899 6.72067)
(134.512 158.627 6.65432)
(125.357 138.051 4.9421)
(137.934 140.588 3.19323)
(162.121 154.19 1.0138)
(194.71 175.961 2.00614)
(234.561 202.808 7.06221)
(341.978 272.19 8.99572)
(-614.006 2165.15 13.8292)
(-399.052 2055.88 21.4708)
(-363.767 2304 20.1188)
(-331.194 2038.45 14.6287)
(-227.331 1772.39 8.93751)
(-57.1694 1590.18 -5.58476)
(75.4156 1555.81 -6.42576)
(209.804 1357.29 1.19374)
(295.006 1121.69 1.7006)
(328.043 891.598 -7.38011)
(319.441 663.847 -1.01742)
(276.671 461.353 6.65309)
(224.559 311.479 9.30174)
(175.366 215.888 6.23402)
(147.934 170.411 1.10344)
(156.121 166.16 0.384128)
(169.001 168.614 2.65138)
(189.397 179.216 7.52335)
(217.286 198.777 11.4831)
(299.152 254.927 13.1004)
(-614.821 2390.91 19.1289)
(-435.552 2327.7 27.3568)
(-357.404 2699.77 34.7346)
(-267.446 2506.76 13.6605)
(-202.554 1985.09 0.0494368)
(-46.0735 1668.4 -3.93552)
(80.9184 1593.51 -4.17696)
(208.075 1396 -2.60736)
(296.275 1196.11 -3.59406)
(342.298 988.105 1.68568)
(345.308 773.292 13.4099)
(314.11 567.494 12.1547)
(273.322 409.635 9.84692)
(228.878 300.679 2.56156)
(194.662 231.682 -1.67348)
(182.663 201.785 1.49149)
(182.37 191.19 7.69422)
(194.288 194.36 11.2872)
(217.628 211.415 11.4876)
(287.121 261.262 11.6254)
(-616.852 2606.89 15.0435)
(-484.058 2565.72 23.222)
(-363.011 2920.03 28.6346)
(-212.271 2969.62 85.8823)
(-103.4 2372.4 30.3805)
(-10.963 1857.34 4.63844)
(97.4005 1667.83 -0.220984)
(208.491 1447.85 -1.84208)
(290.973 1265.63 -1.41002)
(344.755 1069.96 10.016)
(361.005 859.371 13.9105)
(346.875 664.42 7.29494)
(319.232 510.491 3.51194)
(279.513 389.045 0.142243)
(243.72 301.617 1.51327)
(216.09 247.969 7.63023)
(204.256 221.807 11.1339)
(213.856 221.062 10.9298)
(229.172 228.842 9.24023)
(285.427 268.126 9.09801)
(-617.896 2958.47 5.72713)
(-522.579 2903.21 11.363)
(-408.268 3195.04 7.4944)
(-198.196 3397.83 28.6964)
(37.1887 3099.81 43.7485)
(120.483 2494.94 28.7232)
(183.468 2039.65 14.798)
(262.364 1690.26 7.49723)
(329.751 1450.53 7.90174)
(374.155 1232.64 14.5426)
(394.351 1027.73 12.6704)
(395.618 845.705 5.70237)
(383.79 691.687 2.61499)
(354.591 552.798 3.93429)
(322.67 443.847 7.26773)
(291.535 363.353 10.716)
(270.085 314.377 13.4148)
(268.552 295.201 11.4008)
(275.218 291.111 9.14269)
(308.429 307.332 9.77454)
(-3209.05 -3204.35 124.646)
(-2328.74 -3164.46 178.694)
(-1896.05 -3321.83 274.497)
(-1705.88 -3156.23 91.4275)
(-1047.77 -3458.66 27.3961)
(-306.687 -3543.35 5.15467)
(355.67 -3505.48 -16.7164)
(1062.81 -3161.69 -8.15933)
(1566.31 -2584.99 -10.6943)
(1691.02 -1884.39 16.779)
(1632.53 -1328.76 9.41727)
(1586.92 -1001.06 16.0299)
(1567.8 -803.024 31.6651)
(1681.84 -718.66 36.1758)
(1807.27 -665.086 22.0557)
(1993.94 -648.426 15.5465)
(2191.32 -628.031 21.0167)
(2427.95 -630.955 25.1333)
(2655.09 -632.28 21.299)
(3023.68 -637.556 12.6157)
(-3111.28 -2295.96 186.1)
(-2522.71 -2543.57 237.997)
(-2048.06 -2109.85 274.44)
(-1623.99 -2164.12 38.8856)
(-1071.66 -3076.98 3.41658)
(-334.452 -3468.59 5.74826)
(353.77 -3451.27 -14.3499)
(1123.85 -3005.18 -3.77112)
(1551.44 -2031.52 -1.24403)
(1392.24 -1106.93 18.0115)
(1166.45 -628.031 15.7328)
(1128.69 -461.336 16.7186)
(1212.65 -398.743 34.1798)
(1355.78 -381.8 39.6194)
(1563.93 -379.328 28.004)
(1813.8 -393.606 22.4992)
(2080.8 -410.951 28.5394)
(2355.05 -436.706 30.8681)
(2621.02 -486.997 27.7787)
(2979.05 -531.638 20.2891)
(-3258.68 -1831.37 254.051)
(-2084.36 -2009.2 265.24)
(-1657.78 -1650.34 23.7781)
(-1322.95 -1782.07 15.3342)
(-1119.61 -2924.82 12.7469)
(-357.712 -3466.26 16.1448)
(400.825 -3461.82 -7.68756)
(1190.42 -2887.26 0.0959219)
(1389.98 -1468.09 24.5983)
(1001.01 -570.408 11.5853)
(851.304 -320.41 18.159)
(983.873 -296.428 16.1398)
(1158.46 -279.856 16.1062)
(1390.94 -303.463 18.8985)
(1682.67 -322.627 18.4082)
(2005.53 -336.177 18.2897)
(2379.75 -359.765 18.6543)
(2798.22 -351.116 22.8948)
(3045.02 -352.448 22.0531)
(3327.51 -413.315 5.69251)
(-3070.83 -1632.49 82.7815)
(-2064.48 -1599.67 11.157)
(-1701.53 -1301.29 -28.0003)
(-1316.85 -1350.58 26.0996)
(-1285.78 -2483.8 17.2464)
(-652.141 -3375.49 25.7574)
(169.916 -3543.23 -11.171)
(989.567 -3142.73 -11.3279)
(1292.51 -1458.37 12.3068)
(747.794 -284.222 8.80445)
(881.698 -284.68 10.4969)
(1032.38 -321.846 8.08306)
(1195.26 -350.278 2.78152)
(1381.33 -372.881 2.0774)
(1578.42 -381.719 7.23668)
(1813.79 -377.252 20.521)
(2155.47 -346.68 18.9356)
(2658.66 -284.914 4.47607)
(3186.33 -223.528 61.1034)
(3659.21 -196.767 17.0899)
(-3352.17 -1034.82 6.72779)
(-2923.62 -1047.83 -23.8922)
(-2751.94 -1103.44 -9.74689)
(-2217.14 -1252.94 -1.92882)
(634.418 -226.318 -0.121328)
(1269.42 -258.095 -4.14398)
(1371.71 -273.304 -6.03622)
(1436.48 -274.369 -4.77472)
(1490.87 -268.438 -5.56704)
(1549.49 -260.08 -3.95146)
(1625.48 -255.165 -2.80165)
(1732.3 -248.39 -7.65579)
(1880.53 -241.983 6.19466)
(2085.23 -224.025 -0.954673)
(2485.58 -124.512 20.1964)
(3312.1 31.3586 31.0381)
(-3421.15 -311.808 -9.33053)
(-3334.3 -340.897 -14.5869)
(-3341.22 -361.854 -6.59064)
(-3242.72 -644.792 1.72949)
(1621.28 -160.102 -8.05935)
(1699.88 -89.2361 -7.43578)
(1668.95 -86.4809 -5.89578)
(1642.05 -82.6596 -4.91589)
(1630.21 -80.0738 -4.36074)
(1631.51 -78.8709 -4.2095)
(1641.55 -76.8574 -1.70909)
(1660.93 -71.7522 -3.16341)
(1697.07 -64.1965 -0.849791)
(1765.31 -55.4066 0.865668)
(1941.69 -27.3523 7.28199)
(2594.66 95.978 27.47)
(-3398.27 334.615 -27.0059)
(-3348.84 340.674 -17.8264)
(-3371.7 392.773 -10.536)
(-3457.69 172.757 -20.198)
(1760.71 21.568 -10.4719)
(1705.85 85.1828 -4.56947)
(1681.05 80.0148 -6.62026)
(1659.65 75.2172 -5.90394)
(1643.55 72.005 -2.40181)
(1632.2 70.2511 -1.67601)
(1635.69 69.3128 -2.58859)
(1645.8 69.7327 -4.16986)
(1665.29 72.6968 -4.04017)
(1696.9 77.5414 -2.81054)
(1756.18 90.4594 -0.173538)
(2094.29 164.363 11.5129)
(-3071.12 1021.12 -13.6632)
(-2933.73 1083.98 -10.3131)
(-2826.07 1153.27 -10.7633)
(-3063.38 965.416 -24.4848)
(1502.12 199.289 -6.92452)
(1209.02 246.373 -8.13946)
(1264.94 247.596 -2.15043)
(1303.18 243.173 5.72012)
(1327.44 237.237 3.56007)
(1352.55 229.396 -6.31452)
(1384.6 223.101 -8.75464)
(1410.99 219.051 -1.23938)
(1439.23 213.694 6.43601)
(1476.39 212.592 3.79957)
(1521.61 210.243 1.14878)
(1738.75 251.018 6.41205)
(-2504.14 1506.75 -25.2073)
(-1984.83 1495.92 -17.7945)
(-1455.86 1351.96 2.59626)
(-1436.01 1254.97 -19.2691)
(-215.167 609.668 -3.7477)
(-150.158 1540.42 -9.20147)
(25.0455 1678.95 -8.95947)
(194.094 1418.3 -7.29429)
(138.965 132.556 1.21649)
(297.975 147.387 3.06284)
(490.474 204.52 8.98792)
(661.468 249.314 -3.00355)
(816.052 280.183 -12.9723)
(929.613 296.02 -8.19303)
(1015.17 299.082 7.47334)
(1089.6 299.563 12.4547)
(1152.86 299.227 4.30285)
(1229.5 300.537 -5.26274)
(1308.5 296.402 -5.18283)
(1482.24 325.465 4.83974)
(-1819.93 1624.82 -8.43334)
(-1078.55 1337.22 -5.46042)
(-565.121 964.29 -6.22599)
(-277.526 702.141 0.468776)
(-243.494 1202.91 -7.26337)
(-81.7129 1627.99 -9.37863)
(87.7549 1627.05 -5.6102)
(242.408 1149.29 -9.38144)
(147.068 300.559 3.38864)
(86.854 87.9671 5.44848)
(139.744 94.2087 -5.63147)
(246.361 141.074 -9.23232)
(386.83 198.947 0.47579)
(531.533 247.396 14.9194)
(649.858 279.388 17.5278)
(763.214 303.521 3.02411)
(882.156 320.963 -12.1524)
(991.623 338.83 -5.88176)
(1078.19 345.154 7.54863)
(1239.68 368.427 12.3108)
(-1275.21 1558.77 -11.4789)
(-603.693 1105 -2.65108)
(-312.187 807.54 1.84106)
(-272.927 827.971 2.98644)
(-258.707 1301.93 -7.83429)
(-79.0544 1598.33 -8.43117)
(82.6129 1604.61 -6.80688)
(242.858 1205.9 -3.48405)
(202.945 491.843 9.79218)
(99.5059 147.658 -4.94155)
(80.8939 82.1909 -6.84002)
(106.154 82.8939 1.64672)
(167.573 114.589 11.0173)
(257.27 160.847 11.4356)
(368.187 209.075 0.552066)
(495.887 255.254 -11.0754)
(628.729 300.406 -7.29892)
(753.686 332.822 12.2138)
(846.968 352.44 16.1701)
(1012.49 384.231 10.752)
(-955.39 1504.89 -6.08574)
(-441.479 1060.54 -1.92292)
(-288.053 927.893 3.67892)
(-307.041 967.711 0.164494)
(-260.312 1367.13 -6.52483)
(-75.7175 1573.25 -8.12542)
(77.5031 1586.08 -5.41508)
(238.631 1247.39 3.83758)
(245.348 656.727 -3.96086)
(147.561 257.848 -9.42923)
(86.8257 112.456 2.32595)
(76.0751 76.9177 7.92518)
(87.9856 73.7114 5.64984)
(125.995 94.2926 -1.25667)
(203.296 140.677 -6.8303)
(304.725 196.056 -3.46738)
(422.932 250.389 8.96776)
(535.613 292.533 16.4183)
(629.48 326.036 6.32531)
(809.616 375.104 0.080571)
(-774.537 1501.81 8.22127)
(-389.072 1148.67 12.8082)
(-273.074 1088.8 10.8053)
(-335.239 1119.97 -2.78121)
(-254.928 1419.04 -8.44448)
(-73.0692 1560.67 -7.77505)
(74.4863 1571.65 -4.06668)
(233.154 1275.7 1.22939)
(275.085 806.791 -13.7641)
(203.268 397.954 0.662524)
(121.932 179.894 11.6537)
(76.6507 92.6726 6.30869)
(80.8848 81.6259 -1.19381)
(96.3569 84.2047 -4.68133)
(131.331 106.232 -0.924235)
(195.064 146.898 8.3689)
(278.406 198.003 13.493)
(368.911 244.716 7.89105)
(465.401 288.479 -1.80965)
(645.483 354.848 -2.05217)
(-697.312 1617.75 14.8099)
(-377.006 1293.2 20.4921)
(-299.381 1309.92 11.9109)
(-358.699 1293.25 -3.01603)
(-246.288 1473.42 -7.60502)
(-71.9656 1562.2 -7.83425)
(73.0646 1563.77 -5.17386)
(225.823 1304.26 -7.8942)
(291.354 918.232 -8.85261)
(250.111 542.07 13.9293)
(170.981 274.944 11.5398)
(102.063 137.546 -0.957214)
(86.3431 100.795 -4.38897)
(93.7751 94.7853 -0.985044)
(107.649 97.2254 6.47201)
(134.891 113.927 9.38681)
(181.449 147.536 6.29754)
(256.877 194.347 -2.34401)
(342.369 245.613 -3.06736)
(507.097 323.195 1.60879)
(-650.126 1748.01 7.86496)
(-375.117 1503.98 14.5611)
(-321.713 1594.6 9.39465)
(-370.055 1480.41 1.0286)
(-240.818 1541.6 -7.89527)
(-70.6066 1571.59 -6.43981)
(71.6829 1567.56 -6.60133)
(220.255 1338.44 -8.89053)
(294.076 1002.57 5.52633)
(282.066 661.151 15.0536)
(220.712 390.641 0.215619)
(152.419 221.501 -6.90345)
(114.375 142.161 -0.660033)
(100.693 113.343 6.3514)
(106.16 107.039 9.02505)
(115.615 107.232 6.15833)
(139.203 121.042 0.33668)
(190.316 158.47 -2.35453)
(257.702 207.473 2.168)
(399.879 288.333 7.05481)
(-640.287 1936.01 6.67605)
(-390.339 1759.03 10.2651)
(-336.828 1916.47 10.111)
(-369.677 1698.12 14.804)
(-234.989 1639.6 -11.5951)
(-66.2225 1591.67 -8.95418)
(71.7906 1579.51 -7.3355)
(215.389 1365.41 -2.31058)
(294.765 1074.71 8.64455)
(306.076 776.408 0.620286)
(265.732 519.577 -10.708)
(208.953 326.908 -3.03331)
(158.684 211.376 8.52657)
(123.035 144.694 9.06042)
(109.307 118.722 6.05981)
(117.63 119.018 1.27389)
(137.699 129.959 -0.396613)
(171.072 153.873 3.41472)
(212.424 183.211 10.0128)
(320.045 254.28 11.243)
(-624.508 2135.96 15.6015)
(-406.28 2032.19 20.9232)
(-365.407 2295.85 12.5496)
(-347.427 2008.46 9.96622)
(-230.395 1780.23 2.90726)
(-59.3476 1627.4 -7.07576)
(74.0143 1600.51 -6.90725)
(210.291 1393.55 1.88892)
(294.226 1138.82 0.101216)
(322.745 892.539 -11.532)
(309.245 651.215 -5.23712)
(262.878 446.32 9.93623)
(211.012 297.774 13.5124)
(160.824 196.805 6.62398)
(127.382 146.409 0.181476)
(132.605 141.925 -0.554349)
(146.319 146.245 3.90275)