/*--------------------------------*- C++ -*----------------------------------*\
  =========                 |
  \\      /  F ield         | OpenFOAM: The Open Source CFD Toolbox
   \\    /   O peration     | Website:  https://openfoam.org
    \\  /    A nd           | Version:  9
     \\/     M anipulation  |
\*---------------------------------------------------------------------------*/
FoamFile
{
    format      ascii;
    class       volScalarField;
    location    "0.007";
    object      T;
}
// * * * * * * * * * * * * * * * * * * * * * * * * * * * * * * * * * * * * * //

dimensions      [0 0 0 1 0 0 0];

internalField   nonuniform List<scalar> 
9720
(
1131.93
1121.7
1118.49
1073.67
1043.41
1039.87
1037.66
1021.34
999.685
980.297
965.317
959.735
961.063
965.884
974.241
984.297
994.645
1004.67
1012.93
1024.03
1121.03
1121.89
1067.33
1011.32
1015.95
1033.72
1034.98
1014.62
976.383
940.977
922.229
924.357
930.964
942.08
956.417
971.988
985.914
997.562
1007.35
1019.44
1118.98
1071
990.027
971.002
1011.11
1035.51
1037.03
1013.63
959.908
918.837
916.665
922.856
934.854
947.43
961.181
976.107
991.988
1007.26
1017
1027.2
1073.96
1011.13
969.871
949.962
987.315
1033.43
1042.21
1027.85
951.449
876.287
877.781
883.062
891.656
901.333
913.769
929.218
950.466
976.98
1004.34
1028.91
1041.78
1012.11
1007.06
986.341
866.059
866.264
871.659
874.7
878.111
882.886
889.472
898.194
909.83
926.573
953.121
1004.65
1036.67
1029.83
1032.19
1030.55
886.097
888.448
886.771
885.009
884.964
885.461
886.594
888.44
891.489
898.294
911.736
964.269
1033.84
1030.87
1033.54
1039.2
893.939
887.607
885.994
884.398
883.465
882.671
882.618
883.059
884.39
887.436
892.825
927.157
1017.18
1010.1
1009.13
1023.93
875.907
850.503
853.441
855.197
856.55
858.173
860.124
862.334
864.994
868.643
873.189
896.979
995.562
971.577
954.977
942.978
850.506
881.154
889.735
870.712
813.011
805.369
809.212
814.116
820.332
826.865
832.788
837.707
842.377
847.814
853.531
873.156
976.751
935.762
912.332
869.876
861.323
883.809
882.932
844.859
803.087
806.605
796.613
797.561
802.872
808.719
812.595
817.184
823.725
831.377
837.749
854.534
962.395
918.523
912.43
872.088
866.771
882.096
881.29
848.669
805.897
800.296
792.191
789.419
791.253
794.801
798.64
804.329
811.867
819.84
824.414
837.836
956.23
921.001
919.941
878.475
869.903
880.359
879.859
851.345
810.218
800.611
794.863
780.061
775.073
781.608
792.425
801.252
805.534
808.457
810.045
821.413
957.589
927.766
932.489
887.718
873.562
880.424
878.868
853.309
816.95
803.369
796.222
780.697
774.732
778.721
788.184
797.213
798.446
799.641
802.6
814.863
962.75
938.775
943.67
897.395
878.744
881.185
878.713
855.315
824.276
807.695
797.656
787.048
781.655
780.162
781.979
786.621
791.353
799.498
804.584
815.352
971.668
952.878
955.916
909.606
885.755
882.733
879.006
857.729
830.722
811.483
799.701
795.835
793.091
785.522
782.211
784.454
791.303
803.972
809.923
817.365
982.207
968.865
970.373
924.459
894.732
885.132
879.962
860.319
836.359
816.557
804.287
801.836
799.802
791.768
786.296
788.481
796.445
809.945
814.526
820.352
992.86
983.746
986.808
944.496
906.572
888.75
881.851
863.222
841.777
823.79
811.439
805.125
800.19
795.571
794.592
798.402
806.286
812.783
816.022
823.575
1003.2
996.192
1003.45
970.624
923.183
895.859
885.512
867.302
847.841
831.855
819.702
808.445
801.426
801.928
806.688
812.42
814.029
815.177
818.226
828.131
1011.73
1006.17
1014.57
998.54
948.791
909.304
891.493
872.287
854.018
838.453
825.015
811.176
804.333
806.113
810.872
815.749
817.35
818.971
822.298
833.103
1022.78
1018.35
1025.04
1024.44
999.815
961.284
926.433
896.937
874.476
855.924
840.004
824.932
817.506
816.451
817.925
820.901
824.622
829.214
833.889
842.784
1130.08
1119.17
1113.62
1067.2
1038.56
1037.6
1036.04
1019.4
997.299
977.73
962.487
957.06
958.242
962.716
971.036
981.445
992.147
1002.32
1010.66
1022.05
1118.95
1119.2
1052.53
1001.19
1015.08
1033.19
1034.06
1013.13
974.249
938.874
919.148
921.199
927.418
937.954
952.018
967.851
982.662
994.916
1004.79
1017.31
1116.08
1056.91
981.053
965.233
1012.67
1035.56
1036.38
1012.36
958.064
916.908
912.654
918.665
930.963
943.553
957.006
971.573
987.571
1003.65
1013.89
1024.71
1069.06
1001.7
963.821
942.618
991.765
1033.04
1040.82
1026.23
951.264
874.009
874.402
877.87
885.22
894.368
906.488
921.625
942.379
969.836
997.826
1024.82
1036.99
1009.47
1005.42
980.051
869.973
862.781
867.546
869.713
872.252
876.272
882.285
890.525
901.696
917.852
943.407
997.606
1034.07
1028.58
1031.44
1029.19
881.774
884.971
882.849
880.695
879.456
879.692
880.456
881.863
884.392
890.253
902.346
954.538
1031.98
1029.79
1032.81
1037.58
889.577
883.982
881.911
879.857
878.16
876.849
876.402
876.724
877.757
880.229
884.769
916.625
1015.2
1009.13
1008.66
1022.62
871.644
847.133
848.707
849.673
850.444
851.817
853.887
855.885
857.905
860.839
864.824
886.504
993.052
969.727
953.588
944.269
854.816
876.82
885.26
865.942
827.05
809.154
807.779
809.456
814.665
820.817
825.754
829.692
833.749
839.068
844.69
862.866
973.614
934.378
912.788
869.37
858.107
880.519
879.377
841.377
806.053
808.81
801.059
798.254
800.28
802.937
804.626
807.922
814.491
822.562
828.547
844.171
958.628
914.809
908.311
869.997
863.321
878.607
877.516
844.292
804.764
803.468
798.918
793.436
789.203
789.128
791.102
796.602
804.011
811.175
815.245
828.044
953.219
916.807
914.333
873.889
865.747
876.53
875.65
846.164
806.552
800.089
796.893
782.807
772.728
777.781
788.189
795.993
798.55
800.71
802.135
813.016
954.521
923.006
926.249
881.264
868.364
875.452
874.135
847.671
812.139
800.859
793.396
777.509
772.125
776.945
786.836
793.729
793.109
793.53
796.001
807.32
959.438
933.877
938.188
889.844
872.391
875.818
873.071
849.431
818.811
802.675
792.618
782.677
779.663
778.27
780.324
784.039
787.083
793.88
798.267
808.547
968.2
948.291
951.169
901.292
878.354
876.838
873.119
851.778
824.168
804.555
793.729
792.147
790.785
782.817
777.753
779.673
786.437
798.141
803.628
811.413
978.862
964.863
965.949
915.737
886.468
878.601
873.684
853.953
828.762
808.346
798.279
797.376
795.566
787.772
781.355
783.423
790.484
802.469
807.968
814.883
989.614
980.347
982.811
935.48
897.583
881.482
875.1
856.21
833.591
815.342
804.784
799.284
795.061
790.916
789.719
792.497
798.688
805.682
809.576
818.046
999.808
992.818
999.878
962.873
913.42
887.423
878.07
859.587
839.502
823.554
811.892
801.752
796.039
796.906
801.549
805.976
807.489
808.837
811.744
822.277
1008.11
1002.5
1010.75
991.765
938.484
899.419
883.099
863.987
845.426
829.767
816.644
804.23
798.939
800.905
805.649
810.326
811.79
812.931
816.007
827.099
1019.31
1014.67
1021.38
1019.85
992.645
951.424
915.67
886.458
864.28
846.117
830.915
817.435
811.123
811.047
812.712
816.006
819.787
823.89
828.091
837.433
1132.27
1122.3
1113.69
1062.3
1034.97
1037.63
1036.24
1019.2
997.187
977.835
962.192
957.459
958.872
963.561
972.024
982.617
993.35
1003.14
1011.18
1022.28
1121.45
1119.92
1039.28
993.568
1015.44
1034.32
1034.38
1012.64
973.767
939.568
920.275
922.433
928.655
939.286
953.317
969.186
984.416
996.382
1006.07
1018.01
1116.46
1042.39
974.416
962.879
1014.16
1036.34
1036.43
1011.49
957.136
918.771
915.685
920.732
932.943
946.328
960.056
974.171
989.647
1006.21
1016.53
1026.63
1064.2
991.409
959.3
938.039
992.138
1033.88
1041.14
1026.1
949.828
874.963
875.216
877.4
883.306
891.807
903.618
918.86
939.457
967.792
997.467
1027.16
1032.55
1008.76
1006.73
978.218
861.656
859.742
865.081
867.1
869.15
872.701
878.391
886.501
897.881
913.225
937.858
996.158
1033.22
1029.17
1031.73
1029.56
880.029
883.069
880.753
878.559
877.145
877.423
878.365
879.801
882.148
887.003
897.539
948.865
1031.94
1030.43
1033.06
1037.86
887.726
881.732
879.438
877.358
875.691
874.378
874.361
874.794
875.96
878.176
881.899
910.076
1015.17
1009.64
1009.21
1022.87
869.108
844.708
845.68
846.4
847.231
848.729
851.114
853.404
855.522
858.316
861.917
880.549
992.529
969.736
953.901
946.677
858.863
875.789
883.833
864.25
832.712
810.872
807.636
808.393
812.65
818.079
822.361
826.19
830.317
835.646
841.312
857.658
972.773
935.794
916.402
868.766
856.521
880.286
878.611
840.24
808.343
810.929
806.361
803.242
801.017
801.619
802.396
804.843
810.938
819.092
824.846
839.328
956.664
914.199
909.276
869.292
861.898
877.929
876.37
842.189
805.242
805.868
804.461
800.242
793.194
790.261
791.407
795.989
802.032
808.979
813.091
825.198
952.362
915.709
912.84
871.729
863.986
875.798
874.428
843.585
806.16
802.448
800.427
791.142
779.169
782.215
790.481
796.746
799.343
801.292
802.688
812.838
953.905
921.724
924.347
877.621
865.804
874.226
872.759
845.046
810.626
800.313
795.196
782.719
777.985
781.295
789.618
797.014
797.024
797.412
799.338
809.126
958.891
932.979
938.089
885.514
868.917
874.468
871.643
847.051
816.44
800.979
793.412
786.78
783.983
783.204
786.957
791.51
793.142
798.1
801.693
811.018
967.806
948.126
952.635
896.606
874.117
875.488
871.776
849.707
821.185
801.926
794.697
795.313
794.829
790.638
785.555
786.182
791.827
801.997
807.922
814.929
978.986
965.326
967.958
911.295
881.838
877.11
872.437
852.152
825.39
804.797
798.776
800.267
800.75
796.275
788.269
789.426
795.289
808.137
814.236
819.243
990.153
981.614
984.845
930.917
892.908
879.612
873.835
854.487
830.047
811.215
803.856
801.632
800.141
797.8
795.885
797.893
804.136
813.38
816.208
823.016
1000.34
994.214
1002.76
959.202
907.782
884.213
876.36
857.558
835.998
819.722
810.146
803.055
800.603
801.926
806.905
812.738
815.543
816.507
818.044
827.883
1008.56
1003.91
1013.87
990.815
931.885
894.274
880.376
861.38
841.944
825.868
814.451
804.759
802.709
805.114
811.023
817.1
818.586
819.226
822.138
833.956
1019.6
1015.66
1023.71
1022.65
991.393
945.569
909.029
880.356
858.755
840.985
827.393
816.088
812.694
814.086
816.838
820.551
824.786
829.509
834.925
845.794
1135.88
1126.82
1112.57
1056.45
1032.04
1037.5
1036.29
1018.93
996.359
977.026
960.722
957.358
959.2
964.292
973.082
984.106
995.118
1004.84
1012.69
1023.4
1125.01
1118.93
1027.55
988.691
1015.5
1034.87
1034.67
1012.67
972.405
939.333
919.987
922.235
928.964
940.286
955.01
971.118
986.743
998.743
1008.21
1019.63
1114.33
1027.95
971.537
963.442
1014.36
1036.94
1036.83
1011.57
955.298
919.659
917.867
921.445
933.005
947.745
963.048
977.764
992.729
1009.28
1020.08
1029.28
1057
983.918
958.594
938.913
987.209
1034.61
1041.84
1026.13
948.345
876.64
875.095
876.371
881.048
888.58
899.705
914.828
935.354
963.684
995.403
1029.35
1028.01
1009.37
1009.48
983.245
834.514
856.894
862.809
865.126
866.763
869.564
874.391
881.526
892.3
906.431
929.468
992.803
1032.42
1029.7
1032.18
1029.71
877.213
880.614
878.594
876.694
875.048
875.153
875.886
877.03
878.756
882.232
890.754
940.36
1031.66
1030.53
1033.01
1037.99
884.838
879.035
877.074
875.172
873.566
872.223
871.847
872.076
872.895
874.511
877.28
901.225
1014.67
1009.29
1008.65
1022.64
865.956
841.862
842.718
843.297
844.129
845.496
847.656
849.904
852.033
854.509
857.407
872.433
991.95
968.813
952.382
944.841
852.792
876.767
884.1
863.954
842.244
815
808.167
808.251
811.084
815.68
819.691
823.214
827.031
831.691
836.561
850.711
972.763
936.513
917.938
872.127
856.291
880.446
878.28
839.238
809.439
813.6
808.061
806.454
802.534
800.476
801.175
803.535
808.249
815.325
820.726
833.709
955.806
915.244
912.482
871.923
862.072
878.054
876.254
841.699
806.086
806.713
807.164
804.714
796.096
791.195
791.959
795.036
799.581
805.877
810.406
821.98
951.624
916.404
915.02
873.119
864.298
875.883
874.308
842.882
806.588
805.028
804.025
797.636
784.87
786.233
791.235
795.876
797.461
800
802.506
812.539
953.407
922.176
925.486
877.435
865.705
873.926
872.611
844.226
809.761
801.993
797.619
788.474
783.647
785.842
790.406
795.824
797.738
800.021
802.122
809.855
958.542
933.239
939.631
884.446
868.158
873.976
871.224
845.991
814.951
800.3
794.293
790.769
788.352
786.783
788.859
793.719
797.297
801.788
804.231
811.433
967.489
948.203
954.919
894.772
872.581
874.726
871.214
848.516
819.821
800.788
795.029
796.185
795.923
792.895
789.963
791.828
797.127
805.51
809.446
815.158
979.003
965.041
970.165
908.965
879.304
876.081
871.598
851.074
823.898
802.767
797.838
800.562
802.882
800.989
794.991
795.651
799.833
809.354
814.658
820.203
990.794
982.077
985.99
927.978
889.669
878.088
872.711
853.526
828.156
807.529
801.292
801.207
802.324
802.934
801.734
802.76
806.268
813.608
817.832
825.937
1001.17
995.528
1004.19
955.109
903.22
881.596
874.701
856.185
833.179
815.244
806.47
802.02
802.539
804.921
810.119
814.941
816.921
819.028
822.117
832.874
1009.39
1005.61
1016.88
987.779
924.769
889.706
877.766
859.146
838.155
821.122
810.519
803.385
803.516
806.185
812.524
818.958
821.469
823.808
827.939
839.958
1020.45
1017.59
1027.1
1025.03
988.307
938.076
901.703
874.126
852.625
834.957
822.387
812.787
810.989
812.955
816.982
822.455
828.755
835.7
842.031
853.248
1138.6
1129.93
1110.84
1052.13
1030.5
1037.74
1036.8
1019.04
995.746
976.195
959.02
957.05
959.235
964.73
973.777
985.287
996.948
1007.05
1014.86
1025.03
1128.23
1118.8
1020.01
985.286
1016.72
1035.73
1035.4
1012.85
970.999
938.46
918.353
920.418
927.648
939.965
955.441
972.008
988.417
1001.05
1010.58
1021.59
1113.13
1020.07
969.686
962.398
1016.39
1037.57
1037.3
1011.71
953.16
919.319
916.932
919.555
930.597
946.008
962.514
978.256
993.817
1011.01
1022.59
1031.58
1052.87
980.753
957.214
937.121
988.971
1034.97
1042.13
1026.45
945.809
875.905
874.336
875.222
879.04
885.825
896.398
911.05
931.319
959.798
992.9
1030.54
1026.02
1008.63
1008.26
981.107
855.396
854.881
861.19
863.826
865.278
867.697
872.068
878.558
888.507
901.811
923.364
989.904
1031.91
1029.5
1032.05
1029.55
875.523
878.876
876.819
874.954
873.237
873.239
873.811
874.828
876.184
878.863
886.102
934.109
1031.4
1030.45
1032.86
1037.7
882.584
877.093
875.251
873.369
871.736
870.433
869.827
869.927
870.506
871.786
874.039
895.307
1014.21
1008.8
1008.02
1022.17
863.69
839.515
840.243
840.639
841.49
843.086
845.279
847.518
849.536
851.676
854.079
867.048
991.441
967.731
950.605
943.313
851.502
875.988
883.152
862.564
842.068
817.073
807.645
807.03
808.616
812.358
816.717
820.376
824.161
828.72
833.138
845.971
972.387
935.283
916.049
873.731
855.41
879.754
877.527
837.927
809.297
814.095
806.302
804.313
803.064
800.671
800.37
801.594
805.242
811.772
817.197
829.461
955.23
915.88
915.463
873.164
861.559
877.484
875.71
840.998
806.308
805.781
804.649
804.911
801.313
793.689
792.651
793.422
796.245
802.626
807.545
818.669
951.681
917.505
917.846
874.078
864.088
875.433
873.801
842.354
807.02
804.452
805.012
803.525
793.371
787.554
788.817
793.077
797.315
800.497
802.147
810.584
953.725
923.453
927.733
877.788
865.508
873.529
872.283
843.473
809.258
803.363
802.457
796.385
786.401
786.01
788.536
795.785
799.972
801.396
802.345
808.443
958.968
934.477
941.857
884.411
867.831
873.512
870.944
844.915
813.547
801.046
796.648
793.998
788.452
787.905
790.275
797.408
801.347
803.069
803.92
809.817
967.865
949.392
957.264
894.448
872.1
874.149
870.696
847.216
818.757
801.064
796.235
795.135
794.33
794.562
795.426
797.715
800.384
805.11
807.971
813.945
979.267
965.782
972.325
908.385
878.527
875.442
870.94
849.955
823.138
802.362
797.012
798.437
803.225
804.38
801.513
799.835
801.451
807.781
813.11
819.83
991.119
982.452
987.273
927.303
888.438
877.24
871.843
852.766
827.342
805.792
799
800.654
803.492
805.545
804.141
803.669
805.384
812.353
818.187
826.212
1001.6
996.221
1004.89
953.785
901.467
880.34
873.635
855.422
831.904
812.323
803.66
801.784
802.741
805.178
808.648
812.135
815.303
820.001
824.119
833.772
1009.97
1006.45
1018.07
986.03
921.355
887.512
876.346
858.013
836.275
818.347
807.875
802.557
803.045
805.366
810.792
817.453
821.803
825.633
829.429
841.294
1021.03
1018.69
1028.61
1025.8
985.716
933.184
897.44
870.801
849.379
831.889
819.64
810.696
809.174
811.001
815.934
822.706
829.643
837.269
844.145
856.111
1138.62
1129.79
1109.99
1051.32
1030.59
1038.08
1037
1019.03
995.594
976.122
958.57
956.509
958.919
964.737
974.007
985.679
997.461
1007.62
1015.38
1025.43
1128.7
1118.79
1018.99
984.586
1017.51
1036.31
1035.71
1012.84
970.808
938.603
918.27
919.932
926.986
939.592
955.367
972.184
988.952
1001.65
1011.18
1021.99
1113.94
1019.36
968.89
961.613
1017.65
1038.18
1037.61
1011.71
952.936
919.706
917.398
919.737
930.261
945.611
962.305
978.258
994.179
1011.84
1023.38
1032.02
1052.93
980.191
956.169
934.857
992.975
1035.31
1042.41
1026.6
945.131
875.641
874.296
875.084
878.726
885.486
896.219
911.168
931.622
960.241
994.095
1031.57
1025.67
1008.01
1007.5
976.855
851.206
854.213
860.513
863.035
864.506
867.043
871.61
878.305
888.402
901.765
923.643
990.848
1031.7
1029.19
1031.82
1029.41
874.379
878.229
876.131
874.108
872.412
872.481
873.218
874.391
875.873
878.652
885.96
934.378
1031.17
1030.22
1032.73
1037.58
881.55
876.393
874.523
872.525
870.93
869.583
869.216
869.4
870.089
871.494
873.809
895.104
1013.98
1008.72
1008.13
1022.03
862.25
837.941
839.396
840.138
840.965
842.299
844.542
846.952
849.138
851.263
853.621
866.484
991.276
967.765
951.054
944.163
861.901
875.93
882.934
862.36
852.176
816.76
807.144
806.26
807.581
811.119
815.616
819.664
823.677
828.132
832.417
845.172
972.126
934.772
915.417
873.815
855.763
880.197
877.742
838.45
813.775
815.974
806.151
803.763
802.422
799.482
799.007
800.303
803.968
810.564
816.055
828.423
955.167
916.338
916.666
873.287
861.907
877.971
875.892
840.732
807.391
807.649
804.877
804.386
800.59
792.308
790.95
791.833
795.02
801.394
806.187
817.315
951.927
918.18
919.359
874.403
864.413
875.922
874.036
841.665
807.441
805.108
805.152
803.051
791.773
786.093
787.975
792.339
796.187
799.028
800.588
809.031
954.06
924.308
929.339
878.41
865.885
874.056
872.529
842.846
809.292
803.355
802.568
795.854
785.413
785.764
788.831
795.71
798.611
799.684
800.735
806.927
959.418
935.405
943.222
885.132
868.252
874.069
871.23
844.759
813.682
800.932
796.773
793.4
788.371
787.944
790.213
796.215
799.505
801.601
802.529
808.293
968.306
950.219
958.458
895.142
872.543
874.72
871.127
847.442
818.283
800.951
796.26
794.799
794.644
794.178
793.843
795.504
798.693
804.062
806.695
812.425
979.674
966.502
973.326
908.839
879.092
876.014
871.393
850.057
822.251
802.222
797.181
798.528
802.753
802.604
798.747
798.171
800.317
806.7
811.65
818.363
991.378
982.954
988.113
927.809
888.92
877.765
872.285
852.38
826.588
805.973
799.377
800.648
802.967
804.806
802.922
802.922
804.627
811.039
817.024
825.574
1001.6
996.374
1005.36
954.63
901.925
880.773
874.023
854.998
831.76
812.813
803.95
802.041
802.971
805.466
808.632
811.232
814.09
819.135
823.827
834.417
1009.8
1006.36
1017.98
986.206
921.665
887.82
876.681
857.859
836.493
818.569
808.309
803.172
803.505
806.003
810.903
816.866
821.044
825.487
830.215
842.223
1020.69
1018.36
1028.15
1025.25
985.158
932.581
897.236
870.718
849.425
831.602
819.958
811.581
809.993
811.77
816.492
823.062
830.121
838.089
844.861
856.78
1135.98
1126.53
1110.84
1054.74
1031.87
1038.09
1036.83
1018.91
995.742
976.335
959.5
956.632
958.803
964.4
973.527
984.856
996.121
1006.08
1013.95
1024.32
1125.88
1118.83
1025.47
986.932
1017.67
1036.24
1035.48
1012.74
971.298
938.554
918.7
920.862
928.015
940.057
955.246
971.828
987.815
999.991
1009.49
1020.58
1115.71
1027.42
970.148
962.527
1017.74
1038.26
1037.53
1011.72
953.723
919.178
917.001
920.517
932.182
947.376
963.115
978.311
993.909
1010.9
1021.56
1030.45
1057.44
983.105
956.612
936.447
994.259
1035.85
1042.82
1026.81
945.16
875.674
874.777
876.001
880.616
888.226
899.663
915.212
936.128
964.896
997.507
1031.18
1027.49
1007.64
1006.97
977.333
853.021
855.481
861.603
864.041
865.761
868.677
873.689
880.906
891.774
905.933
929.698
994.608
1031.75
1028.88
1031.79
1029.74
874.285
879.194
877.075
875.09
873.477
873.619
874.413
875.619
877.396
880.875
889.5
940.669
1031.01
1030.01
1032.85
1037.76
881.649
877.474
875.503
873.567
872.034
870.811
870.561
870.777
871.608
873.215
875.888
900.097
1013.84
1008.58
1008.15
1022.25
862.433
839.077
840.864
841.844
842.783
844.086
846.243
848.69
851.014
853.455
856.115
870.681
991.159
967.787
951.174
942.138
851.178
876.708
883.819
863.521
848.741
812.822
806.704
806.383
808.644
813.206
817.725
821.637
825.535
830.002
834.577
848.5
971.772
934.271
915.326
873.515
856.424
880.591
878.627
839.872
813.029
814.448
806.65
804.914
801.827
799.334
799.804
801.542
805.732
812.67
818.198
831.367
955.424
915.651
915.06
873.533
862.527
878.249
876.545
841.798
806.953
807.648
806.094
803.669
797.623
791.307
791.156
793.439
797.53
803.684
808.174
819.464
952.002
917.664
918.201
874.875
864.901
876.12
874.528
842.882
806.898
805.433
804.081
799.317
786.758
785.916
790.316
795.161
796.855
799.099
800.878
809.544
954.072
923.957
928.906
879.353
866.351
874.254
872.893
843.932
809.555
802.595
799.421
790.047
782.978
785.315
790.393
796.713
797.723
798.703
799.896
806.965
959.457
935.207
942.778
886.252
868.819
874.303
871.506
845.331
814.614
800.905
794.916
790.651
787.455
786.604
789.296
794.767
797.073
800.123
802.006
808.857
968.521
950.099
957.675
896.359
873.255
875.009
871.314
847.681
819.413
801.283
795.198
795.417
795.147
792.699
790.053
791.328
795.837
803.883
807.624
813.035
979.895
966.638
972.478
910.28
879.963
876.236
871.55
850.244
823.404
802.926
797.796
800.218
802.528
800.427
793.625
794.031
798.778
808.948
813.747
818.328
991.359
983.258
987.805
929.37
890.198
878.03
872.446
852.67
827.382
807.409
801.394
801.63
802.799
802.471
800.108
801.481
805.838
813.982
817.904
824.834
1001.38
996.206
1005.49
956.522
903.525
881.313
874.232
855.31
832.24
814.878
807.04
803.097
803.198
805.084
809.199
814.164
817.061
819.745
822.404
833.002
1009.37
1005.94
1017.64
988.694
924.766
889.19
877.116
858.192
837.203
820.849
811.339
804.575
804.434
806.839
812.954
819.419
821.906
824.224
828.69
841.107
1019.99
1017.29
1026.99
1025.15
987.834
936.872
900.437
872.801
851.558
834.593
823
814.011
812.392
814.518
818.735
823.763
829.737
836.861
843.533
855.063
1132.19
1121.89
1112.08
1060.95
1034.89
1038.21
1036.55
1019.16
996.579
977.014
961.134
956.857
958.572
963.736
972.553
983.272
993.935
1003.72
1011.76
1022.81
1121.63
1119.31
1037.15
993
1017.02
1035.39
1034.83
1012.65
972.458
938.376
918.639
920.887
927.717
939.273
953.989
970.081
985.008
996.781
1006.39
1018.31
1117.14
1041.87
974.029
963.483
1016.2
1037.2
1036.66
1011.55
955.113
917.977
914.259
919.518
932.225
946.543
960.991
975.525
991.236
1007.31
1017.05
1027.17
1064.36
990.603
958.452
938.195
993.899
1035.14
1041.95
1026.35
946.188
875.053
874.714
876.856
883.014
891.826
904.199
920.032
941.354
970.232
1000.09
1028.7
1031.97
1007.56
1005.55
977.964
856.692
858.443
863.946
866.129
868.252
871.852
877.573
885.789
897.432
913.111
939.18
998.428
1032.42
1028.45
1031.54
1029.8
877.167
881.508
879.175
876.983
875.634
875.918
876.777
878.159
880.539
885.554
896.6
950.228
1031.14
1029.77
1032.88
1038.03
884.447
879.887
877.672
875.661
874.078
872.819
872.769
873.191
874.332
876.509
880.239
909.572
1014.17
1008.79
1008.7
1022.71
865.237
842.078
843.409
844.269
845.104
846.597
849.126
851.679
853.845
856.51
859.98
878.898
991.611
968.627
952.876
945.334
862.402
876.487
884.273
864.534
840.913
812.886
806.674
806.637
810.026
815.617
820.443
824.314
828.271
833.392
838.947
855.608
971.883
934.004
915.055
871.617
856.946
880.59
879.068
840.955
810.521
812.435
805.686
802.453
801.027
801.106
801.335
803.019
808.415
816.612
822.654
837.479
956.337
914.779
911.424
871.701
862.673
878.368
876.946
843.038
806.198
806.106
804.329
801.494
795.485
790.802
791.241
795.172
801.004
807.802
811.646
823.373
952.353
916.898
916.184
873.787
864.854
876.279
875.038
844.292
806.539
803.505
802.314
794.726
780.984
782.388
790.326
797.112
799.422
800.896
801.82
810.982
954.187
923.31
928.099
879.48
866.68
874.691
873.498
845.413
810.605
801.851
797.491
783.957
777.537
781.147
790.419
797.972
797.463
797.2
798.434
807.607
959.613
934.85
941.425
887.127
869.763
874.918
872.301
847.089
816.743
802.417
794.16
786.277
783.051
783.206
788.059
792.987
793.581
797.451
800.805
809.774
968.865
950.083
955.584
897.896
874.905
875.919
872.344
849.7
821.876
803.022
794.832
794.651
794.381
790.775
785.806
786.176
791.243
801.358
807.219
813.695
980.125
967.258
970.553
912.237
882.526
877.504
872.87
852.238
825.864
805.142
798.972
801.058
801.753
796.79
787.702
788.536
794.556
808.336
814.19
817.907
991.195
983.645
987.271
931.808
893.553
879.915
874.158
854.457
830.021
811.148
804.726
803.048
801.276
797.844
794.585
796.846
803.827
814.721
816.762
821.998
1001.15
996.026
1005.23
959.998
908.086
884.317
876.526
857.257
835.544
819.806
811.255
804.434
801.227
801.774
806.215
812.876
816.813
817.739
818.566
827.409
1009.14
1005.56
1016.41
992.007
931.704
894.132
880.355
860.895
841.358
825.907
815.149
805.597
802.956
805.425
811.839
818.406
819.628
819.911
822.531
834.333
1019.63
1016.45
1025.22
1024.16
991.674
944.85
908.225
879.481
857.988
840.528
827.205
816.189
813.284
815.167
818.37
821.821
825.591
830.238
836.049
847.44
1129.82
1118.79
1112.01
1066.37
1038.77
1038.5
1036.53
1019.8
997.654
978.041
962.642
957.269
958.525
963.136
971.496
981.666
992.095
1002.08
1010.37
1021.89
1118.64
1118.21
1049.5
1001.55
1016.74
1034.31
1034.36
1013.38
974.392
939.486
918.869
920.854
927.316
938.196
952.433
967.945
982.211
994.098
1003.94
1016.76
1116.5
1057.17
981.063
966.68
1014.51
1036.28
1036.28
1012.43
958.174
918.094
912.221
918.156
930.638
943.674
957.272
971.763
987.578
1002.84
1012.57
1023.95
1068.95
1000.85
963.155
941.152
993.817
1034.13
1040.91
1026.05
950.613
873.347
873.478
876.788
884.371
894.146
907.067
923.025
944.869
972.578
999.64
1024.94
1036.38
1008.42
1004.54
978.711
865.787
860.345
865.259
867.62
870.431
874.83
881.245
889.964
901.762
918.955
946.009
999.275
1033.11
1027.84
1031.29
1029.44
878.079
882.33
880.438
878.419
877.587
877.902
878.679
880.114
882.847
889.402
902.503
956.579
1031.17
1029.3
1032.78
1037.81
885.413
881.001
879.178
877.342
875.875
874.625
874.475
874.837
875.922
878.515
883.327
917.107
1014.34
1008.7
1008.74
1022.62
866.704
843.851
845.836
846.97
847.886
849.391
851.693
853.832
855.891
858.883
862.974
885.798
992.053
969.237
953.766
943.867
854.614
876.28
884.362
865.094
836.189
806.791
805.452
807.136
812.28
818.525
823.51
827.496
831.587
836.945
842.664
861.616
972.324
933.286
912.716
869.807
858.14
880.938
879.785
841.835
806.092
808.06
800.848
797.589
799.278
801.453
802.805
805.874
812.435
820.692
826.827
842.858
957.269
914.281
909.033
870.29
863.403
878.974
877.937
844.671
804.355
802.505
798.705
793.823
788.798
788.225
789.827
795.284
802.902
809.95
813.836
826.666
952.41
916.505
915.318
874.055
865.781
876.923
876.133
846.355
806.114
799.518
796.565
782.659
771.913
776.809
787.753
795.79
797.98
799.715
800.975
811.796
954.113
923.049
927.555
881.369
868.322
875.748
874.697
847.746
811.835
800.552
792.412
775.464
770.947
776.192
787.422
794.1
792.878
793.005
795.264
806.472
959.625
934.49
939.651
889.766
872.228
876.083
873.584
849.53
818.861
802.427
791.293
780.47
778.284
778.193
781.319
784.812
787.066
793.198
797.564
807.789
968.908
949.482
952.775
900.912
878.019
877.089
873.605
851.973
824.349
804.124
792.454
790.734
790.126
783.097
777.522
779.29
785.995
797.572
803.18
810.643
979.943
966.606
967.719
915.082
885.955
878.794
874.1
854.118
828.662
807.656
797.433
797.404
795.92
787.727
780.49
782.594
789.942
802.69
807.909
814.035
990.927
982.554
984.978
934.644
896.956
881.488
875.376
856.157
833.14
814.669
804.613
799.612
795.221
790.272
788.49
791.529
798.603
806.228
809.719
817.435
1001.31
995.23
1002.64
962.209
912.249
886.893
878.078
859.192
838.863
823.193
811.889
801.838
795.735
796.129
800.602
805.795
807.88
809.17
811.829
822.032
1009.59
1005.02
1013.89
992.438
936.997
898.334
882.709
863.282
844.702
829.331
816.283
803.832
798.307
800.361
805.499
810.474
811.913
812.925
815.978
827.192
1020.2
1016.39
1023.68
1021.85
992.767
950.137
914.21
884.909
862.957
844.936
829.684
816.114
810.387
811.024
813.006
816.161
819.794
823.91
828.332
838.106
1131.48
1121.1
1116.75
1072.72
1043.51
1041.06
1038.75
1022.45
1000.92
981.575
966.347
960.373
961.559
966.325
974.653
984.534
994.577
1004.32
1012.45
1023.68
1120.72
1120.83
1062.48
1010.46
1018.16
1035.32
1035.93
1015.48
977.579
942.751
922.866
924.755
931.202
942.184
956.26
971.466
985.11
996.587
1006.35
1018.8
1119.64
1072.43
989.302
971.382
1014.36
1036.83
1037.66
1014.22
960.901
920.392
916.446
922.537
934.709
947.348
960.754
975.317
991.101
1005.93
1015.47
1026.4
1074.01
1010.25
968.337
945.617
994.307
1033.84
1041.34
1027.13
951.811
874.816
876.292
881.612
890.572
901.126
914.567
930.965
953.299
979.607
1005.72
1028.57
1041.17
1010.37
1004.71
979.869
867.224
864.386
869.564
872.57
876.219
881.521
888.757
898.196
910.71
928.889
956.786
1006.37
1035.2
1028.46
1031.41
1029.23
879.705
886.054
884.416
882.878
882.98
883.64
884.86
886.822
890.276
898.208
913.077
967.116
1032.59
1029.88
1033.07
1037.91
887.303
885.052
883.433
881.881
881.027
880.406
880.459
881.02
882.513
885.847
891.812
928.719
1015.91
1009.2
1008.57
1022.81
869.201
847.963
850.84
852.569
853.967
855.725
857.818
860.093
862.79
866.577
871.393
897.042
994.015
970.148
953.574
943.026
856.37
877.681
886.278
867.03
817.676
802.965
806.697
811.623
817.869
824.407
830.277
835.241
839.976
845.569
851.518
872.372
974.925
934.071
911.612
870.852
861.673
884.225
883.456
845.382
802.139
805.057
794.941
795.859
800.915
806.3
809.951
814.707
821.572
829.424
835.947
853.379
960.509
916.961
911.665
872.895
867.344
882.45
881.794
849.148
805.612
799.511
791.938
788.611
789.974
792.898
796.5
802.319
810.139
818.1
822.619
836.453
955.051
919.399
919.039
878.878
870.447
880.616
880.323
851.654
810.319
800.162
794.368
779.195
774.427
780.562
791.306
800.149
804.185
806.855
808.309
819.981
956.696
926.232
931.46
887.703
873.878
880.651
879.344
853.502
817.172
803.335
795.593
779.312
773.926
778.107
788.005
797.021
797.618
798.322
800.981
813.453
962.296
937.805
942.931
896.819
878.696
881.359
879.113
855.488
824.509
807.68
796.949
785.444
780.703
779.541
781.668
786.53