/*--------------------------------*- C++ -*----------------------------------*\
  =========                 |
  \\      /  F ield         | OpenFOAM: The Open Source CFD Toolbox
   \\    /   O peration     | Website:  https://openfoam.org
    \\  /    A nd           | Version:  9
     \\/     M anipulation  |
\*---------------------------------------------------------------------------*/
FoamFile
{
    format      ascii;
    class       volVectorField;
    location    "0.007";
    object      U;
}
// * * * * * * * * * * * * * * * * * * * * * * * * * * * * * * * * * * * * * //

dimensions      [0 1 -1 0 0 0 0];

internalField   nonuniform List<vector> 
9720
(
(-614.026 -615.964 12.1787)
(-483.007 -664.709 16.9578)
(-407.001 -737.945 7.66513)
(-476.831 -920.812 -16.4315)
(-341.125 -1132.35 -20.0571)
(-100.888 -1138.75 -17.4935)
(119.519 -1137.21 -21.2288)
(396.168 -1153.15 -18.7202)
(697.314 -1129.93 -24.6225)
(929.64 -1014.04 -14.8325)
(1099.94 -876.647 -24.3964)
(1213.98 -749.693 -13.1026)
(1287.23 -645.641 2.02919)
(1359.45 -570.664 -3.14298)
(1381.37 -500.368 -16.3544)
(1399.56 -445.497 -17.2759)
(1406.75 -392.647 -6.92279)
(1432.22 -364.935 -3.78129)
(1451.99 -339.848 -5.60406)
(1515 -311.325 -9.98258)
(-660.542 -482.08 19.4227)
(-528.917 -529.101 18.8947)
(-600.984 -654.452 3.46122)
(-764.942 -930.374 -21.3445)
(-426.37 -1176.83 -19.7794)
(-121.592 -1145.03 -15.8653)
(118.911 -1137.14 -18.6898)
(445.071 -1161.86 -15.3106)
(856.33 -1099.79 -21.6858)
(1130.33 -883.341 -8.05743)
(1308.24 -698.797 -17.1034)
(1421.36 -580.632 -7.05824)
(1486.27 -495.684 10.5123)
(1533.29 -437.474 4.74622)
(1547.99 -376.716 -12.9997)
(1521.49 -329.513 -19.845)
(1500.32 -294.518 -8.87394)
(1502.42 -285.205 -0.658411)
(1507.21 -284.774 -1.22979)
(1545.56 -273.767 -5.41519)
(-734.034 -399.744 14.4886)
(-645.816 -580.955 11.1437)
(-904.019 -899.577 -11.2974)
(-859.674 -1051.81 -34.7381)
(-466.168 -1135.59 -13.1191)
(-127.284 -1129.55 -10.2722)
(136.992 -1124.91 -12.7391)
(482.109 -1134.41 -10.8077)
(956.354 -986.051 -11.7646)
(1203.82 -678.275 -13.8551)
(1390.75 -533.24 -6.29353)
(1555.06 -466.908 -19.5705)
(1661.78 -406.338 -23.9715)
(1744.39 -392.788 -25.2398)
(1787.87 -350.872 -25.2932)
(1781.49 -310.065 -28.2937)
(1748.36 -272.27 -31.4516)
(1697.73 -219.153 -23.1886)
(1634.4 -204.393 -12.0686)
(1627.48 -209.898 -11.2098)
(-915.463 -458.859 -5.88721)
(-924.731 -755.552 -4.09015)
(-1053.35 -853.032 -3.27386)
(-1026.29 -997.076 -34.3388)
(-659.766 -1105.17 -24.3557)
(-231.164 -1106.52 -9.41139)
(58.0854 -1105.87 -16.8511)
(367.184 -1105.23 -17.3292)
(949.573 -1019.05 -30.8807)
(1761.32 -669.908 -33.866)
(1948.08 -657.512 -23.2075)
(2051.58 -656.776 -42.3003)
(2093.94 -623.107 -53.0995)
(2117.42 -574.164 -49.4153)
(2120.41 -511.259 -40.4835)
(2111.5 -433.414 -34.2422)
(2082.16 -323.154 -44.1681)
(2009.5 -211.68 -44.68)
(1895.27 -147.005 -18.2149)
(1763.44 -103.487 -26.8065)
(-1124.1 -333.857 -19.6792)
(-1176.8 -424.836 -17.1718)
(-1136.22 -470.003 -9.45569)
(-1104.23 -636.91 -16.3287)
(1940.92 -696.743 -59.6889)
(2310.19 -484.935 -36.1684)
(2327.31 -477.494 -42.4894)
(2343.12 -459.432 -41.7994)
(2354.3 -433.296 -44.5422)
(2355.69 -403.835 -43.6086)
(2350.71 -372.21 -46.163)
(2334.76 -334.2 -53.1567)
(2300.87 -289.92 -44.4493)
(2251.57 -220.411 -48.7777)
(2179.19 -77.0301 -47.0722)
(1961.63 24.545 -39.9176)
(-1138.05 -99.7102 -19.1369)
(-1147.01 -121.652 -17.5254)
(-1131.69 -127.413 -12.4916)
(-1109.35 -230.41 -9.53616)
(2313.54 -235.413 -44.6704)
(2345.68 -127.335 -34.1618)
(2350.15 -125.517 -37.5855)
(2351.01 -122.582 -40.3296)
(2350.28 -120.364 -44.0891)
(2346.58 -117.651 -47.133)
(2344.2 -111.099 -46.4787)
(2341.89 -100.384 -50.8219)
(2341.35 -83.8126 -49.8776)
(2325.52 -62.2628 -48.8481)
(2312.66 -7.71731 -50.4901)
(2156.36 108.65 -43.3654)
(-1138.63 120.484 -27.0356)
(-1140.26 119.238 -24.47)
(-1127.16 136.966 -18.186)
(-1108.06 57.8217 -22.7996)
(2330.13 29.6924 -43.6039)
(2370.14 124.608 -34.0331)
(2375.66 119.407 -39.938)
(2379.29 113.696 -40.2077)
(2382.84 109.292 -40.4105)
(2384.21 108.911 -43.7822)
(2387.84 108.995 -47.5489)
(2391.73 111.333 -50.4578)
(2393.83 118.343 -50.3927)
(2386.04 124.858 -48.919)
(2379.79 144.893 -49.7027)
(2288.97 217.002 -46.7858)
(-1156.62 398.378 -23.9387)
(-1167.77 448.618 -20.8232)
(-1137.67 487.844 -17.4013)
(-1106.12 366.89 -25.4713)
(2356.82 323.482 -44.9548)
(2394.82 509.397 -42.4573)
(2415.76 492.726 -31.0692)
(2422.47 472.191 -29.0345)
(2418.68 451.705 -44.7304)
(2425.62 428.631 -59.2197)
(2431.07 411.502 -51.2724)
(2431.73 392.491 -39.0261)
(2436.78 379.807 -39.557)
(2436.03 365.599 -46.069)
(2424.53 352.709 -48.7751)
(2371.84 375.019 -45.5543)
(-1130.66 702.348 -30.5653)
(-1101.06 865.462 -29.8827)
(-979.812 965.647 -25.96)
(-1008.3 972.696 -47.6064)
(-694.188 1993.75 -58.3431)
(-236.42 2256.68 -47.1168)
(35.5423 2275.72 -45.6618)
(337.153 2301.83 -44.9824)
(1633.81 1869.14 -53.6968)
(2202.72 1162.83 9.24631)
(2284.06 1003.24 -20.5638)
(2350.38 921.74 -78.3372)
(2385.52 857.218 -72.3141)
(2392.2 789.803 -42.9436)
(2422.64 739.188 -23.862)
(2433.37 694.398 -31.555)
(2439.54 651.553 -54.9923)
(2459.61 619.535 -61.5692)
(2464.45 576.756 -55.4052)
(2426.63 563.411 -47.2707)
(-1010.44 932.081 -28.1517)
(-878.983 1134.37 -26.6301)
(-673.974 1207.79 -33.1229)
(-666.849 1761.05 -42.516)
(-486.633 2262.39 -38.7499)
(-124.856 2292.96 -35.8018)
(133.254 2318.87 -34.4108)
(520.611 2336.94 -38.84)
(1113.09 2257.47 -6.98121)
(1628.4 1720.32 -42.2449)
(1950.87 1373.58 -158.442)
(2131.44 1284.32 -81.4374)
(2241.65 1193.48 -9.82853)
(2267.08 1099.49 2.87845)
(2298.07 1020.5 -27.7843)
(2360.52 961.94 -68.7616)
(2386.25 897.069 -79.1856)
(2401.8 846.715 -55.4367)
(2442.63 799.565 -41.8969)
(2430.64 753.167 -40.7636)
(-872.605 1100.8 -40.5425)
(-695.305 1308.81 -40.2649)
(-534.153 1396.75 -29.765)
(-662.633 1933.29 -35.4375)
(-476.568 2281.56 -44.0215)
(-122.179 2298.14 -39.4175)
(126.401 2326.33 -39.4053)
(499.099 2355.23 -32.9372)
(963.732 2260.65 -14.0643)
(1410.62 2078.57 -113.968)
(1672.8 1744.79 -105.169)
(1878.25 1516.59 43.7352)
(2040.55 1443.38 39.832)
(2114.56 1362.61 -36.204)
(2169.08 1268 -84.5001)
(2240.65 1194.88 -100.681)
(2288.46 1125.68 -69.2551)
(2302.13 1044.97 -39.362)
(2351.53 1004.36 -39.7676)
(2385.62 933.865 -42.6999)
(-745.649 1211.43 -30.1188)
(-578.195 1418.56 -31.5714)
(-466.481 1553.32 -37.4848)
(-656.39 2027.06 -53.8342)
(-456.695 2298.94 -43.4248)
(-118.781 2301.23 -41.8863)
(118.972 2332.56 -39.4421)
(474.824 2364.27 -29.6088)
(890.783 2305.08 -67.599)
(1265.05 2157.39 -85.6416)
(1502.31 1965.8 59.2262)
(1664.83 1719.78 68.3163)
(1882.24 1616.8 -32.3482)
(2044.65 1550.64 -88.729)
(2057.36 1474.66 -95.4887)
(2083.32 1385.94 -66.088)
(2149.78 1324.75 -48.8593)
(2188.86 1240.29 -34.6215)
(2259.78 1203.15 -41.6478)
(2327.28 1109.89 -50.6883)
(-645.999 1288.36 -14.1073)
(-502.971 1488.5 -13.0479)
(-407.738 1652.34 -39.2466)
(-620.416 2061.2 -62.5119)
(-428.332 2311.61 -46.9427)
(-116.144 2302.03 -45.8191)
(114.23 2337.32 -41.495)
(450.2 2360.61 -41.8211)
(831.42 2339.73 -71.3964)
(1163.35 2220.55 -23.8722)
(1418.51 2045.67 33.1963)
(1578.49 1916.93 -22.9795)
(1802.2 1857.38 -69.4459)
(1972.66 1746.34 -96.7376)
(1975.43 1647.58 -54.4277)
(1982.67 1543.43 -8.84054)
(2055.02 1506.36 -11.7163)
(2121.79 1436.13 -5.94324)
(2184.94 1388.62 -46.6148)
(2265.72 1277.24 -66.5328)
(-572.641 1360.64 -18.1138)
(-450.008 1537.15 -13.7761)
(-399.994 1733.92 -36.4285)
(-569.566 2086.54 -58.9077)
(-398.838 2313.12 -45.5498)
(-113.697 2298.83 -48.1016)
(112.125 2339.67 -47.07)
(427.148 2369.96 -51.9129)
(771.387 2347.49 -49.6067)
(1071.15 2241.39 -5.22013)
(1330.78 2094.69 -28.9194)
(1508.98 2009.16 -83.4688)
(1684.16 1978 -100.949)
(1823.38 1851.6 -90.7473)
(1911.58 1764.35 -19.7163)
(1965.44 1665.99 34.6195)
(2027.88 1640.87 16.9111)
(2064.35 1585.43 -23.8708)
(2086.79 1516.23 -72.5577)
(2172 1412.81 -67.3973)
(-503.951 1382.34 -31.1132)
(-388.543 1554.91 -26.4284)
(-361.448 1781.85 -32.7644)
(-506.637 2091.3 -48.3212)
(-367.539 2307.95 -50.8742)
(-107.288 2296.17 -47.9776)
(110.668 2344.04 -50.795)
(406.41 2375.99 -43.8794)
(723.857 2377.79 -27.9017)
(997.754 2273.3 -23.1255)
(1236.84 2146.67 -70.72)
(1428.21 2023.64 -95.7501)
(1605.57 1941.1 -72.3937)
(1724.79 1918.48 -39.8311)
(1851.12 1888.63 0.137192)
(1947.88 1815 32.3193)
(2006.56 1772.17 -17.2395)
(2002.46 1693.81 -74.867)
(2011.62 1629.72 -75.9932)
(2102.79 1540.9 -49.5237)
(-449.805 1396.96 -31.9223)
(-337.123 1526.53 -32.2152)
(-317.494 1779.46 -32.783)
(-432.743 2082.79 -38.2053)
(-329.559 2291.23 -56.6189)
(-96.3603 2292.44 -53.1706)
(112.585 2347.79 -52.5725)
(386.792 2374.06 -39.2292)
(678.684 2389.57 -28.137)
(943.051 2334.14 -54.6103)
(1165.33 2217.28 -88.7971)
(1346.9 2058.77 -67.0614)
(1508.2 1947.88 -26.2905)
(1627.87 1922.41 2.55202)
(1763.62 1941.76 6.1665)
(1883.46 1902.32 -13.9519)
(1930.23 1834.26 -70.2162)
(1931.92 1740.82 -82.8085)
(1954.86 1701.9 -37.3575)
(2049.49 1638.13 -14.2721)
(-395.489 1402.48 -21.7613)
(-293.861 1497.9 -22.6945)
(-280.367 1746.43 -33.5043)
(-326.853 2058.44 -49.1483)
(-284.061 2258.68 -43.5153)
(-79.9857 2289.46 -50.8256)
(118.486 2349.32 -51.4582)
(374.412 2378.95 -43.4926)
(638.501 2396.24 -45.0181)
(878.948 2356.32 -66.7453)
(1102.78 2268.11 -58.2013)
(1297.34 2134.08 -41.5025)
(1473.75 2025.55 -14.487)
(1597.74 1969.05 -4.35829)
(1715.85 1957.82 -44.4718)
(1805.02 1902.85 -80.4707)
(1838.69 1832.43 -84.876)
(1871.97 1774.89 -44.45)
(1922.9 1765.07 15.0056)
(2000.62 1710.78 20.5797)
(-365.874 1427.13 -18.1031)
(-283.745 1497.83 -15.1876)
(-227.729 1696.65 -25.6276)
(-210.569 1992.56 -46.2875)
(-215.492 2211.83 -52.6778)
(-57.6583 2273.04 -50.9587)
(124.615 2341.66 -49.604)
(359.555 2378.13 -51.0155)
(605.127 2412.59 -52.6786)
(830.623 2369.91 -42.4648)
(1028.8 2284.93 -25.3419)
(1220.36 2178.61 -20.5677)
(1405.95 2090.95 -7.55537)
(1537.26 2008.47 -39.1036)
(1635.43 1947.93 -88.4581)
(1703.74 1888.64 -84.4147)
(1759.37 1848.42 -41.2449)
(1839.08 1845.1 9.84892)
(1894.04 1841.82 22.0836)
(1960.3 1783.17 5.31959)
(-341.613 1447.97 -18.9824)
(-285.575 1502.08 -15.3144)
(-207.425 1630.09 -18.9371)
(-142.18 1877.38 -9.26637)
(-80.2007 2142.02 -44.4435)
(-1.96196 2261.1 -51.6542)
(144.979 2335.62 -49.915)
(348.311 2367.6 -52.3205)
(561.803 2414.05 -50.8335)
(780.913 2407.6 -28.2414)
(988.102 2337.44 -23.0039)
(1183.57 2249 -26.5137)
(1360.03 2159.54 -41.5308)
(1475.39 2047.61 -69.9699)
(1589.92 1967.65 -73.6053)
(1671.55 1908.03 -34.1097)
(1737.55 1887.29 13.7579)
(1820.41 1881.48 21.2307)
(1852.58 1850.17 -4.24099)
(1904.15 1790.6 -23.1834)
(-313.848 1512.79 -22.0674)
(-276.891 1541.94 -18.6504)
(-209.781 1622.28 -20.3841)
(-105.782 1749.8 -24.0507)
(23.0444 1930.2 -32.51)
(111.335 2108.35 -41.0339)
(214.762 2244.87 -45.2178)
(371.247 2316.78 -47.1964)
(549.802 2373.75 -44.6627)
(735.929 2391.89 -30.5339)
(916.079 2363.64 -29.0598)
(1089.46 2308.31 -36.1086)
(1253.27 2243.7 -52.2223)
(1384.17 2143.4 -52.565)
(1512.54 2067.41 -36.0859)
(1614.35 2008.02 -8.51693)
(1687.51 1962.79 19.4816)
(1763.09 1936.21 5.43698)
(1785.08 1889.08 -22.8201)
(1840.02 1835.96 -20.4777)
(-613.643 -616.737 24.7997)
(-480.909 -664.751 37.1389)
(-410.87 -745.572 50.9365)
(-497.885 -944.319 25.1672)
(-352.607 -1159.77 3.30393)
(-102.547 -1158.17 -2.15951)
(119.215 -1154.51 -5.08001)
(398.529 -1170.84 -1.8046)
(702.696 -1147.36 -5.23012)
(934.897 -1028.06 6.47423)
(1105.22 -887.692 0.60458)
(1218.96 -758.253 10.7389)
(1292.01 -652.179 25.7725)
(1366.26 -575.211 25.2148)
(1387.57 -503.702 14.4879)
(1403.87 -448.979 11.5417)
(1410.2 -395.546 18.0085)
(1435.54 -366.934 20.0587)
(1454.34 -341.53 16.3492)
(1516.43 -313.722 10.0663)
(-658.147 -483.452 39.1747)
(-526.599 -533.451 46.2541)
(-648.708 -696.936 94.8646)
(-782.259 -990.428 16.3213)
(-422.017 -1201.07 -9.07407)
(-117.928 -1165.9 -4.50738)
(119.634 -1157.13 -4.98891)
(446.578 -1183.95 -1.43224)
(861.057 -1120.49 -2.09494)
(1139.27 -901.45 13.9132)
(1319.81 -710.536 8.61687)
(1428.37 -583.436 19.571)
(1497.88 -497.892 38.8796)
(1547.69 -440.208 36.02)
(1563.49 -379.346 22.1857)
(1536.58 -331.814 17.3662)
(1508.7 -293.16 23.2954)
(1508.49 -282.06 26.1422)
(1511.06 -282.902 22.1842)
(1547.71 -274.331 14.9796)
(-734.979 -404.699 51.4219)
(-672.289 -630.427 95.6997)
(-931.84 -938.69 27.0014)
(-850.853 -1102.9 -10.3006)
(-451.403 -1163.64 -6.08451)
(-124.207 -1158.2 -0.924821)
(135.995 -1153.26 -3.4515)
(483.617 -1163.6 -1.45302)
(961.853 -1011.72 13.7311)
(1219.43 -695.149 14.8367)
(1407.88 -541.015 23.6593)
(1580.35 -474.692 17.1397)
(1686.5 -408.949 19.7684)
(1767.72 -392.824 16.8819)
(1810.59 -351.414 13.0056)
(1804.6 -307.917 11.6983)
(1768.45 -270.784 11.6819)
(1714.62 -217.396 17.509)
(1644.99 -198.711 16.2592)
(1633.06 -204.296 7.84817)
(-931.265 -479.364 32.5819)
(-969.417 -784.993 28.3765)
(-1087.1 -865.923 2.55664)
(-1028.72 -1048 7.49634)
(-616.858 -1151.17 -6.73853)
(-227.623 -1143.87 1.50268)
(56.0808 -1141.26 -7.14269)
(364.821 -1138.67 -6.32747)
(944.059 -1059.83 7.04488)
(1802.04 -680.556 13.7796)
(1987.66 -663.949 15.8568)
(2094.86 -666.709 -1.85087)
(2135.24 -632.565 -9.34201)
(2155.63 -584.595 -3.9222)
(2156.3 -521.503 7.57967)
(2144.74 -443.378 19.8146)
(2115.32 -334.009 8.12281)
(2042.11 -213.589 -0.0165165)
(1922.12 -137.556 37.6496)
(1781.78 -98.2084 7.17454)
(-1147.58 -347.704 5.54707)
(-1198.55 -433.933 -5.79075)
(-1158.31 -475.126 -4.74556)
(-1150.11 -662.854 2.35017)
(1985.47 -683.135 -1.91224)
(2361.08 -487.363 -14.5291)
(2374.5 -478.967 -17.7202)
(2387.58 -461.463 -14.0135)
(2397.62 -436.141 -13.2442)
(2398.2 -407.288 -7.05544)
(2391.22 -376.915 -4.37562)
(2374.23 -339.633 -9.02151)
(2338.73 -296.807 7.38579)
(2286.84 -230.659 -4.37821)
(2219.13 -89.151 15.3035)
(1992.39 28.2205 15.8436)
(-1155.59 -102.837 -2.06183)
(-1165.58 -122.119 -5.30709)
(-1157.64 -127.891 -3.67554)
(-1138.73 -231.108 -3.64287)
(2380.04 -235.853 -21.2948)
(2397.44 -127.892 -16.2998)
(2397.47 -125.001 -15.3232)
(2396.52 -122.115 -13.7289)
(2393.41 -119.49 -12.9193)
(2387.74 -117.571 -11.714)
(2382.56 -111.805 -7.3643)
(2378.57 -101.177 -9.86506)
(2376.64 -86.327 -5.10521)
(2360.82 -66.5876 -2.85783)
(2349.56 -16.3127 4.74982)
(2194.44 103.183 19.5848)
(-1156.06 119.18 -11.2116)
(-1159.66 119.328 -11.6418)
(-1154.15 136.441 -8.61856)
(-1140.3 56.2087 -12.8933)
(2397.62 28.7728 -22.2421)
(2424.36 125.311 -16.6714)
(2427.57 118.959 -18.0404)
(2427.72 114.436 -15.6632)
(2428.06 110.501 -10.1031)
(2429.51 108.908 -7.99749)
(2431.47 108.829 -8.22793)
(2432.61 110.249 -9.1952)
(2433.51 115.489 -8.0254)
(2425.85 121.535 -5.52812)
(2419.54 139.842 -1.84111)
(2332.59 209.23 11.9627)
(-1174.04 398.786 -9.10848)
(-1188.38 447.33 -11.907)
(-1163.99 485.926 -10.8991)
(-1137.61 363.686 -14.1422)
(2421.51 323.889 -21.6359)
(2453.43 511.002 -24.4817)
(2465.31 495.073 -7.65431)
(2472.15 474.141 1.96268)
(2469.25 454.409 -7.69568)
(2471.84 429.166 -21.8056)
(2474.6 411.515 -15.7047)
(2471.62 394.318 0.16327)
(2474.34 379.895 6.20407)
(2472.95 367.26 0.0518721)
(2461.94 352.972 -1.46087)
(2413.9 371.414 8.81346)
(-1149.32 704.76 -14.4722)
(-1122.63 865.638 -17.5114)
(-1005.26 967.296 -5.82462)
(-1043.26 962.647 -6.17722)
(-707.385 2054.03 -7.7874)
(-235.677 2335.19 -21.8662)
(35.5633 2359.98 -21.1344)
(338.741 2390.77 -20.5421)
(1642.79 1930.23 -3.42692)
(2247.78 1170.17 35.9631)
(2335.77 1009.57 18.4782)
(2399.13 924.325 -41.96)
(2436.27 858.25 -45.7201)
(2440.57 795.608 -14.9194)
(2465.84 743.772 17.5004)
(2478.18 699.791 17.6416)
(2479.51 656.216 -4.46484)
(2496.2 622.531 -16.0964)
(2504.55 580.353 -9.45113)
(2469.33 564.461 7.13971)
(-1029.43 938.068 -10.407)
(-902.143 1142.92 -18.3689)
(-690.285 1219.89 -16.0835)
(-672.877 1801.91 0.164381)
(-487.612 2337.06 -17.9842)
(-124.505 2370.19 -18.4047)
(134.09 2399.68 -16.1935)
(524.134 2425.4 -25.6707)
(1118.54 2323.04 23.5442)
(1677.01 1776.78 42.8121)
(2003.51 1398.99 -124.3)
(2170.37 1289.41 -77.7109)
(2279.8 1202.82 15.3115)
(2321.35 1111.14 54.8419)
(2349.14 1034.41 35.1686)
(2404.67 971.749 -14.4096)
(2432.97 903.71 -34.3461)
(2440.92 852.187 -8.04609)
(2479.12 806.653 10.7833)
(2468.38 756.516 17.7133)
(-887.139 1106.79 -14.8834)
(-711.64 1321.92 -19.7462)
(-540.631 1408.5 -5.90355)
(-658.092 1976.76 -0.798324)
(-477.62 2347.74 -19.5204)
(-121.505 2366.87 -18.9072)
(126.513 2398.93 -18.0672)
(502.148 2430.17 -13.0384)
(971.723 2337.9 30.7854)
(1418.46 2124.91 -81.6207)
(1708.93 1778.55 -113.108)
(1908.8 1536.51 58.3461)
(2073.89 1454.67 109.083)
(2157.75 1378.62 44.9972)
(2217.96 1282.89 -23.8131)
(2285.3 1202.88 -50.8722)
(2339.61 1138.41 -13.5285)
(2353.17 1058.82 30.3025)
(2391.96 1014.45 23.1509)
(2422.08 939.574 14.0135)
(-755.957 1215.48 -3.75036)
(-582.937 1426.1 -4.40035)
(-473.339 1576.68 0.540379)
(-658.669 2077.35 -15.6995)
(-459.612 2358.8 -15.3538)
(-118.322 2364.33 -17.8332)
(120.48 2397.63 -15.2325)
(477.855 2434.44 -1.55682)
(895.415 2373.9 -25.6171)
(1278.02 2219.43 -63.9039)
(1527.45 1996.53 78.8002)
(1683.89 1738.14 144.145)
(1874.84 1606.37 45.6312)
(2052.33 1554.89 -49.4326)
(2097.41 1485.2 -56.5002)
(2131.64 1399.27 -7.56959)
(2204.79 1335.44 29.6808)
(2231.65 1247.15 36.9457)
(2290.75 1209.27 7.72083)
(2362.3 1116.75 -2.97367)
(-654.109 1292.73 11.8801)
(-504.817 1500.02 20.7479)
(-409.237 1678.39 11.9065)
(-626.934 2112.48 -14.577)
(-433.515 2367.67 -16.0659)
(-115.224 2360.4 -16.9267)
(115.885 2398.27 -11.66)
(454.242 2428.32 -8.13053)
(834.611 2407.01 -38.3207)
(1176.53 2279.8 13.978)
(1435.2 2105.17 114.586)
(1578.54 1925.55 63.5646)
(1787.16 1828.36 -52.7184)
(1981.26 1742.94 -70.6338)
(2014.26 1662.22 10.3233)
(2019.35 1555.53 72.0701)
(2078.24 1513.26 62.475)
(2138.19 1438.82 42.9619)
(2218.94 1397.22 -1.99427)
(2304.69 1288 -11.8911)
(-578.429 1367.94 13.5355)
(-451.015 1552.1 25.8088)
(-399.949 1760.02 16.625)
(-581.446 2134.5 -6.32722)
(-404.525 2367.8 -9.75637)
(-113.827 2353.91 -15.4001)
(112.714 2397.85 -11.5001)
(428.563 2430.84 -18.8175)
(778.957 2408.06 -17.3297)
(1083.62 2303.07 54.6457)
(1352.14 2154.99 61.6141)
(1521.65 2049.76 -28.827)
(1698.78 2003.58 -59.8386)
(1842.02 1875.71 -22.7058)
(1927.79 1774.93 75.6512)
(1970.13 1673.01 103.108)
(2027.27 1647.09 61.5154)
(2091.8 1594.68 11.5622)
(2130.66 1538.33 -13.9801)
(2209.9 1425.74 -3.38916)
(-508.223 1389.52 4.42253)
(-389.566 1570.56 16.2826)
(-361.9 1808.24 17.1161)
(-520.832 2136.26 7.2298)
(-374.667 2360.09 -8.1779)
(-108.683 2347.06 -11.6512)
(111.639 2398.03 -11.8953)
(409.224 2434.35 -11.4939)
(729.209 2427.35 14.9655)
(1009.7 2326.03 42.6881)
(1256.66 2204.94 -1.89001)
(1450.06 2082.58 -46.757)
(1629.31 1999.4 0.194434)
(1741.22 1943.97 61.2289)
(1856.12 1887.02 90.1929)
(1946.37 1810.62 85.1804)
(2024.58 1773.62 26.2543)
(2040.97 1718.43 -9.05203)
(2041.66 1652.26 4.45013)
(2124.66 1545.42 19.6004)
(-453.749 1401.5 2.32893)
(-338.756 1540.96 10.5891)
(-316.398 1805.7 16.1456)
(-446.709 2124.62 24.7988)
(-338.23 2342.23 -9.56504)
(-97.8246 2340.8 -14.8564)
(112.397 2397.94 -12.0715)
(390.863 2429.81 -0.394296)
(683.664 2438.14 20.5938)
(951.897 2379.94 1.60833)
(1176.85 2268.83 -35.4323)
(1368.34 2114.6 -7.80673)
(1525.87 1996.3 59.1295)
(1642.46 1936.91 81.2523)
(1765.65 1944.44 69.6094)
(1888.4 1924.74 43.7175)
(1963.86 1867.79 12.2807)
(1972.12 1782.22 20.3191)
(1975.07 1707.7 59.4658)
(2060.22 1639.78 54.194)
(-398.69 1405.89 8.97962)
(-292.558 1507.23 15.741)
(-279.407 1769.69 15.4532)
(-341.056 2099.15 15.0643)
(-295.927 2307.21 11.6344)
(-83.9823 2335.99 -8.20406)
(116.231 2397.81 -9.90339)
(375.758 2430.9 2.13798)
(642.442 2442.74 3.70345)
(885.206 2405.93 -19.9149)
(1116.65 2320.58 -3.55656)
(1312.21 2188.13 31.5547)
(1483.23 2057.34 61.4388)
(1610.73 1982.93 57.2593)
(1719.75 1981.04 12.8276)
(1827.33 1944.83 4.49605)
(1882.06 1877.75 29.5267)
(1894.78 1792.92 75.2655)
(1931.08 1766.59 102.054)
(2012.64 1715.11 88.1373)
(-367.853 1430.51 11.445)
(-281.502 1504.41 17.681)
(-227.275 1716.8 22.0879)
(-216.723 2031.34 11.0697)
(-230.293 2256.94 0.0562071)
(-64.0398 2318.99 -5.47018)
(121.349 2389.69 -6.26394)
(361.797 2427.34 -4.53362)
(608.9 2458.22 -7.38647)
(835.634 2412.21 4.11515)
(1041.93 2333.32 40.463)
(1228.45 2219.4 47.5355)
(1411.74 2115.81 50.8605)
(1554.2 2041.77 17.3944)
(1663.84 1980.26 -14.3038)
(1741.92 1924.27 14.2232)
(1781.6 1867.77 75.1661)
(1842.82 1843.51 107.059)
(1903.19 1848.85 100.461)
(1976.25 1798.26 80.0176)
(-343.255 1450.63 8.37116)
(-284.287 1506.85 13.6382)
(-204.506 1645.03 16.1316)
(-136.277 1906.48 55.1359)
(-95.3985 2188.82 28.0296)
(-13.6207 2307.6 5.7629)
(139.177 2383.18 -0.315767)
(347.931 2416.17 -3.07406)
(566.347 2463.41 -2.74445)
(788.829 2448.15 22.9174)
(998.229 2376.28 38.4644)
(1190.04 2279.45 25.027)
(1371.24 2192.78 15.0853)
(1498.56 2085.79 0.762611)
(1609.88 1992.32 9.99582)
(1678.74 1926.4 59.2769)
(1742.84 1892.59 95.0016)
(1825.8 1887.32 93.3131)
(1872.32 1869.62 75.4922)
(1926.74 1809.96 61.4151)
(-316.284 1514.36 2.93157)
(-277.974 1544.3 6.04427)
(-208.334 1630.39 3.8243)
(-103.287 1770.74 14.9548)
(23.5661 1964.32 27.723)
(103.966 2152.92 24.7856)
(206.418 2294.78 16.6491)
(367.278 2366.16 10.4952)
(551.125 2424.33 13.2064)
(738.947 2434.43 28.7213)
(921.561 2401.71 29.6095)
(1095.95 2342.79 15.7968)
(1264.56 2279.05 8.61616)
(1396.44 2177.02 15.494)
(1517.8 2087.8 34.1864)
(1618.97 2017.79 59.5088)
(1694.16 1971.99 84.147)
(1775.26 1951.42 75.3647)
(1804.8 1909.02 59.955)
(1856.41 1849.81 58.8321)
(-622.482 -621.57 24.1784)
(-492.808 -669.663 37.8151)
(-440.011 -770.886 63.7015)
(-535.079 -990.006 28.6778)
(-361.563 -1193.51 9.45387)
(-102.465 -1183.84 1.72219)
(119.65 -1179.27 -5.6235)
(402.465 -1197.27 -3.08977)
(711.36 -1174.01 -4.85697)
(942.076 -1049.81 9.34766)
(1116.19 -908.493 6.43874)
(1231.92 -777.124 12.444)
(1301.59 -666.675 26.2885)
(1377.47 -588.602 29.629)
(1404.6 -516.901 17.1416)
(1419.74 -461.699 11.0696)
(1421.54 -407.413 13.6338)
(1444.46 -375.376 14.9526)
(1461.25 -347.98 11.7221)
(1521.77 -320.871 6.34927)
(-665.01 -490.743 39.7773)
(-544.212 -548.713 51.3419)
(-740.832 -763.183 99.2714)
(-798.971 -1064.7 19.1309)
(-424.785 -1219.65 1.35426)
(-114.581 -1188.32 1.96932)
(121.149 -1181.89 -4.91415)
(452.109 -1208.94 -1.51706)
(872.985 -1143.12 -0.700003)
(1150.45 -914.692 14.8835)
(1335.15 -718.861 18.0082)
(1447.29 -591.56 21.4379)
(1517.23 -498.894 42.7646)
(1571.7 -442.605 45.9292)
(1595.83 -387.067 28.5754)
(1576.65 -342.143 19.5575)
(1541.79 -304.499 21.1466)
(1529.02 -283.532 20.0411)
(1527.64 -283.842 16.1906)
(1557.08 -277.875 10.6046)
(-752.16 -422.711 58.6394)
(-744.284 -717.448 94.7123)
(-969.718 -965.363 13.909)
(-846.022 -1139.63 9.80615)
(-451.425 -1179.28 5.13953)
(-121.805 -1180.3 5.49747)
(136.45 -1178.48 -2.61701)
(489.532 -1187.32 0.0394455)
(974.222 -1028.97 17.2407)
(1239.94 -706.556 14.3505)
(1422.99 -535.578 30.3535)
(1614.46 -486.416 26.4841)
(1734.61 -419.039 24.1165)
(1819.81 -397.029 24.7254)
(1866.11 -357.8 20.415)
(1864.73 -312.576 17.0057)
(1829.1 -276.519 14.3379)
(1772.14 -222.366 14.4995)
(1692.54 -195.904 12.258)
(1661.66 -206.397 2.84268)
(-968.242 -514.73 26.1013)
(-1042.05 -807.437 5.63153)
(-1125.64 -860.868 -18.5236)
(-1053.05 -1080.03 20.8713)
(-614.591 -1187.23 8.24356)
(-226.146 -1170.53 8.932)
(55.8346 -1164.31 -3.67081)
(366.565 -1164.16 -4.1962)
(957.874 -1080.79 9.12052)
(1850.97 -703.518 21.7931)
(2041.51 -659.159 24.3048)
(2157.41 -672.58 16.8916)
(2209.18 -647.416 5.14106)
(2231.98 -602.508 3.3567)
(2234.45 -540.37 10.2444)
(2224.88 -462.755 25.172)
(2200.8 -353.97 19.3338)
(2129.19 -228.174 3.58466)
(2011.01 -141.076 38.5645)
(1850.27 -99.4947 8.64148)
(-1184.09 -365.528 2.37646)
(-1221.23 -437.692 -9.98009)
(-1178.13 -472.392 -4.17272)
(-1185.37 -669.868 -1.03122)
(2019.15 -720.298 -0.386147)
(2423.62 -492.765 -7.91184)
(2441.51 -486.454 -10.7439)
(2459.07 -469.683 -8.17369)
(2473.52 -445.37 -9.23636)
(2479.18 -416.128 -6.32233)
(2473.91 -388.351 -4.264)
(2459.46 -352.656 -10.8694)
(2427.01 -312.303 7.99481)
(2372.77 -254.917 -1.08632)
(2319.39 -116.186 18.846)
(2090.25 19.7902 19.588)
(-1182.79 -107.801 -3.22583)
(-1189 -121.563 -5.20165)
(-1179.6 -127.75 -2.32679)
(-1160.32 -230.722 0.618853)
(2409.79 -237.966 -11.979)
(2462.89 -129.291 -10.7734)
(2468.5 -127.911 -8.72028)
(2472 -124.438 -7.40052)
(2470.99 -121.372 -6.60981)
(2467.01 -119.261 -6.36521)
(2461.74 -115.258 -2.56302)
(2457.75 -106.175 -4.68105)
(2457.32 -92.9551 -1.23048)
(2444.39 -76.7206 1.19868)
(2438.67 -34.3531 9.14583)
(2299.8 85.0707 24.3482)
(-1181.1 116.299 -9.38617)
(-1182.01 120.245 -6.29205)
(-1177.36 137.152 -3.67906)
(-1164.21 58.1675 -6.80071)
(2434.4 29.8203 -14.4787)
(2495.95 124.637 -6.68591)
(2503.86 119.179 -9.86062)
(2507.9 113.661 -8.92147)
(2511.1 110.013 -3.66961)
(2514.08 108.208 -2.58156)
(2517.26 106.669 -3.98372)
(2519.75 106.762 -6.38414)
(2520.93 110.049 -6.11603)
(2516.03 114.972 -4.16723)
(2511.82 129.382 -0.248208)
(2440.35 191.522 13.4154)
(-1198.43 398.47 -5.33175)
(-1209.02 446.72 -4.25013)
(-1185.05 483.597 -4.51334)
(-1163.23 366.588 -9.29737)
(2466.26 327.204 -11.3691)
(2529.33 515.424 -17.0282)
(2539.1 496.996 -4.31653)
(2552.58 476.312 11.2042)
(2558.22 457.197 6.86088)
(2559.73 434.137 -11.9504)
(2559.92 412.479 -16.186)
(2555.5 396.731 -2.24468)
(2558.78 379.923 11.4425)
(2561.02 368.773 6.59091)
(2552.27 352.65 1.9269)
(2515.97 363.223 9.27822)
(-1176.79 708.078 -11.8459)
(-1147.96 865.192 -10.2918)
(-1035.02 961.158 1.84578)
(-1082.69 946.195 -14.5281)
(-708.344 2007.07 -12.3377)
(-233.338 2393.73 -14.2986)
(36.087 2419.13 -12.9093)
(335.372 2450.66 -12.6037)
(1868.9 1782.71 16.3603)
(2321.09 1148.07 23.8582)
(2427.93 1012.41 44.4918)
(2479.19 934.431 -11.2573)
(2521.62 865.77 -40.0847)
(2526.66 804.576 -22.2684)
(2545.67 749.984 18.7403)
(2570.47 706.696 29.3818)
(2571.71 667.493 9.59849)
(2579.16 630.446 -11.0398)
(2593.67 587.52 -10.2733)
(2567.24 563.706 8.38244)
(-1055.8 942.614 -4.89247)
(-924.091 1145.72 -4.67844)
(-717.574 1224.43 -7.90558)
(-718.139 1816.89 1.21303)
(-485.332 2397.65 -14.4774)
(-122.286 2436.34 -14.0355)
(133.097 2467.73 -8.50895)
(527.599 2501.42 -20.4186)
(1135.09 2319.74 26.1539)
(1757.58 1780.11 110.256)
(2100.85 1416.29 -84.6611)
(2235.74 1280.25 -83.7838)
(2329.74 1198.18 2.86551)
(2405.94 1119.82 67.5317)
(2449.78 1053.21 66.0748)
(2500.53 994.428 9.90793)
(2523.81 918.261 -34.7677)
(2520.72 861.312 -14.9515)
(2556.56 818.418 17.8991)
(2561.45 761.251 25.4368)
(-911.869 1114.64 -8.20823)
(-725.956 1328.8 -3.188)
(-542.603 1403.56 3.19989)
(-663.247 2012.08 7.25743)
(-479.845 2414.8 -14.5309)
(-120.755 2441.44 -12.8785)
(127.383 2474.18 -10.4957)
(504.794 2506.54 -7.24181)
(995.887 2413.56 48.0519)
(1452.15 2154.87 -72.1149)
(1757.29 1785.46 -148.588)
(1948.99 1521.93 30.2338)
(2125.91 1453.72 139.771)
(2245.16 1403.69 99.7973)
(2323.23 1319.25 3.48349)
(2371.31 1220.61 -52.9622)
(2421.79 1157.13 -28.1146)
(2444.4 1079.43 39.6127)
(2482.58 1033.05 47.3969)
(2514.17 954.104 26.6988)
(-778.935 1226.94 -4.96174)
(-598.038 1436.63 -2.60484)
(-495.605 1596.47 6.32971)
(-675.318 2128.42 0.361794)
(-462.907 2431.14 -11.603)
(-117.631 2444.12 -12.6232)
(121.065 2477.57 -8.45873)
(481.737 2518.19 7.74714)
(916.54 2453.31 -14.7964)
(1297.66 2267.54 -82.9215)
(1551.82 2009.91 41.5713)
(1732.93 1752.13 180.53)
(1913.78 1603.3 122.89)
(2091.5 1565.24 -20.8606)
(2166.13 1498.92 -72.7773)
(2201.88 1416.67 -25.0546)
(2291.71 1356.76 48.593)
(2331.33 1273.29 71.4632)
(2375.08 1230.16 23.866)
(2442.87 1131.81 0.243108)
(-670.992 1301.04 7.1222)
(-513.826 1516.98 16.9151)
(-431.714 1721.33 17.0825)
(-653.315 2182.6 -5.42003)
(-439.246 2445.03 -14.55)
(-114.381 2443.04 -12.1709)
(117.644 2482.27 -6.42293)
(460.866 2521.63 2.43009)
(849.026 2490.09 -42.4816)
(1192.52 2334.69 3.88685)
(1470.08 2168.91 140.503)
(1621.6 1960.55 133.465)
(1792.21 1808.63 -26.452)
(1974.56 1725.54 -95.9308)
(2059.86 1666.2 -14.4962)
(2092.26 1575.63 89.765)
(2160.54 1536.58 104.711)
(2205.99 1463.34 47.1864)
(2282.47 1414.79 -8.87505)
(2375.87 1306.11 -7.55355)
(-594.012 1378.09 12.6159)
(-459.418 1575.88 24.9716)
(-414.148 1812.07 16.477)
(-612.865 2209.62 -5.15311)
(-409.818 2451.75 -12.6546)
(-112.367 2439.23 -12.2324)
(116.065 2484.09 -8.21884)
(436.685 2522.11 -15.2654)
(789.718 2488.88 -23.9951)
(1102.64 2389.76 61.4085)
(1403.63 2257.09 94.7335)
(1570.68 2116.73 -14.7308)
(1714.46 2001.42 -87.1491)
(1845.36 1865.24 -19.3843)
(1970.74 1779.92 118.484)
(2016.06 1702.73 140.294)
(2058.29 1673.59 71.437)
(2129.02 1610.76 -19.4274)
(2180.86 1564.54 -19.5389)
(2274.25 1449.48 7.21518)
(-522.909 1405.96 6.32594)
(-399.647 1602.33 15.5133)
(-376.341 1865.37 10.9899)
(-553.719 2215.16 1.5391)
(-382.415 2448.04 -12.5376)
(-109.293 2432.69 -9.96827)
(113.662 2485.57 -10.4673)
(415.457 2524.63 -16.7697)
(734.07 2502.61 13.7948)
(1033.73 2423.03 55.1695)
(1309.33 2317.41 1.27912)
(1490.3 2165.75 -67.4992)
(1654.76 2056.76 -9.54922)
(1759.4 1980.43 110.978)
(1894.14 1909.82 161.027)
(1976.68 1833.36 105.29)
(2056.1 1787.86 4.97294)
(2086.39 1737.27 -25.8122)
(2090.09 1682.71 17.5835)
(2177.28 1569.93 38.4124)
(-468.793 1417.47 4.88794)
(-350.652 1580.19 9.22143)
(-328.134 1867 9.85)
(-480.354 2206.51 19.2362)
(-349.003 2435.12 -17.221)
(-101 2427.55 -13.6565)
(113.067 2487.64 -11.553)
(397.813 2521.84 -4.26753)
(692.78 2525.86 20.3171)
(974.204 2471.22 1.9743)
(1204.95 2356.01 -48.5551)
(1401.04 2191.94 -20.3385)
(1558.62 2076.16 83.7493)
(1690.06 1987.57 124.458)
(1816.22 1972.65 100.689)
(1929.13 1951.91 20.8919)
(2018.03 1904.6 -5.81254)
(2040.58 1835.43 40.7315)
(2028.38 1749.43 95.6088)
(2106.23 1673.43 73.9905)
(-414.749 1418.54 10.3613)
(-308.024 1540.72 15.8631)
(-291.45 1831.17 10.0096)
(-378.222 2186.49 10.8496)
(-311.326 2405.58 3.9285)
(-88.4523 2425.5 -10.5458)
(115.075 2488.43 -10.7392)
(380.861 2523.88 3.42104)
(654.326 2532.61 0.225094)
(901.448 2492.92 -32.2097)
(1140.73 2402.17 -19.3185)
(1339.53 2274.29 50.6315)
(1517.75 2141.81 97.1909)
(1658.13 2029.1 68.2946)
(1762.07 2025.27 2.51035)
(1870.91 2002.41 -7.82127)
(1950.16 1949.17 52.0164)
(1967.01 1859.03 129.738)
(1981.98 1813.37 129.858)