/*--------------------------------*- C++ -*----------------------------------*\
  =========                 |
  \\      /  F ield         | OpenFOAM: The Open Source CFD Toolbox
   \\    /   O peration     | Website:  https://openfoam.org
    \\  /    A nd           | Version:  9
     \\/     M anipulation  |
\*---------------------------------------------------------------------------*/
FoamFile
{
    format      ascii;
    class       volScalarField;
    location    "0.0065";
    object      p;
}
// * * * * * * * * * * * * * * * * * * * * * * * * * * * * * * * * * * * * * //

dimensions      [1 -1 -2 0 0 0 0];

internalField   nonuniform List<scalar> 
9720
(
2.75844e+06
2.59124e+06
2.4848e+06
1.8668e+06
1.58736e+06
1.52618e+06
1.48242e+06
1.28225e+06
1.02754e+06
807710
654561
568521
534474
548028
581037
621009
671666
723075
769444
821182
2.59449e+06
2.46981e+06
2.04965e+06
1.26049e+06
1.24977e+06
1.43258e+06
1.44823e+06
1.1999e+06
811881
517696
375873
342514
358411
398892
462896
534140
602227
664524
719909
776193
2.48111e+06
2.10654e+06
1.09207e+06
818186
1.1586e+06
1.45423e+06
1.47461e+06
1.17845e+06
649577
342868
269416
284421
315549
365078
439687
539444
648646
729882
798864
834611
1.86539e+06
1.25404e+06
810400
646715
922876
1.43364e+06
1.55711e+06
1.34371e+06
601094
165210
175760
202041
240394
285116
341558
426275
551899
702697
844264
885045
1.56206e+06
1.208e+06
1.11563e+06
912525
125634
191706
207952
222405
237530
256425
281480
317132
376142
493820
675184
856691
1.47962e+06
1.37859e+06
1.40759e+06
1.39038e+06
255783
257242
253076
252415
253392
256355
261944
272154
295254
346720
444734
684169
1.43306e+06
1.39167e+06
1.42258e+06
1.50831e+06
275306
254439
251213
249191
246958
246678
247551
251110
259886
278947
319960
491745
1.23692e+06
1.14968e+06
1.12715e+06
1.29567e+06
225538
166194
175363
182258
186791
191151
195599
201329
210223
224721
247023
351045
988678
770028
608474
539345
122629
243090
264866
213241
25976.7
42350.7
67994.7
92693.6
112420
126326
139315
151907
163649
177112
193139
257427
777448
490895
321347
157873
182852
245528
242663
158644
45276.9
19396.8
25067.7
39201.2
58041.2
77568.5
95551.6
112338
126678
138971
151511
195231
630317
361193
262293
169781
198066
240748
239208
168747
71011.6
27023.8
16422.7
18457.5
28341.5
45223.9
63138.8
78868.4
92702.5
106732
118616
153887
546607
330839
279187
197114
211832
239813
237031
176051
94797.9
42974.4
19996.8
16899.6
18825.9
26426.6
38486.9
51539.7
65657.5
81731
93862.4
122256
516761
346988
309013
234829
226742
241062
235758
180983
113552
61969.6
31572.2
19915.7
18983.9
20089.2
24368.3
33970.3
47836.9
64188.9
75367.4
97795.1
532838
387518
354895
277172
246107
244749
236383
185631
126838
80974.1
48975.1
29330.2
20943.5
20621.9
22831.9
28764.5
39116
51198.8
60652.4
80647.7
569033
452700
425346
330128
271364
251383
238405
190508
139301
98376.5
66676
42242.9
26899.8
23496.1
24957.7
29527.2
34694
41354.9
49573
68838.8
611159
527801
523589
408118
306794
262593
243238
196764
151831
114820
82509.5
55801.8
37888.4
30567.9
29923.6
31334.4
33556.6
37839.7
44575.3
62324.6
663214
598659
636389
527114
363583
286006
253361
206354
163716
129131
96906.5
70499.8
52375.1
42036
36124.9
34030.6
34820.7
38520.8
44646.5
58986.5
715243
659814
720447
676235
473833
336179
273848
221652
177604
141785
111696
87344.9
69092.9
54885.9
44112.1
39077.9
39312.8
42039.2
46787.7
57310.6
760693
713886
788502
817513
647613
432607
315874
244590
194419
154878
124302
100116
80508.9
64847.2
53228.6
46903
45942.8
47629.7
50155.6
57975.2
808041
766428
822216
864146
825396
663263
484285
348682
260618
200441
160961
129591
104010
86033.8
73686
66175.4
61912.2
59347.7
59577.4
63730.9
2.69628e+06
2.51786e+06
2.38772e+06
1.74859e+06
1.49721e+06
1.47353e+06
1.43846e+06
1.2425e+06
991030
775229
624905
540614
504734
516882
550083
590841
640438
691597
738622
791769
2.52221e+06
2.41988e+06
1.79619e+06
1.13666e+06
1.20821e+06
1.40047e+06
1.41261e+06
1.16733e+06
783579
493605
355428
321240
334045
370229
431023
502348
570881
633032
689599
748130
2.40749e+06
1.86765e+06
957846
756698
1.15084e+06
1.42807e+06
1.44409e+06
1.14895e+06
624847
321194
248972
263299
292969
338358
406310
499592
608177
692215
763470
806577
1.76406e+06
1.14424e+06
747120
594442
957551
1.40079e+06
1.51357e+06
1.31037e+06
588648
153939
162122
184359
218595
259380
310469
387380
505487
650780
790285
852664
1.47763e+06
1.15353e+06
1.07675e+06
851403
121521
180996
194799
206137
218369
234262
255993
287569
339181
442697
610435
803784
1.42622e+06
1.34171e+06
1.37747e+06
1.35504e+06
238789
243367
238806
235004
235027
236249
239810
247683
266517
309581
393557
620946
1.38821e+06
1.3587e+06
1.39601e+06
1.47038e+06
257857
240962
236465
232529
229354
227360
227539
229649
236272
251468
284411
435328
1.19748e+06
1.1238e+06
1.10796e+06
1.26649e+06
210902
155798
163284
169399
173072
175689
178390
182520
189964
202370
220629
307912
953546
748388
593190
539396
117630
226322
246585
196993
25333.3
39104.2
62627.9
84694.4
101681
113336
124847
136515
146852
158089
171435
225055
743564
470006
307007
148702
172120
231651
228789
148086
41869.3
17576.5
22569.3
34439.3
50374.8
67993.4
84541.1
99466
111936
122689
133923
171423
599743
338785
239212
157260
185620
227087
224766
156530
65071.1
24090
14228.2
15725.5
24264.7
39206.2
54901
68386.8
80434.3
93521.5
104508
135000
518892
307274
253615
178923
196466
223306
221283
163260
86041
37311.9
16915.7
14541.4
16271.3
22899.5
33212.5
44364.1
56804.5
71271
82075
107100
488067
320724
281621
211047
207976
223524
218194
167020
102359
53801.5
26751.3
17072.2
15968.5
16775.5
20665.4
28986.8
40829.4
54557.3
65020.1
86193.3
502266
357601
324668
248608
223202
225287
217806
170078
113963
71235.4
42112.8
24723.3
17260.4
17011.8
18589.7
23206.6
31607.1
42774.1
52588.7
71562.9
537483
420323
390439
295686
244054
229504
218557
173378
125249
87252.1
57709.2
35877.4
22389.2
19152.1
20054.2
23557.3
28142
35268.9
43061.4
60626.1
578647
494855
484368
366131
274485
237762
221538
178189
136684
101824
71728
47946.5
32114
24923.8
23962.5
25299.6
27960.7
31902.9
38032.7
54226.4
627542
563886
595200
479028
323266
256051
229020
186052
147047
114621
84775.6
61504.4
45055.9
34682.3
29719.4
28415.1
29155.7
32417.9
37770.5
50776.5
676373
621730
677493
624398
421340
297246
244968
198731
158509
126145
99044.9
77298.8
59758
46845.2
38217
33244.2
33258.6
35301.2
39391.2
49785.7
720508
674261
745375
761608
584245
380232
278535
217318
172439
137975
110886
89017.5
70852.8
57265.6
46850.4
40517.1
39098.6
40200
42645.9
50717.3
768214
727577
784414
826821
772752
600289
427135
305187
227946
177042
142618
114996
92873.2
77020.1
65292.9
57938.7
53463.6
51498.5
52045.8
56549.5
2.70049e+06
2.52198e+06
2.40876e+06
1.69087e+06
1.44536e+06
1.45496e+06
1.42554e+06
1.22869e+06
979429
764479
612805
530779
493198
503970
536082
577352
625786
676889
724586
778169
2.50538e+06
2.5186e+06
1.59052e+06
1.04068e+06
1.18975e+06
1.39777e+06
1.40207e+06
1.1526e+06
772966
487642
347726
313541
325448
359128
416408
486472
555531
619349
676720
735070
2.42085e+06
1.64629e+06
850059
712311
1.14794e+06
1.42131e+06
1.43012e+06
1.13047e+06
609256
316066
240386
253570
284987
330629
394406
482536
592180
678706
754762
800378
1.68459e+06
1.02416e+06
689751
549640
949263
1.3914e+06
1.49703e+06
1.29221e+06
559007
148895
156651
176314
208171
247827
297917
373179
490719
637036
785779
853411
1.41022e+06
1.12161e+06
1.06806e+06
828857
110002
174741
187463
197076
207665
222400
243811
275622
323382
417443
581204
794983
1.40045e+06
1.33427e+06
1.36533e+06
1.34412e+06
231741
237634
232064
227391
227416
228795
232247
239315
255449
292253
364888
590785
1.37318e+06
1.35207e+06
1.38561e+06
1.45361e+06
251023
235191
229557
225086
221901
221213
221684
223642
229405
241522
267620
402343
1.18392e+06
1.11727e+06
1.10321e+06
1.25177e+06
203503
151499
157568
162919
166927
169793
172981
177100
184219
195403
210406
283732
940915
746077
595588
545822
106312
219620
238553
191205
24010.7
38012.1
60458.6
80524.8
96401.9
107897
118823
130884
141894
152866
164414
208927
730156
466660
307066
140276
165967
227257
223693
143085
38411.3
15937.6
20870.6
31946.5
46346.8
62826.1
79119.9
93852.2
107185
118454
128929
161601
581923
325795
224985
147312
178764
222235
218877
150228
60019.8
21468.2
12929.8
14296.7
21699.2
34900.9
50103.2
64181.3
76561.8
90258.7
101423
128559
502812
293037
235926
165065
187989
217942
214982
156474
79641.8
33285.5
15110.9
12915.7
14286.8
20348.3
30439.4
41344.4
53484.2
68073.7
79454.6
102147
471163
305569
265276
193682
197690
218071
212113
160887
95667.1
48434.1
23604.5
15035.1
13919.3
14615.9
18263.9
26176.2
37380
51403.1
62432.6
82134.7
484570
340575
309089
230070
210764
219563
212257
164143
107455
65285.5
37583.6
22207.3
15295.2
14285
15415.4
19194.7
27432.1
39390.8
49380.4
67431.4
519778
400662
372669
275610
229998
223062
213185
167663
118504
81350.4
52923.4
32952.3
19887.3
15896.1
16427.2
19469
24251.7
31473.1
39086.3
56115
563415
476180
463769
342532
259164
229721
215736
172209
130323
95718
66922.9
44242.5
28703.5
20964.7
20023.6
21523.8
24274.9
27918
33645.4
49682.3
612497
548924
579731
453449
302821
244078
221839
179408
141038
108776
79575
56968.5
40772.5
30456.9
25829.6
24716
25321.5
28272.1
33689.4
47117.5
663311
611719
669017
605626
390349
277783
233944
190181
151561
120011
93803.3
72496
55663.8
43091.3
34244.9
29192.2
29075
31076.2
35500.5
46355.7
709415
667412
743974
760668
552830
348517
259754
204868
163082
130621
105362
84431.4
67287.1
53555.8
42595.1
36081.1
34918.8
36303.9
38984.4
47224.8
757822
720949
786550
834135
768587
569437
392363
278457
209031
164477
133722
108209
87870.8
72421.1
60493.2
53292.8
49812.2
48035.2
48467.5
52909.9
2.72083e+06
2.54382e+06
2.39692e+06
1.63824e+06
1.40605e+06
1.44465e+06
1.42327e+06
1.22399e+06
971635
755882
603572
525337
489123
500332
533493
577423
626844
678985
727336
779677
2.52027e+06
2.57458e+06
1.4468e+06
977766
1.17692e+06
1.39677e+06
1.40345e+06
1.15056e+06
765461
481983
337824
305324
317843
352422
410572
483282
555015
621491
680509
737210
2.40417e+06
1.46993e+06
789963
690691
1.14187e+06
1.41927e+06
1.43004e+06
1.12976e+06
601921
312652
229993
241494
274427
323830
389643
477605
591553
682700
760617
806080
1.61187e+06
941619
666304
534152
895655
1.39424e+06
1.49592e+06
1.28916e+06
526725
141732
148736
166905
196272
234406
282612
354947
472056
625287
791776
860694
1.35823e+06
1.11376e+06
1.08577e+06
865379
114779
168222
181725
191103
200180
212215
230344
258786
301703
385399
544791
782826
1.38415e+06
1.33725e+06
1.36754e+06
1.34081e+06
227413
231387
226321
222221
221302
222033
224176
228703
240443
270213
330520
549150
1.36625e+06
1.35064e+06
1.38266e+06
1.44795e+06
246306
228556
223686
219408
216377
214850
214851
215685
219155
227474
246435
361398
1.17697e+06
1.11178e+06
1.0968e+06
1.24599e+06
199115
145553
151567
156353
160609
163821
166889
170245
175451
183672
195098
254389
935612
741095
586582
526243
107726
221323
237753
189643
22673.4
34967.7
56295.9
75645.8
91375.3
103347
113456
124430
135120
145220
154806
189941
727559
467400
305692
137524
165727
227655
222543
141518
37364.2
14765.6
19157.1
29232.4
43003.3
58402.4
74204.3
88691.9
102146
114298
123100
149590
575179
321878
219571
144331
179023
222323
217976
148528
58577.9
20172.9
11971.4
13182.1
19618
31135.5
45603.9
60273.1
73843.1
87673.4
98195.9
121647
497384
287796
228687
161193
187991
217708
214128
154164
77762.5
31582.5
13968.3
11866.2
13093.6
18083.9
27721.2
39499
51647.6
65556.5
76476.6
97347.3
464297
299646
259318
188622
196783
217488
211402
159168
93467.4
46054.4
21487.5
13731.8
12146
12937
16960.1
24901.1
35588.7
48267.6
59146.8
78485.7
475907
332854
305423
224437
208315
218500
211258
163010
105268
61478.8
34029.9
19975.2
13631.3
12608.1
13417.1
16910.9
24556.1
35779.6
45943.1
64092.7
509144
389395
368022
268738
225473
221221
212006
166638
115192
76940.7
48936.9
30327.1
18524.1
13838.3
13993
16054
20057.6
27166.1
35327.4
52548.2
555065
464304
453339
333963
252569
226232
213714
170546
125762
90846.1
62970.5
41857.2
26750.5
18244.1
16579.3
17578.1
20295.3
24451.9
30105.5
45793.8
604401
538872
568976
441832
293136
237865
218096
175966
136142
103691
75629.6
53584.2
37288.1
26735.8
21625.4
20773
21756.7
25098.2
30429.2
43605.8
655846
605700
665969
592612
369639
266299
227041
184171
146112
115361
89072.2
67635.6
50601.7
38661.5
29728.2
25594.5
25840.9
27989
32259.2
42960.6
703849
664842
747074
767015
522699
324381
246226
195902
156008
124352
99916.4
79170.1
62385.3
49233.4
38465.3
32343.5
31707.2
33076.9
35643
44025
754818
720666
795973
848804
765391
538267
360199
256387
193191
152660
125474
101601
82878.5
68275
56694.7
49553.2
46678.5
44869.8
45414.8
50428.8
2.76044e+06
2.58422e+06
2.38013e+06
1.60317e+06
1.3879e+06
1.44413e+06
1.42671e+06
1.225e+06
968032
750092
595242
521577
488546
500643
534725
582915
634944
688295
737021
786866
2.55898e+06
2.60475e+06
1.36243e+06
943767
1.18734e+06
1.40711e+06
1.41118e+06
1.15369e+06
760723
477106
328494
297969
312244
349020
408753
485936
562614
631725
692072
745647
2.39189e+06
1.38385e+06
765993
682918
1.16587e+06
1.42889e+06
1.43586e+06
1.13281e+06
594773
308264
221040
231638
265102
316075
384189
474300
594008
691341
773695
817378
1.57744e+06
911210
652004
522884
909186
1.3988e+06
1.5e+06
1.29576e+06
536099
136757
143626
160991
188941
225504
271449
340853
458168
616211
800657
874241
1.33852e+06
1.10744e+06
1.07863e+06
848931
104020
162248
176454
186157
195224
206471
222849
248710
288738
367055
522868
778373
1.37777e+06
1.33599e+06
1.36697e+06
1.34391e+06
218216
223215
219144
215699
215587
216325
218241
221767
231363
257875
311395
522691
1.36463e+06
1.35162e+06
1.38263e+06
1.44539e+06
234908
220090
216302
212806
210627
209524
209565
210262
212958
219731
235374
338033
1.17504e+06
1.10958e+06
1.09352e+06
1.24427e+06
190331
138633
145502
150677
155361
159150
162300
165593
170049
176864
186811
238514
933039
735647
577028
516655
105690
220649
235528
186014
21638.6
32873.7
52752.4
71671.8
87412.4
99450.4
109885
120213
130601
140377
149191
179656
725518
464478
301398
135690
165003
226840
221110
140105
36847.7
13829.2
18289
28192.9
41120.7
55645.3
70733.2
85277.6
98680.3
110860
119174
142970
574351
321422
218707
143374
178959
222003
217234
147109
57901.2
19585.8
11833.7
12707.4
18071.1
28378.5
43149
58543.5
71873.4
85179.5
95358.3
117538
498450
288117
227989
161005
188441
217682
213921
152377
76611.5
31336.6
13609.8
11094.1
12112.2
17080.4
26887.1
38893.8
50444.2
62993.8
73861.1
94328.6
463755
299836
259790
188812
197432
217402
211225
157442
92156.6
45211.2
20294.8
12733.6
12251.9
13395.7
17304.1
24607.8
33878.7
46046.8
57301.1
76591.1
474166
332706
307607
224718
208852
218424
210801
161984
104048
59725.4
31712.1
18842.6
13967.1
12060.2
12552.8
15666.5
22926.7
34420.9
44664.1
62732.3
505645
388059
370589
268667
225476
221093
211481
166144
113819
74225.1
46607
29221.4
18602.5
12915.8
12707.2
14295.5
18280.3
25673
33913.4
50932
550433
459946
452977
333656
251267
225381
213118
170271
123686
88259.6
61187.8
41020
26211.8
16769.4
14682.7
15685.4
18596.4
22950.2
28492
43967
600066
534126
565176
441321
290201
235647
216946
175161
134167
101602
74164.6
52370.9
35396.6
24681
19479.6
19045.2
20224.6
23588.1
28989.9
42423.6
651917
602901
663718
589600
362792
262007
224697
182343
144662
114047
87572.5
65133.3
48007.1
36833
27802.5
23867.1
24141.2
26537.6
31099.3
41884.4
700363
664162
747115
768720
507420
313428
240712
192544
154033
122795
98185.8
76735.3
60147.6
47582.8
36727.6
30305.6
30098.9
31831.8
34453.2
42918.4
750435
719038
798481
853467
756709
516736
342024
244945
186054
148046
122352
99003.4
80915.1
66714.1
54858.9
47558.3
45552.9
43870.7
44373.4
49484.5
2.76082e+06
2.58138e+06
2.36835e+06
1.5966e+06
1.3867e+06
1.44524e+06
1.42641e+06
1.22432e+06
967278
749600
592879
519422
488062
501146
536531
585876
638391
692309
741096
790973
2.56473e+06
2.60457e+06
1.34995e+06
938564
1.19679e+06
1.41235e+06
1.41233e+06
1.15269e+06
759445
477672
327281
296342
311134
348625
409005
487672
565585
635764
696109
749097
2.40132e+06
1.37797e+06
760019
679463
1.18262e+06
1.43508e+06
1.43582e+06
1.13171e+06
592537
308944
220883
230777
264537
316170
384066
474520
596742
695964
779519
820622
1.576e+06
907026
647925
516151
949939
1.40321e+06
1.50021e+06
1.29621e+06
530955
136034
143182
160836
189020
225684
271613
340525
457602
620321
809019
877737
1.33529e+06
1.10135e+06
1.07044e+06
814922
102186
160438
174385
184349
193896
205706
222451
248365
288212
366155
523945
780689
1.37582e+06
1.33292e+06
1.36456e+06
1.34249e+06
213978
221558
217128
213700
213818
214846
217165
220978
230837
257302
310729
522458
1.3634e+06
1.34999e+06
1.38239e+06
1.44445e+06
229250
217730
213852
210587
208506
207976
208340
209361
212401
219238
234677
336502
1.17404e+06
1.10969e+06
1.09537e+06
1.24331e+06
184559
137565
144039
149202
153958
157838
161148
164551
169247
176115
185879
236911
932962
736640
579680
530101
101490
221034
235464
185992
21722.5
33437.3
52952
71543
87117.3
99018.7
109017
119181
129675
139508
148265
178332
725300
463954
301541
134423
164597
227326
221603
139240
35849.4
13654.9
18298.4
28287.1
41055.8
55156.5
70044.6
84424.3
97646.9
109866
118025
141356
574975
322068
219974
142331
178514
222533
217802
146566
56648.9
19300.6
11708.5
12613.3
18037.7
28391.7
42714.5
57553.1
70705.2
83959.1
93972.3
115956
499507
288815
229230
160401
188171
218361
214579
152627
75677.6
30908.1
13505.8
11025.4
12232.3
17053.7
26270.2
37886.8
49254.6
61872.7
72609.5
92701.6
464579
300621
260657
188620
197432
218186
212066
157926
91224.2
44647.4
20165.5
12822.9
11932.8
12909.2
16626.7
23783.3
33177.2
45231.8
56102.1
75035.4
475022
333677
308515
224702
208975
219174
211720
161867
103120
59277.4
31689.4
18732.6
13503.9
11708.7
12283.3
15487.3
22608.5
33534.6
43599.7
61574.4
506536
389232
371839
268608
225834
221741
212325
165422
113353
74362.9
46422.7
28912.8
18171.2
12670.1
12597.6
14146.3
17841.9
24945.5
33130.1
50160.4
551596
461657
454705
334642
251755
225958
213908
169746
124038
88399.2
61079.4
40779.2
25883.5
16779
14543.9
15393.3
18164.5
22598.7
28189.7
43590.3
600493
534982
567139
443863
290458
236059
217757
175410
134741
101546
74186.3
52294.5
35706.4
24785.2
19051.3
18686.6
19889.5
23407.5
28808.5
42095.5
651139
602830
663630
590741
363805
262629
225581
183120
144535
113948
87687.8
65570.5
48249.5
36435.3
27338.2
23613.1
23997.3
26435.1
30896.3
41651.4
698323
662814
744831
765759
507056
314032
241560
193244
153667
122714
98548.5
77096.5
60079.6
47365
36449.8
30095.3
29838
31509.4
34219.6
42746.7
747076
716178
794803
849855
752253
513000
340386
243812
185422
147950
122282
98799.8
80949.4
66876.3
54797
47325.4
45106.9
43453.4
44064.4
49421.4
2.72213e+06
2.53776e+06
2.37611e+06
1.62398e+06
1.40187e+06
1.44651e+06
1.42318e+06
1.22157e+06
966841
751038
598038
522280
489106
501551
536259
582039
632368
685475
734763
786903
2.53201e+06
2.58046e+06
1.42279e+06
963844
1.1971e+06
1.40862e+06
1.4076e+06
1.14906e+06
759239
477426
331791
301848
315938
352145
412000
486944
560115
627859
687688
743590
2.41841e+06
1.46664e+06
781507
686680
1.17802e+06
1.43151e+06
1.43106e+06
1.12871e+06
594282
309181
225957
237783
271919
322508
389038
478631
595219
688233
768419
812433
1.61162e+06
935555
656324
524227
955608
1.40779e+06
1.49949e+06
1.29489e+06
529410
138801
146341
164928
194897
233481
281899
353848
472011
629050
801008
866948
1.35282e+06
1.09911e+06
1.06422e+06
817687
103769
164480
178231
187906
197283
209730
227787
255560
297923
381088
543876
787635
1.3773e+06
1.3282e+06
1.36268e+06
1.34476e+06
217199
227098
221860
217669
216708
217493
219709
224232
235790
264994
324872
546849
1.3607e+06
1.34565e+06
1.3829e+06
1.4497e+06
233732
223840
218971
214883
211984
210719
210893
211916
215452
223363
241498
355507
1.17138e+06
1.10667e+06
1.09341e+06
1.24733e+06
187599
142473
148582
153274
157489
161009
164436
167800
172503
180049
190961
249413
929579
733221
577792
514919
105217
220596
236585
187705
21435.3
35418.2
56083.9
74987.9
90503.4
101915
111424
121991
132422
142211
151595
186065
723305
460719
300492
137160
165077
227339
223192
141212
35772.4
14339.2
19029.6
29504.4
42838.2
57475.3
72774.3
87006
100279
111938
120164
145698
576273
322526
221070
145057
178614
222108
218519
147838
56771.3
19495.6
11882.2
12974.6
19332.4
30703.4
44992.8
59383.7
72221.1
85163.9
95302.9
118182
500024
289751
231497
163082
187867
217797
214663
153168
75988.2
30603.9
13567.9
11618.7
12945.6
17959.1
27447.9
38623.1
49873.9
63440.6
74161.2
94432
466692
301780
262384
191178
196824
217117
211877
158056
91863.9
44567.6
20699.9
13409.8
12004.9
12904
16656.4
23950.5
34244
46747.3
57457
76384.4
478251
335403
308917
226953
208447
217977
210834
161843
103600
59796.8
32886.5
19361.5
13438.3
12195.9
12990.2
16472.2
23915.3
34754.2
44697.1
62331.9
511338
392477
371966
271326
225548
220273
211274
165435
113395
75416.6
47738.8
29618.8
18049.2
13358
13604.7
15742.1
19621.7
26508.2
34291.2
51142.6
556390
467000
457816
337788
252169
224654
212644
169165
124296
89752.4
62267.9
41242.7
26122.5
17801.3
16182.9
17213.3
19935.2
24007.6
29585.9
45136.4
605169
540790
573771
447806
291979
235749
216690
174419
135072
103203
75331.9
53076.9
36951.2
26362
21136.5
20411.3
21369.2
24754
30235.5
43284.3
655650
606904
667703
597558
369474
264077
225219
182461
145233
115245
89073.2
67527.5
50495.4
38363.2
29256.1
25079
25425
27864.9
32088.8
42649.4
701907
664146
746255
769077
521379
321286
243788
193730
154969
124101
100058
79332.2
62435.8
49189.3
38012.6
31892.4
31396.2
32785.8
35423.9
43749.3
749870
716398
789873
840492
757886
531375
355205
252563
191053
151545
125132
101776
83198.1
68505.7
56746.3
49556
46565.1
44686.8
45254.7
50332.1
2.69633e+06
2.50923e+06
2.38839e+06
1.68289e+06
1.44387e+06
1.45875e+06
1.42696e+06
1.22821e+06
974851
759303
608400
529199
494954
507403
540888
582250
630742
682119
730162
783916
2.50624e+06
2.51621e+06
1.5629e+06
1.03522e+06
1.20212e+06
1.40629e+06
1.40556e+06
1.1532e+06
767631
482147
340487
309191
323447
360362
420073
490534
559201
622950
680451
738904
2.42837e+06
1.63834e+06
845499
713620
1.16588e+06
1.4264e+06
1.42976e+06
1.13154e+06
604023
311749
234230
248110
281382
329752
395955
486834
596300
681504
757531
802368
1.67845e+06
1.01563e+06
687781
541799
955396
1.39655e+06
1.49082e+06
1.28993e+06
535446
144128
151909
172152
205016
245548
296357
372889
493343
642798
791751
855455
1.40274e+06
1.11119e+06
1.05854e+06
824612
106943
168787
182163
192142
202752
217498
238687
270129
317941
414506
582751
797729
1.39107e+06
1.3257e+06
1.3628e+06
1.34518e+06
223288
230755
225576
221251
221240
222480
225788
232775
248905
285791
360182
590663
1.36516e+06
1.34407e+06
1.38289e+06
1.44978e+06
242677
228572
223571
219549
216447
215938
216405
218268
223745
235342
261267
397750
1.17566e+06
1.10896e+06
1.09683e+06
1.24706e+06
195412
146038
152379
158083
162599
165967
169132
172911
179497
190136
204886
278716
933331
736035
584934
536939
103193
220174
238552
190684
23548.9
36403.6
58082.9
78099.9
94094.9
105284
115831
127728
138814
149569
160859
205145
726294
461003
301704
139551
166289
228236
225104
144326
37919.2
15566.3
20535.4
31382.1
45262.2
61103.9
77275.4
92331.1
105658
116475
126443
158579
581847
325365
224613
147018
179473
223279
220591
151145
59763.7
21226.5
12679.2
13771.4
20892.1
34017.8
49455.4
63418.7
75353.7
88479.9
99406.1
126435
503640
293263
236852
165945
189128
218945
216992
157216
79808
32881.9
14403.1
12511.7
13964.6
20149.4
30193.6
40709.1
52328.7
66823.4
78005.9
100355
472554
306165
266907
195644
199256
219082
214110
161840
95927.2
47571.5
22424.4
14507.7
13691
14494
18031.2
25630.7
36621.9
50590.9
61376.6
80654.5
486510
342248
312464
232995
212701
220676
214018
165216
107372
64062.2
36375.6
21531.2
14984
13888.7
15016.8
18874.7
27078.8
38836.6
48478.8
66107.9
522413
404221
377983
279153
232192
224164
214878
168586
118079
80558
52242.3
32346.3
19299.9
15355.6
15985.3
19180.4
24001.1
30985
38240.9
54983.1
565967
481324
471554
347531
261504
230636
217274
172766
130072
95555.6
66652.7
43648.6
27880.7
20331.1
19659.7
21320.2
24088
27562.4
33104.1
49153.4
615087
554739
590653
461053
304912
244945
223223
179699
141155
108872
79165
56176.5
40113.3
30004
25581.5
24547.1
25091.7
27951.3
33504.3
47155.2
665392
617191
678986
615115
393245
279072
234949
190412
151775
119969
93207.1
72058.1
55504.6
43030
33992.1
28826.8
28726
30888.2
35564.4
46416.9
710584
671145
752492
775284
555820
348743
260162
205212
163229
130339
105149
84561.6
67454.1
53691
42355
35742
34835
36421.9
39191.8
47331.9
756968
721563
788620
836462
771214
568575
391105
278088
208429
163860
133856
108620
88257.7
72826
60724.8
53688.7
50467.4
48556.5
48922.2
53224.1
2.68975e+06
2.50345e+06
2.3799e+06
1.75437e+06
1.50434e+06
1.48494e+06
1.44551e+06
1.24883e+06
996350
777866
626812
542661
507469
520212
553409
592392
640271
689752
736458
790860
2.51792e+06
2.41278e+06
1.75011e+06
1.1435e+06
1.22523e+06
1.41411e+06
1.4192e+06
1.17365e+06
788596
495710
355094
321736
335641
373230
434132
502374
568172
629074
684922
744421
2.40185e+06
1.87141e+06
952982
766310
1.16869e+06
1.43764e+06
1.44825e+06
1.15496e+06
628033
322285
247905
262894
293760
339874
407657
499551
603755
685058
755330
799339
1.74544e+06
1.12811e+06
740576
574583
967358
1.39966e+06
1.50258e+06
1.30437e+06
573139
151944
159919
182112
217013
257916
310422
390985
511344
654142
786590
845506
1.4629e+06
1.13985e+06
1.06623e+06
831765
110086
174722
188369
199667
211909
228272
250703
283475
337707
445883
613630
799632
1.41103e+06
1.32903e+06
1.37171e+06
1.34933e+06
224173
235792
231675
228217
228201
229525
233229
241511
261523
306178
394000
622331
1.37639e+06
1.34897e+06
1.39152e+06
1.45721e+06
243333
233442
229470
225882
222961
221266
221524
223666
230350
245997
280450
435166
1.18684e+06
1.11676e+06
1.1052e+06
1.25498e+06
197008
150887
158419
164551
168374
171146
173911
178082
185534
198076
216771
306318
943871
743096
593475
528701
112355
221997
241537
193929
24529.3
38837.8
61543.7
82837.2
99251.3
110642
122003
133597
143931
155184
168655
223371
735148
464249
304327
146676
172591
234384
231621
149498
41138.8
17373.4
22340.1
33863.6
49332.3
66525.4
82908.2
97825.1
110211
120838
132077
170166
593149
333343
235658
155020
186077
229578
227514
157828
64473.5
23683.5
13865
15276.5
23636.1
38451.6
54064.1
67356.3
79239.1
92275.1
103472
134495
514802
303272
250482
176728
196929
225301
223999
164826
85900.8
36528.9
16213.7
14276.9
16084.5
22774.2
32873.6
43740.1
56129.5
70815.3
81763.8
106725
486831
317741
279329
209070
208529
225429
221008
168927
102478
52800.3
25730.6
16747.1
15802.5
16568.3
20437.5
28724.8
40636.1
54639.9
65030.3
85877
502694
356474
324098
247597
223599
227033
220263
171823
114004
70391.2
41326.3
24365
16951.4
16669.2
18297.7
23047.9
31704.6
42996.4
52657.7
71368.2
540291
422730
392255
295221
244348
230982
220896
174672
125320
86971
57441.3
35446.7
21787.5
18708.5
19742.8
23479.4
28181.3
35336
43054.1
60510.5
584002
501962
490874
365925
274736
238785
223559
178926
136957
101950
71485.7
47305.1
31320.8
24431
23797.4
25264.7
27943.8
31870.7
38042.1
54365.3
635673
575665
609630
481260
322488
256217
230578
186375
147338
114572
84050.5
60596.4
44334.4
34285.8
29553.5
28368
29098
32385.3
37912.9
51159.8
686240
636007
695148
634599
420604
296709
245547
198596
158312
125400
97934.2
76380.7
59292.5
46554.4
38004.6
33119.8
33166
35336.6
39600
50053.7
730451
688295
765733
782931
587645
378087
277661
216556
171513
136635
109651
88247.5
70524.4
57135.3
46701.9
40420.1
39169.9
40359.6
42868.8
50941
775352
737407
797778
840130
783219
601007
424485
302506
225235
174793
141229
114288
92724.9
77249.8
65518.1
58266.9
53976.1
51851
52345.3
56789.1
2.74762e+06
2.56854e+06
2.47928e+06
1.86964e+06
1.59299e+06
1.54309e+06
1.49731e+06
1.29725e+06
1.04025e+06
815877
659028
570543
536185
550234
583224
621646
669956
719632
765093
817629
2.59344e+06
2.46083e+06
1.98077e+06
1.26414e+06
1.27016e+06
1.45326e+06
1.4629e+06
1.21296e+06
824178
525542
379755
345225
361079
401425
463796
532168
597737
658841
713407
770390
2.47607e+06
2.13387e+06
1.08286e+06
825627
1.189e+06
1.47142e+06
1.48729e+06
1.18891e+06
659196
348028
272475
288236
320300
368560
440052
536266
641203
721151
788528
826130
1.84738e+06
1.23458e+06
790170
609974
984245
1.41979e+06
1.5381e+06
1.33444e+06
597938
165813
176066
202322
241143
286106
344639
433123
558917
704908
837386
875599
1.54406e+06
1.18561e+06
1.08921e+06
847851
122382
187452
202877
216822
232056
251979
278564
316567
380218
503431
682146
851223
1.45669e+06
1.35641e+06
1.39218e+06
1.36027e+06
235463
251273
247210
246334
247234
250219
255949
267022
292626
347575
451593
689473
1.41465e+06
1.37528e+06
1.41101e+06
1.47396e+06
254605
248428
244891
242721
240501
240099
241006
244708
254017
274724
319314
497272
1.22108e+06
1.13728e+06
1.11812e+06
1.27141e+06
207437
161729
170697
177399
181865
186066
190300
196007
205148
220330
244003
352571
973961
757817
599030
533950
117404
232980
254350
203865
26523.8
41399.3
66361.8
90331.4
109446
123088
135904
148235
159792
173501
190123
257066
764718
481217
316379
158073
184852
248721
246255
160892
45541.1
19289.9
24759.7
38479.5
56761.8
75928.5
93652.1
110061
124004
136215
149063
194400
620546
352634
256679
169684
200226
243786
242450
170739
71400.2
26879.1
16297
18310.5
28075.3
44717.4
62228.2
77470.8
90928.2
104803
116986
153492
539574
323266
273260
196312
213526
241678
240079
178125
95380.6
42670.1
19667.1
16757.1
18741.9
26374.6
38243.2
50950.9
64755.8
80708.5
93023.2
122223
513429
340294
302475
233151
227747
242710
238414
183082
114287
61634
30995.5
19632.9
18862
19946.2
24266
33763.7
47421.1
63716.5
75099.3
98125.2
531255
382853
349355
274840
246148
246034
238827
187551
127527
80791.6
48389.6
28856.9
20657.9
20372.7
22566.5
28466.7
38844.5
51168.6
60857.8
81223.9
569922
452385
422434
326525
270417
252203
240376
191979
139904
98331.8
66299.1
41737.2
26385.9
23120
24604.5
29249
34594.9
41581.1
49972.6
69464.3
614878
533050
525943
402925
304731
262701
244639
197674
152383
114857
82230.7
55282.8
37229
30055
29643.1
31182.5
33556.3
37908.3
44826.2
62810.6
670828
609422
646998
523407
359164
284636
254159
206822
164166