/*--------------------------------*- C++ -*----------------------------------*\
  =========                 |
  \\      /  F ield         | OpenFOAM: The Open Source CFD Toolbox
   \\    /   O peration     | Website:  https://openfoam.org
    \\  /    A nd           | Version:  9
     \\/     M anipulation  |
\*---------------------------------------------------------------------------*/
FoamFile
{
    format      ascii;
    class       surfaceScalarField;
    location    "0.0065";
    object      phi;
}
// * * * * * * * * * * * * * * * * * * * * * * * * * * * * * * * * * * * * * //

dimensions      [0 3 -1 0 0 0 0];

internalField   nonuniform List<scalar> 
28500
(
-147.55
-147.626
1.13934
-119.636
-157.14
3.14567
-112.591
-169.231
3.03379
-96.8535
-224.32
-2.87806
-54.906
-290.855
-5.41731
3.54822
-288.714
-5.1136
64.9945
-285.857
-5.94659
139.698
-290.783
-5.38514
209.755
-278.047
-6.30764
261.637
-235.935
-4.75881
298.008
-192.552
-5.19285
322.729
-160.277
-0.832276
339.811
-139.677
-1.44874
348.891
-121.702
-4.05569
354.933
-106.481
-3.63396
361.388
-94.7838
-1.00186
368.365
-88.0044
-0.0576269
376.553
-83.7294
-1.23232
386.142
-78.2928
-1.92456
-70.7226
-3.19917
-156.777
-118.693
3.62352
-141.4
-139.562
5.96649
-170.219
-195.447
5.9588
-136.133
-240.219
-3.96094
-67.0604
-290.692
-6.21727
0.0353399
-285.645
-5.18864
68.0993
-283.882
-5.49203
161.966
-288.106
-5.37243
255.793
-262.516
-5.83631
316.634
-194.748
-2.03473
351.846
-150.451
-3.35749
370.481
-126.138
2.17123
380.382
-112.601
0.172767
381.759
-98.4046
-4.06218
376.785
-82.9076
-4.5216
376.744
-73.6469
-0.381874
379.867
-66.058
1.22133
385.046
-63.0583
0.485659
392.115
-63.3132
-0.80949
-60.2269
-2.36677
-167.908
-109.643
4.73601
-196.5
-165.076
6.88136
-218.031
-215.946
0.372959
-164.178
-62.2239
-7.28384
-65.7547
-63.4092
-67.2572
-71.5025
-69.2339
-4.57415
-70.5101
-70.3194
-71.4906
2.58904
-69.946
-3.94175
-70.2045
-70.6704
-70.9101
75.3743
-69.6837
-4.48249
-69.8828
-70.3258
-70.5705
175.603
-69.9102
-3.50447
-70.0618
-70.583
-70.8946
278.745
-62.8563
-3.36095
-49.9024
-64.2138
-51.1228
337.653
-166.372
-2.0403
374.057
-153.246
-1.936
398.688
-140.089
-1.68506
416.232
-127.052
-3.12817
426.122
-112.552
-6.60475
425.631
-95.0197
-7.46464
417.229
-75.4722
-5.87148
405.355
-57.3005
-2.66298
402.074
-48.0868
-0.968082
402.247
-43.5764
-1.55192
-42.0527
-2.59214
-224.089
-93.8077
0.185228
-241.222
-134.934
-0.570278
-63.392
-164.233
-1.87723
-66.3709
-63.2428
-66.6462
-59.4975
-58.2802
-1.68576
-29.9379
-1.99702
48.7742
-17.3513
-16.8725
-16.8776
-17.3123
19.1408
-8.20363
-0.830989
-17.3342
-17.4171
-17.439
-17.3266
-0.810207
9.59694
-1.46187
-17.4695
-17.2022
-17.2146
-17.4591
-20.1364
30.5857
-1.4791
-17.6933
-17.3094
-17.3398
-17.6518
-53.4042
67.1057
-58.4194
-2.13814
467.376
-132.151
-4.58319
-90.3789
-112.861
-90.5039
-113.536
498.635
-134.649
-11.2111
509.339
-129.861
-13.5084
512.995
-120.134
-10.6175
512.055
-108.512
-7.84341
507.442
-95.4346
-8.49267
494.27
-78.7326
-11.0438
471.44
-57.8794
-10.0158
444.396
-33.6184
-3.71301
429.451
-18.4277
-6.04083
-13.3786
-8.97999
-289.901
-54.1306
-5.16166
-290.201
-67.2085
-5.51469
-69.2569
-71.8014
-4.01066
-70.8728
-69.9877
-71.3363
-29.6293
-1.02043
49.3017
-17.4889
-17.5054
-17.6822
-17.4556
6.10409
30.1377
-7.8867
-1.08719
574.838
-77.4197
-11.6437
-139.852
-142.873
-141.843
-145.039
578.871
-75.1521
-11.5545
580.662
-72.5451
-12.1435
580.287
-69.3375
-12.373
577.266
-65.5902
-12.039
570.65
-60.0508
-13.2897
560.853
-53.0584
-11.5858
545.135
-37.0627
-11.4782
513.496
-13.7965
-14.0696
474.914
6.30605
-7.71321
18.9189
-9.58363
-288.866
3.71126
-5.3564
-285.723
0.239867
-5.41793
-69.9894
2.48747
-4.53744
-70.4
-70.5003
-71.0242
19.142
-8.23475
-1.08153
-17.3362
-17.5022
-17.4941
-17.3227
4.03242
36.0337
-2.8985
-0.840126
585.433
-2.3554
-10.9228
-144.288
-145.608
-146.433
-147.84
585.881
-2.87433
-11.7501
585.668
-3.24704
-12.3814
585.288
-3.43844
-12.7819
585.057
-2.80209
-12.58
584.621
-0.936991
-13.314
583.096
1.91584
-13.4827
578.794
6.40932
-11.3949
567.891
12.8727
-13.7221
539.942
34.2651
-10.2678
54.3833
-7.59638
-286.727
65.2762
-7.56719
-284.507
68.3478
-7.1272
-69.7289
75.7909
-5.74948
-69.8137
-70.3533
-70.5332
-0.802688
9.57802
-1.81907
-17.5209
-17.2649
-17.2801
-17.5102
0.0648416
36.3128
0.84838
-0.800924
593.885
71.8338
-11.2331
-146.652
-147.306
-148.806
-149.539
594.762
69.4207
-11.1609
595.558
66.3927
-11.8221
596.882
64.8304
-12.8936
597.966
63.4889
-13.0597
598.806
62.7469
-12.6839
598.538
62.3477
-13.1185
596.396
62.1843
-12.3782
591.492
62.3706
-12.9878
580.061
69.6115
-12.5262
87.9275
-9.54927
-291.908
140.344
-6.83357
-289.1
162.744
-7.02066
-69.8279
176.314
-4.99979
-69.9149
-70.5728
-70.8066
-20.1524
30.7335
-1.90281
-17.5787
-17.4034
-17.4082
-17.4543
-3.96231
36.834
5.4089
-0.805774
602.462
187.942
-7.79659
-148.3
-148.576
-150.418
-150.643
605.141
180.567
-12.9848
606.389
170.679
-15.2445
609.237
161.175
-12.4896
611.116
152.189
-9.10825
611.544
145.257
-10.0809
612.371
137.677
-13.5596
611.389
130.528
-13.592
607.479
123.843
-12.5236
601.349
119.985
-11.1062
127.328
-8.49069
-278.013
210.613
-8.44255
-261.954
257.246
-9.09826
-62.2772
280.393
-7.8718
-49.8309
-64.3332
-51.6607
-52.9391
-58.1588
68.5971
-2.8041
8.74815
-7.1452
33.2278
-1.66272
4.0422
-2.8729
35.2004
-0.85355
-0.0357717
0.959499
35.4798
-0.84124
-4.11786
5.52912
36.0509
-0.815509
-9.75302
-12.0704
123.789
129.178
-4.75206
-16.2564
-8.92223
-15.3928
-17.4808
-14.321
-18.2011
570.468
354.788
-25.9082
-135.587
-119.349
-136.9
-120.804
585.487
307.096
-15.1799
592.66
283.201
-6.26431
596.842
259.616
-5.16618
605.529
240.116
-13.8379
611.142
224.567
-17.892
613.858
210.491
-16.7141
617.082
197.348
-12.5139
616.75
187.779
-10.9606
612.569
175.898
-11.2008
173.621
-9.59167
-234.567
261.966
-8.60712
-193.627
316.968
-8.48647
-167.23
338.13
-9.20704
-135.22
465.458
-7.46801
-91.2492
-113.49
-91.1746
-112.85
-77.6034
563.746
-12.289
-137.669
-139.931
-139.388
-142.098
-0.434048
572.819
-11.3071
-140.972
-142.279
-143.092
-144.581
74.9317
582.005
-11.1564
-143.378
-144.197
-145.713
-146.617
196.976
589.905
-8.44484
-145.821
-146.925
-148.567
-149.846
337.512
568.227
-12.4995
-137.698
-125.018
-140.536
-127.894
464.46
489.698
-27.5014
524.875
398.749
12.2672
548.836
364.885
0.250301
562.141
341.031
-18.5835
574.162
312.729
-23.8497
586.804
290.932
-19.01
593.344
274.105
-11.5152
599.97
256.048
-6.6028
608.715
245.1
-10.1788
611.465
230.265
-12.8044
219.73
-11.5271
-191.855
297.905
-8.76377
-150.061
351.754
-9.11101
-154.846
374.031
-7.37263
-137.067
493.485
-15.2547
-75.0981
568.115
-12.4428
-1.00806
573.665
-12.0318
72.2663
583.145
-11.1056
181.827
591.464
-12.0181
302.266
576.358
-16.4152
385.127
529.546
12.8378
456.182
473.251
11.2846
517.657
433.036
-25.6644
531.802
402.996
-28.2539
536.386
374.538
-17.8098
548.971
349.369
-7.56553
563.61
333.263
-7.05824
576.179
316.277
-11.0352
589.594
296.704
-14.1009
599.907
282.547
-15.9432
262.71
-11.7541
-160.587
322.945
-3.9955
-125.952
371.013
-2.66811
-141.28
397.496
-5.45935
-130.867
502.742
-16.0048
-72.12
570.219
-13.2142
-1.29556
573.689
-12.6985
68.6628
584.176
-12.2696
170.704
592.493
-13.3576
275.04
583.507
-8.51525
355.349
542.085
0.137818
417.807
515.134
-18.5299
480.181
489.98
-32.056
504.467
450.508
-9.90658
508.845
420.072
0.29601
521.222
395.62
2.41913
541.881
382.93
-6.60747
558.028
366.918
-17.1712
569.684
342.822
-15.5197
581.978
330.237
-18.4438
306.428
-14.9248
-141.106
340.142
-4.40753
-114.823
381.266
-3.40341
-128.414
415.387
-5.52277
-120.547
506.696
-12.768
-68.7451
569.87
-13.4243
-1.83104
573.185
-13.2548
65.9824
585.501
-13.4866
159.997
595.313
-11.2099
253.35
588.341
-5.18464
329.848
556.054
-14.2694
388.479
522.031
-27.7775
435.665
500.9
-11.7926
476.638
480.591
2.93326
503.093
457.511
2.10104
518.094
435.092
5.23875
526.476
418.584
-5.6643
535.176
401.342
-15.9968
544.126
379.269
-16.7521
559.229
370.088
-15.8668
346.497
-10.2984
-123.348
348.568
-7.35651
-101.556
382.769
-6.66084
-114.387
426.22
-7.11892
-108.654
506.228
-9.07071
-64.7194
566.83
-13.0887
-1.47691
572.677
-13.2779
63.7436
586.662
-13.487
150.574
596.757
-9.13226
235.054
596.737
-10.4628
303.846
568.981
-19.2997
362.623
529.837
-18.8085
407.304
497.945
-7.32725
444.631
496.131
-2.9643
485.827
490.195
-2.90904
503.622
469.013
-6.9719
505.152
444.845
-12.6032
509.227
424.48
-18.6979
519.405
407.589
-11.2127
538.638
404.584
-1.8864
381.164
-1.69792
-107.791
353.995
-7.32761
-85.3116
376.578
-7.30768
-97.2561
426.397
-7.56975
-95.4458
502.433
-8.45423
-58.8734
560.468
-13.7971
0.32712
571.838
-14.224
62.5362
587.565
-13.217
143.042
597.072
-10.5899
220.24
601.885
-13.1033
284.38
581.549
-15.8724
340.45
545.079
-8.22746
385.773
511.185
-1.32614
422.237
503.382
-1.51774
459.887
494.696
-10.6656
479.36
477.806
-18.0185
486.34
455.165
-14.9141
497.232
440.844
-10.002
512.148
432.989
4.71235
524.283
428.524
5.50686
409.068
-1.9052
-94.703
360.28
-4.92387
-74.972
375.418
-4.0639
-78.1046
417.941
-6.06246
-78.3678
490.934
-10.3047
-51.9943
551.414
-10.9727
2.97855
570.114
-13.912
61.9338
587.402
-13.462
135.336
598.157
-14.0688
206.661
603.699
-13.0405
269.124
588.092
-8.60863
325.882
561.245
-3.92457
372.143
533.893
-5.10585
403.513
512.149
-8.16417
433.291
492.088
-16.9384
450.403
478.498
-17.9915
465.872
464.7
-3.63193
485.597
460.508
5.89649
499.615
452.516
11.2254
508.696
441.959
5.59346
425.468
0.15647
-87.9888
367.366
-3.94706
-67.4094
378.178
-3.1295
-59.3534
405.246
-4.07152
-57.4756
469.025
-8.49565
-36.4668
536.606
-11.2103
7.5826
566.09
-11.8869
61.5913
585.487
-12.4361
127.911
597.398
-13.8875
193.373
605.906
-10.106
251.9
594.499
-2.30974
310.219
573.48
-5.87192
357.399
551.486
-12.9539
389.348
525.114
-14.8568
413.987
496.974
-18.6998
433.124
486.804
-10.1548
455.366
480.027
6.2883
476.483
476.42
10.4648
487.498
465.177
3.90938
494.685
450.115
-0.477282
437.774
-1.44925
-84.1811
375.85
-5.16651
-63.8688
383.809
-3.93567
-49.2422
401.221
-4.50302
-34.8242
441.665
-0.913097
-13.7194
506.504
-12.3927
14.5707
555.7
-13.9876
61.9575
580.809
-13.0467
121.358
593.971
-12.8914
183.284
604.865
-9.18201
240.437
602.133
-5.08679
291.113
585.707
-9.13311
335.167
564.213
-10.9835
370.363
536.819
-13.4695
400.462
509.145
-8.53967
426.492
501.711
5.7071
445.747
491.083
10.189
462.694
483.241
3.3362
470.375
469.364
-8.39731
476.12
455.288
-9.813
447.296
-5.25992
-79.0565
385.729
-5.71902
-64.034
391.309
-5.25021
-44.5968
401.146
-5.39774
-19.3982
427.442
-5.59855
6.55031
468.306
-3.6413
34.534
528.259
-8.70471
68.8972
569.293
-11.7841
117.888
588.114
-10.8894
171.171
600.265
-9.77165
225.325
603.725
-8.94598
276.71
594.537
-10.7392
323.878
576.936
-12.4716
363.859
553.947
-9.54002
398.934
530.634
2.71744
422.74
515.276
6.50825
436.488
500.634
4.21653
446.561
488.91
-0.929875
454.248
473.771
-9.85635
463.309
463.151
-5.50043
456.538
1.71049
-71.4755
-6.67537
-61.1982
-6.48256
-43.2424
-6.5025
-14.4991
-10.0553
18.3025
-8.0389
53.125
-6.31177
86.292
-8.24433
125.2
-7.5329
169.212
-8.25187
214.904
-8.63496
257.467
-7.44637
300.762
-9.24603
341.112
-4.28964
375.64
2.61614
403.523
-0.123023
421.134
0.499562
435.106
-0.48138
446.506
-4.84686
456.682
1.72027
6.95734
-146.866
-147.723
3.99359
-117.962
-155.619
7.26808
-114.588
-177.534
11.6027
-100.379
-233.87
6.04439
-56.4139
-299.126
1.62706
3.29706
-293.949
-0.556045
65.0788
-290.913
-1.90179
140.44
-296.116
-1.44375
210.872
-283.103
-1.41248
262.721
-239.971
0.766187
299.451
-195.501
0.173024
324.36
-162.695
4.12893
341.497
-141.455
4.44204
350.305
-123.334
2.26219
355.979
-108.033
1.18091
362.325
-95.6876
2.93985
369.262
-88.369
3.61124
377.228
-84.2549
2.4803
386.56
-78.9779
1.50545
-71.6049
0.0131501
-153.184
-117.928
7.60501
-142.695
-142.543
9.9598
-180.779
-209.764
22.6435
-138.883
-255.736
6.19933
-65.9696
-298.065
-0.0956156
0.432348
-292.084
-0.739195
68.2041
-289.97
-1.70159
162.39
-294.542
-1.60504
257.275
-268.621
-0.945118
318.388
-200.926
4.52137
354.201
-154.687
2.37611
373.654
-128.589
7.36866
384.073
-113.471
7.62616
385.489
-99.4563
3.68856
379.713
-83.6234
1.77951
378.574
-73.8499
4.31758
381.09
-66.0476
5.24994
385.968
-62.6597
4.30609
392.713
-62.9438
2.65729
-60.4602
0.807593
-173.229
-111.622
10.6803
-208.072
-177.899
20.3881
-222.538
-222.879
9.34321
-164.374
-65.386
1.18324
-68.4292
-65.8097
-68.9988
-69.9818
-72.26
0.664398
-73.2591
-73.1907
-74.0373
2.3813
-72.1379
0.41459
-72.4894
-72.736
-73.1189
75.2899
-71.8063
-1.2422
-72.0484
-72.4115
-72.7133
176.271
-72.0131
-0.00581186
-72.3473
-72.6056
-72.8664
281.03
-65.5339
2.06792
-52.8587
-65.5142
-52.7969
341.523
-170.02
5.21202
378.883
-156.203
5.2085
404.049
-142.878
5.4569
421.093
-129.265
5.08776
430.648
-114.263
1.69694
430.334
-96.2128
0.152635
421.654
-76.5066
1.7025
408.551
-57.2171
3.64279
404.172
-46.9744
3.06339
403.497
-42.7034
1.78443
-41.2113
0.328109
-230.888
-96.9902
6.79749
-251.86
-138.746
5.24998
-65.0977
-166.694
-1.83044
-67.5682
-65.9777
-68.5202
0.297873
-60.0574
-60.0735
0.303146
1.42922
-28.7174
-0.346902
49.1247
-18.4571
-18.4957
-18.2534
-18.5635
0.129697
18.7615
-8.29415
0.175006
-18.0162
-18.0117
-17.9199
-18.0155
0.768234
-0.656004
9.5186
-0.439529
-18.058
-17.7527
-18.0029
-17.8038
0.804178
-20.1253
30.4683
-0.52458
-18.268
-17.8823
-18.2371
-17.9572
-53.4174
0.0915348
67.3252
-61.088
0.20767
477.379
-133.63
5.00441
-91.9041
-114.892
-92.7757
-117.704
509.318
-136.084
-0.0572026
519.823
-131.398
-2.66391
522.736
-121.55
-0.74792
520.995
-109.843
2.53474
515.772
-96.8271
2.86088
502.537
-80.443
-0.44581
479.29
-59.3622
-1.24034
450.582
-34.2358
5.6101
432.609
-16.9013
1.98631
-12.0189
-4.98783
-296.722
-55.6429
0.533934
-296.131
-67.2627
-2.4317
-71.0911
-72.3282
-1.97512
-72.4539
-71.8039
-73.1063
0.176519
-29.8744
-0.369983
48.704
-17.69
-17.1893
-17.736
-17.2526
0.236131
5.98091
30.2259
-7.81856
-0.125922
587.485
-77.3932
-5.11168
-144.049
-147.174
-145.112
-147.628
590.819
-75.0826
-4.53069
592.272
-72.4186
-4.54344
591.476
-69.3793
-4.51535
588.035
-66.0007
-3.4408
580.932
-60.7118
-4.00264
570.419
-54.0967
-1.45008
555.03
-39.1477
-0.926086
524.548
-15.692
-4.01596
483.594
6.10488
6.01957
20.3034
-1.08654
-293.65
3.14248
-1.29753
-291.415
0.0942614
-2.00701
-71.7267
2.51348
-1.21146
-72.3747
-72.1745
-72.8703
0.503631
19.1937
-8.2545
-0.198853
-17.9403
-17.8695
-17.8904
-17.9393
0.469146
3.95348
37.1789
-2.8522
-0.382083
598.409
-2.42595
-4.69918
-148.603
-150
-149.206
-150.585
598.052
-2.46911
-4.55898
597.078
-3.00447
-4.40489
595.95
-3.46213
-4.0316
595.199
-2.88721
-3.25412
594.469
-1.20459
-3.56471
592.845
1.52173
-3.61888
588.642
5.59697
-0.480485
578.579
11.7075
-2.76573
551.789
31.5898
3.3864
53.9514
4.81231
-291.521
65.0218
-3.25699
-290.277
68.251
-3.08987
-71.7651
75.6026
-2.14631
-71.9224
-72.3815
-72.5903
1.13187
-0.743597
9.48414
-0.732029
-18.0514
-17.7742
-17.9985
-17.812
0.457857
0.0757928
37.4794
0.818383
-0.38142
607.587
71.9568
-5.10718
-151.034
-151.783
-151.772
-152.623
607.644
69.8394
-4.04437
608.141
66.467
-3.59058
608.872
64.5773
-3.98452
609.171
63.3494
-3.97073
609.579
62.3908
-3.27151
609.165
62.0744
-3.32263
607.022
61.7994
-2.27242
602.531
61.7704
-2.64177
592.239
67.7033
-0.861013
86.4552
3.50566
-297.114
140.689
-2.63862
-295.236
162.515
-3.05826
-71.8737
176.191
-1.58749
-72.1901
-72.5191
-72.8392
1.2906
-20.0506
30.4035
-0.970913
-18.1002
-17.8749
-18.0557
-17.9439
0.448556
-3.86598
37.947
5.27979
-0.362807
617.132
189.185
-0.652576
-152.708
-152.712
-153.715
-153.984
619.282
180.558
-4.11152
619.58
170.785
-7.01138
620.763
161.809
-4.73174
622.117
153.051
-0.273981
622.208
145.374
0.807793
622.643
138.244
-2.35054
621.807
131.179
-3.64774
618.404
124.397
-2.90023
612.704
119.765
-0.283686
126.258
4.30998
-283.576
211.533
-3.88713
-268.268
258.327
-4.73637
-64.6438
281.732
-2.27031
-51.943
-65.4305
-52.6022
-52.6216
1.02723
-60.5327
68.1912
-0.857771
0.437371
8.22092
-7.20163
33.3871
-0.594963
0.482227
3.96104
-2.81243
36.4796
-0.39715
0.477209
-0.0227673
0.928013
36.8749
-0.395096
0.44484
-4.02584
5.40446
37.5691
-0.370731
-8.9316
-13.0714
3.11543
125.337
134.581
-1.72093
-15.3403
-8.90587
-15.3172
-18.0637
-13.1963
-18.1603
584.198
361.452
-13.6632
-138.827
-122.426
-140.259
-124.789
598.494
307.509
-10.5303
606.611
284.466
1.59019
610.649
262.283
6.82165
618.023
242.355
-0.261039
623.28
225.827
-7.35178
625.25
211.766
-7.49992
628.009
198.714
-1.6146
627.822
189.067
1.18231
623.673
176.921
1.11564
173.297
3.4144
-240.055
263.061
-2.91878
-199.526
318.875
-2.1173
-168.981
341.758
-2.9107
-134.939
476.239
-0.201692
-92.27
-116.162
-92.6668
-117.338
-77.5952
581.428
-5.37749
-142.927
-145.389
-144.296
-146.83
-0.60234
591.325
-4.757
-146.387
-147.994
-147.976
-149.588
75.1943
601.669
-4.39623
-149.227
-150.222
-150.877
-151.933
199.425
611.358
-1.17785
-152.305
-153.432
-153.977
-155.297
342.277
588.495
-5.44928
-143.782
-130.964
-145.194
-132.219
472.115
500.785
-29.7377
535.218
403.194
20.4412
560.802
363.715
19.8107
577.357
343.065
-1.36727
588.921
315.432
-14.5403
600.109
293.305
-10.0713
606.019
276.3
0.136113
610.531
257.98
8.87332
618.016
246.401
4.35801
621.514
231.749
-1.84715
220.176
-0.372119
-195.516
299.197
-3.74016
-154.894
354.206
-3.51997
-155.375
379.057
-0.245084
-136.602
506.235
-5.22887
-75.1272
584.096
-4.97509
-0.61934
590.51
-4.76161
72.6802
600.94
-3.67408
182.758
610.904
-3.87429
303.772
595.453
-10.8095
390.205
546.124
21.7829
456.532
477.231
35.6603
521.712
431.869
-8.12729
543.17
404.47
-23.5811
551.475
377.82
-11.782
563.597
352.24
7.64089
575.908
334.429
12.4913
587.572
318.159
4.08799
600.293
299.097
-3.60893
610.863
285.405
-5.96704
264.674
0.240789
-163.514
324.644
-0.155574
-129.072
374.537
1.37002
-143.129
403.63
1.92509
-132.025
515.885
-5.12225
-72.2573
585.317
-5.33179
-1.07053
589.219
-4.72401
68.9918
600.858
-3.93715
171.537
610.205
-6.08025
277.927
600.627
0.55879
357.609
560.092
19.7486
420.486
528.19
-4.16826
479.992
491.533
-31.4432
512.402
454.809
-7.92925
517.905
423.029
17.6137
527.795
399.73
20.7157
548.782
384.649
6.01032
568.966
369.299
-11.0908
582.094
348.092
-7.58475
593.29
332.963
-3.60314
307.707
-1.3522
-143.115
342.091
0.394135
-115.999
385.482
2.77902
-130.734
421.408
2.81724
-122.357
519.18
-2.2848
-69.1344
584.374
-5.25019
-1.84178
587.502
-4.66182
66.1716
600.951
-4.61499
160.951
611.204
-3.81449
256.419
603.488
6.51972
333.684
573.741
0.441429
392.879
539.872
-20.8534
440.212
513.297
-8.21751
478.289
484.812
30.1997
503.129
456.632
28.5422
522.057
437.707
13.7542
537.312
423.165
-3.55457
548.371
406.94
-10.0115
555.788
383.673
1.78771
568.289
370.538
3.57245
346.631
2.04165
-125.093
350.093
-0.91256
-102.744
386.701
0.421648
-116.816
432.088
0.396709
-110.804
517.852
1.38859
-65.7245
580.828
-3.92135
-1.61817
586.119
-4.28628
64.2186
600.992
-4.33846
151.546
612.144
-0.503705
237.162
610.375
0.579127
308.062
585.229
-11.3129
368.994
547.023
-10.6802
414.345
512.178
13.9648
447.323
499.742
26.6785
486.836
492.358
6.45829
512.512
476.628
-5.10914
517.933
453.78
-7.15099
520.278
430.991
0.361128
527.476
409.096
11.9935
542.031
403.724
10.1598
382.257
6.31604
-109.408
354.965
-1.31439
-86.2429
379.404
-0.77757
-99.391
432.188
-0.38764
-97.8771
513.168
2.83094
-60.2344
573.834
-3.87092
-0.0121238
584.745
-4.84154
62.6999
601.163
-3.70269
143.762
611.777
-0.180496
221.61
615.841
-4.8026
287.437
595.486
-7.16694
344.429
559.912
7.72829
390.397
520.999
18.8712
425.597
511.116
11.318
462.703
504.509
-5.92347
489.363
490.564
-8.09627
496.341
465.845
6.9519
503.188
445.594
18.1023
511.861
432.111
19.5297
527.774
431.238
13.0323
411.868
6.23815
-95.4735
361.067
0.754846
-75.1466
377.052
1.96811
-79.9141
423.167
1.5391
-81.3823
501.044
0.250635
-53.981
563.738
-0.478828
2.40255
582.747
-4.55047
61.8752
600.62
-3.63277
136.098
611.788
-3.46801
207.977
617.379
-5.01814
271.679
600.878
2.36868
327.625
573.467
13.4996
375.051
542.265
7.70668
409.558
523.23
-2.04463
442.642
504.196
-7.52755
461.551
487.792
4.47815
473.613
470.722
26.4023
487.168
461.253
27.2461
505.562
455.877
20.4304
516.334
448.862
14.6732
430.214
11.1963
-88.2428
368.198
1.7955
-67.4049
379.191
3.40555
-60.0862
409.374
4.02952
-60.4949
477.914
0.14743
-39.8081
548.8
-0.357863
6.30949
578.622
-1.53907
61.3316
598.517
-2.44515
128.988
610.714
-4.20687
194.851
619.137
-0.00176815
253.868
605.622
10.9381
312.412
584.727
7.20867
361.289
561.991
-6.41946
396.043
536.584
-6.05392
420.792
506.774
-0.467095
438.228
491.734
14.8943
456.596
481.313
26.9004
480.167
480.091
20.5244
495.111
472.943
12.1337
501.245
459.117
13.6191
441.965
15.0777
-84.6048
376.547
1.22857
-63.9049
384.586
2.96441
-48.7948
403.622
2.79902
-36.3171
448.159
9.14439
-16.4948
518.826
-2.39444
12.8084
568.873
-3.62036
61.3119
594.047
-2.75556
122.154
607.209
-3.40765
184.996
618.278
1.91438
241.912
612.719
6.65707
293.573
596.406
0.0427727
340.1
575.142
-2.95244
374.599
547.436
4.20064
402.009
516.671
12.2115
426.414
500.924
19.2677
448.581
496.194
18.9192
469.979
490.225
10.9242
479.669
478.087
6.97769
485.639
461.439
11.0371
449.555
11.5549
-79.6873
386.186
0.408911
-64.0909
391.824
1.44932
-44.5718
402.697
1.01569
-18.7014
431.081
4.24413
5.69045
477.552
9.84143
31.6757
541.766
4.22493
66.9399
583.304
-0.220237
117.578
601.211
-0.425597
172.164
613.631
1.61133
226.625
615.234
0.38116
279.437
605.76
-2.46721
326.614
587.3
-0.436372
364.575
562.325
6.88696
398.77
534.068
13.4855
426.059
518.408
14.2944
442.94
507.26
13.0893
455.271
494.946
12.0694
460.902
481.91
10.5589
467.077
466.257
12.3305
458.339
14.1803
-72.3424
-1.07973
-61.8498
-0.432559
-43.4184
-0.737578
-14.0351
-4.94469
19.1068
0.874546
52.6194
5.94386
84.9447
4.9028
124.062
4.84159
168.721
4.02023
215.048
1.42314
259.013
3.19422
302.159
2.5746
341.77
6.79214
377.361
10.756
406.774
8.85348
425.57
11.857
438.868
16.1204
448.646
12.3018
458.604
14.6208
18.0853
-149.368
-149.222
3.78182
-121.438
-149.304
7.14271
-121.357
-189.131
11.3587
-106.604
-249.817
5.13343
-58.2744
-306.468
1.47016
3.24794
-299.448
-0.301117
65.5387
-297.07
-1.06561
141.691
-302.816
-0.915097
212.744
-289.29
-0.874369
265.041
-244.522
1.42292
302.183
-199.466
1.11498
326.892
-165.877
4.23682
344.745
-144.087
4.72002
354.356
-127.229
3.36783
359.453
-112.424
1.96659
364.895
-100.051
3.04005
371.492
-90.5967
3.23492
379.153
-86.0649
2.42823
388.268
-80.7641
1.46761
-73.9712
0.317976
-148.382
-118.887
7.48218
-151.298
-148.098
8.76711
-192.678
-224.948
20.7528
-145.029
-271.542
3.73057
-65.5138
-301.273
-0.148003
0.908853
-297.414
-0.461101
68.7748
-296.103
-1.00032
163.898
-300.626
-1.17007
259.636
-273.753
-1.76851
321.581
-203.292
4.29919
357.833
-157.349
2.39248
377.64
-132.431
7.00999
389.51
-113.75
8.18617
392.71
-101.55
5.19415
387.686
-86.7444
2.78276
383.775
-76.2778
4.00078
384.975
-67.0442
4.30445
388.58
-63.4456
3.37124
394.647
-63.9457
1.95069
-61.9077
0.72089
-185.411
-116.657
10.262
-227.001
-192.368
19.6109
-230.169
-229.419
4.54337
-165.131
-67.5395
0.667117
-69.6329
-67.7714
-69.8109
-69.7542
-74.2699
0.885721
-74.7315
-74.6366
-74.8196
2.53203
-73.4584
0.67616
-73.9754
-73.5747
-74.2164
75.7309
-73.3041
-0.623283
-73.5914
-73.5828
-73.8103
177.394
-73.4035
0.073516
-73.7184
-73.5531
-73.6862
283.465
-66.9049
-0.134192
-54.2353
-66.1286
-53.7225
344.865
-171.512
4.68412
385.218
-157.634
4.74877
413.802
-147.395
4.38808
431.184
-132.829
6.10539
440.851
-117.548
4.13563
441.665
-99.0175
2.18594
433.736
-78.4838
2.53995
418.812
-58.2466
3.3498
410.51
-47.2914
2.32284
409.163
-43.0611
0.811855
-41.5468
-0.0876983
-244.163
-103.231
5.65508
-267.665
-144.488
2.74523
-67.5449
-167.87
-2.32632
-68.8008
-67.786
-68.9001
-0.848337
-61.6003
-61.1239
1.15889
-0.214116
-28.4172
0.855551
49.3182
-18.8479
-19.0908
-18.8176
-19.1408
-0.398474
18.601
-8.31569
0.462869
-18.3621
-18.3771
-18.3309
-18.4567
0.271643
-0.600468
9.4934
-0.199655
-18.4221
-18.1318
-18.3788
-18.1782
0.285675
-20.2233
30.7153
-0.148334
-18.6055
-18.2196
-18.5706
-18.2497
-54.0396
-0.386708
68.1621
-62.9228
0.909481
489.775
-136.37
1.48565
-93.435
-116.861
-94.6111
-121.721
523.908
-138.046
0.23399
536.794
-134.764
-1.42183
540.642
-124.632
-0.502629
539.67
-112.66
2.19672
534.871
-99.4812
3.76519
522.177
-83.8011
1.26087
498.469
-64.0188
-0.612083
469.291
-37.4596
5.58403
445.195
-17.5022
4.40445
-12.3198
-3.67945
-305.627
-58.6276
0.638314
-301.318
-67.3501
-1.68177
-72.8247
-72.4284
-1.0715
-73.9661
-73.4985
-74.305
0.358039
-30.0107
-0.81242
49.2819
-18.1299
-17.6191
-18.0038
-17.6751
0.0935156
5.8996
31.012
-7.80751
-0.0668693
603.783
-78.388
-2.86954
-146.664
-149.52
-150.522
-152.597
608.215
-76.5866
-2.47328
611.158
-73.5685
-2.65746
611.525
-70.3862
-3.31519
608.811
-67.2842
-2.6828
602.238
-62.8613
-3.41029
591.436
-57.2169
-1.54425
577.609
-44.3043
0.312852
550.175
-20.5696
-3.63578
509.519
2.18753
5.66177
19.1302
0.46486
-299.637
2.16881
-0.826338
-297.395
0.0784832
-1.52957
-72.9459
2.53903
-0.865027
-73.6332
-73.5013
-73.9053
-0.0765429
19.1372
-8.20602
0.117972
-18.3161
-18.1793
-18.2326
-18.2156
0.21469
3.96729
37.5966
-2.87026
-0.192648
615.567
-2.93348
-2.54895
-151.135
-152.661
-154.114
-155.744
616.307
-3.07762
-2.46138
616.015
-3.43797
-2.40524
615.309
-3.89933
-2.30055
614.874
-3.69754
-1.93776
614.654
-2.47011
-2.15251
613.854
-0.0822595
-3.10925
610.827
3.7613
-0.606766
603.043
8.10094
-2.19422
581.301
25.9881
1.89926
51.2515
4.53542
-297.497
64.5175
-1.90848
-296.039
68.1273
-1.81813
-73.2818
75.4456
-1.44017
-73.5176
-73.5142
-73.833
0.500995
-0.803983
9.55996
-0.364329
-18.4165
-18.117
-18.3692
-18.1509
0.235607
0.068329
38.013
0.826476
-0.219301
626.483
71.9504
-2.43503
-154.042
-155.079
-157.135
-158.232
627.833
70.1417
-2.02564
628.941
66.8162
-1.45956
630.472
64.2004
-1.8915
631.013
62.6162
-2.57974
631.598
61.3367
-2.40178
631.701
61.157
-2.66248
630.392
60.8914
-2.14046
627.131
60.2662
-2.36327
619.727
64.0517
-1.18753
82.5113
3.14739
-302.971
140.862
-1.69307
-300.514
162.483
-1.95946
-73.4381
176.1
-0.688408
-73.7458
-73.7559
-74.1204
0.746321
-20.1596
30.4753
-0.55197
-18.6668
-18.2318
-18.5819
-18.2831
0.188078
-3.87458
38.6566
5.30138
-0.169101
636.984
190.464
1.3744
-156.44
-156.464
-159.579
-159.993
640.177
181.791
-0.805415
641.43
171.683
-4.69936
641.79
162.486
-4.20362
643.43
154.676
-0.225845
644.127
145.864
1.85821
644.84
139.037
-0.638496
644.73
131.731
-3.84575
642.558
124.546
-4.4991
638.568
118.864
-1.91119
123.562
2.66625
-290.402
212.36
-1.7613
-275.027
258.151
-1.98828
-66.9017
280.323
0.250242
-54.5362
-67.1943
-54.7621
-53.6316
1.21035
-62.5283
67.7846
-0.207024
0.29096
5.8535
-7.79137
30.8035
-0.25421
0.208169
3.89888
-2.7642
37.3735
-0.179309
0.198826
-0.0297974
0.91805
37.7968
-0.168578
0.189682
-3.98429
5.3682
38.4998
-0.162052
-11.6049
-9.93191
1.11324
135.279
130.933
-0.925903
-16.6631
-11.5937
-16.6815
-16.7594
-10.226
-16.9606
604.427
357.015
-5.3976
-145.558
-130.133
-146.38
-130.297
617.442
303.109
-9.61129
628.572
283.932
2.7615
635.091
265.436
10.2506
640.903
246.164
5.31739
645.701
228.627
-3.87423
646.842
213.452
-7.64217
650.117
200.095
-2.53286
651.997
190.318
0.906767
649.756
178.657
1.15373
172.756
2.69852
-245.951
264.647
0.0707191
-203.464
320.02
2.43428
-173.696
341.355
0.693426
-134.282
481.937
0.927578
-92.8666
-115.68
-93.1923
-116.903
-75.734
596.526
-3.02843
-145.197
-148.365
-146.972
-150.243
-0.814627
608.912
-3.31182
-149.908
-151.564
-151.983
-153.677
74.312
619.734
-2.70208
-152.92
-153.944
-155.042
-156.145
198.293
630.698
0.417908
-155.936
-157.315
-158.099
-159.128
354.704
601.84
-2.85036
-143.688
-129.254
-147.083
-134.026
484.935
500.812
-32.1989
551.799
402.378
18.0676
580.631
362.534
26.7289
602.403
344.934
8.06571
613.209
319.844
-10.48
620.975
296.264
-9.48604
628.419
280.073
0.142089
633.793
261.853
10.9662
640.574
248.472
8.40609
645.921
235.537
-0.936831
220.407
-1.38678
-200.664
301.809
-1.92239
-158.504
356.886
-0.951313
-158.531
382.18
1.39265
-136.607
516.958
-1.41261
-74.3717
601.043
-2.64938
-0.670577
609.541
-3.21
72.8724
620.751
-2.48133
184.292
632.166
-1.45305
308.967
611.725
-10.8878
404.016
561.812
19.6896
469.961
482.017
42.1891
531.845
428.515
4.4294
560.348
403.105
-21.7659
572.002
379.55
-14.1695
587.377
357.73
8.29982
600.694
338.51
18.0399
611.032
322.048
10.4566
621.495
301.902
-0.872566
631.73
289.207
-6.06745
266.916
-0.272237
-168.363
327.166
-0.344416
-136.499
378.288
0.701173
-151.116
412.556
1.64484
-135.092
531.704
-2.26323
-71.5595
604.233
-3.12268
-0.84555
609.194
-3.02673
69.7371
621.576
-2.22473
172.653
632.437
-4.47028
283.169
620.469
-0.660176
368.114
582.731
22.5025
428.253
541.375
5.31836
477.983
486.813
-30.099
520.255
450.584
-14.6453
538.218
427.651
15.9397
547.295
407.318
25.0984
566.039
388.823
13.7742
585.3
372.659
-8.47938
598.62
351.662
-9.98682
612.574
337.95
-2.71281
311.745
0.864796
-146.952
345.199
0.959457
-118.484
390.828
2.64597
-138.236
431.818
2.02695
-126.197
536.739
-1.41749
-68.598
605.154
-3.75468
-1.42437
608.217
-2.98957
66.8316
622.504
-2.70216
162.353
632.993
-3.46362
261.838
625.542
6.4261
343.892
599.488
4.25796
401.257
559.454
-19.0231
444.586
521.681
-11.9487
489.553
494.413
30.4853
513.316
460.8
38.3964
531.807
444.587
16.6628
546.91
426.57
-6.28597
560.216
412.727
-13.519
573.929
390.835
-0.502535
587.67
376.143
8.85762
351.303
5.46724
-129.642
354.044
0.805134
-106.195
393.624
1.52799
-124.057
442.685
0.715384
-114.594
536.62
0.401142
-65.438
603.169
-2.84157
-1.60257
607.352
-2.80777
64.8036
623.063
-3.05208
153.925
634.989
-0.165017
241.791
631.843
2.28276
316.05
607.838
-11.7773
375.869
568.256
-13.5484
422.978
532.249
13.5643
456.085
509.842
36.1761
495.271
497.886
18.1056
523.037
482.728
-9.9846
530.169
459.956
-12.3645
535.275
441.992
-1.00019
542.674
418.855
15.4682
555.195
410.165
13.1817
387.54
5.42696
-114.168
358.509
0.208996
-90.2977
387.457
-0.126113
-106.115
443.784
-0.263593
-101.925
532.519
1.53104
-61.108
597.398
-3.48108
-0.610898
606.799
-3.06385
63.1005
623.784
-2.83881
145.68
635.5
1.22944
224.984
637.756
-4.51759
292.438
615.377
-9.36082