/*--------------------------------*- C++ -*----------------------------------*\
  =========                 |
  \\      /  F ield         | OpenFOAM: The Open Source CFD Toolbox
   \\    /   O peration     | Website:  https://openfoam.org
    \\  /    A nd           | Version:  9
     \\/     M anipulation  |
\*---------------------------------------------------------------------------*/
FoamFile
{
    format      ascii;
    class       volScalarField;
    location    "0.0065";
    object      rho;
}
// * * * * * * * * * * * * * * * * * * * * * * * * * * * * * * * * * * * * * //

dimensions      [1 -3 0 0 0 0 0];

internalField   nonuniform List<scalar> 
9720
(
6.45067
6.12559
5.89379
4.73839
4.23301
4.11925
4.02944
3.59856
3.01606
2.4669
2.05784
1.81484
1.70315
1.73159
1.81002
1.90407
2.02561
2.14762
2.25783
2.37491
6.13578
5.87346
5.04289
3.49154
3.51072
3.91581
3.9531
3.40717
2.49031
1.71252
1.29616
1.17737
1.21738
1.32597
1.49668
1.68162
1.85447
2.00727
2.14056
2.27102
5.89206
5.14839
3.1124
2.48123
3.30586
3.9605
4.00446
3.35026
2.05549
1.1892
0.941181
0.978765
1.06354
1.20274
1.4083
1.67407
1.95346
2.15359
2.31437
2.39914
4.73588
3.47557
2.46307
2.05939
2.75572
3.91629
4.18139
3.71307
1.93591
0.634052
0.671238
0.757177
0.878246
1.01224
1.17295
1.40267
1.72635
2.09116
2.41295
2.51185
4.17778
3.4167
3.20769
2.73097
0.493554
0.751037
0.805103
0.852298
0.898938
0.954667
1.0271
1.12805
1.29062
1.59869
2.0384
2.45157
4.01858
3.79747
3.85842
3.82102
0.955659
0.958622
0.946305
0.945917
0.948802
0.957631
0.974211
1.00429
1.07151
1.21727
1.4814
2.05995
3.92232
3.83004
3.8913
4.076
1.01309
0.950439
0.94158
0.936626
0.93046
0.930587
0.933267
0.943984
0.970212
1.02655
1.14579
1.59206
3.49686
3.29364
3.23433
3.60772
0.864247
0.67676
0.70919
0.733639
0.749371
0.763886
0.778203
0.796159
0.823594
0.867647
0.935424
1.22435
2.92419
2.3857
1.94734
1.76899
0.496248
0.917601
0.982451
0.826699
0.119132
0.195828
0.307728
0.410401
0.489882
0.544554
0.592782
0.636885
0.676027
0.719463
0.770775
0.961851
2.3896
1.64053
1.1308
0.613498
0.723547
0.923242
0.9149
0.655166
0.210908
0.0897982
0.11762
0.183106
0.267952
0.352735
0.426888
0.492358
0.546187
0.591001
0.635007
0.774831
1.99667
1.25404
0.920173
0.654858
0.774379
0.908877
0.905249
0.689737
0.323955
0.125979
0.0805106
0.0906831
0.136438
0.211401
0.289603
0.358212
0.417719
0.475572
0.521018
0.640213
1.75795
1.14468
0.962662
0.74427
0.819267
0.907138
0.899532
0.714699
0.423001
0.199811
0.097461
0.0844231
0.09278
0.126956
0.182179
0.242967
0.306476
0.374475
0.423419
0.526126
1.65766
1.18564
1.04642
0.86398
0.865128
0.910737
0.896395
0.731182
0.497707
0.286031
0.150717
0.097588
0.094596
0.0998514
0.119447
0.162386
0.222957
0.292647
0.341932
0.431979
1.69191
1.29531
1.17852
0.991433
0.922773
0.921803
0.898566
0.746243
0.548745
0.36885
0.228505
0.13967
0.103425
0.102337
0.111752
0.136573
0.179864
0.232358
0.275147
0.358879
1.77867
1.47028
1.37494
1.14346
0.996573
0.941759
0.904928
0.761784
0.593815
0.440146
0.306397
0.199001
0.130703
0.114517
0.120043
0.137955
0.158884
0.187788
0.224188
0.30492
1.87867
1.66584
1.63789
1.3572
1.09798
0.975211
0.919629
0.781355
0.636825
0.503406
0.374873
0.261975
0.179965
0.144399
0.139418
0.144267
0.153774
0.171873
0.200345
0.272952
2.0038
1.84547
1.92593
1.6668
1.25606
1.04397
0.949972
0.810971
0.676086
0.556233
0.43522
0.327712
0.243287
0.192931
0.165088
0.155719
0.159139
0.174289
0.198879
0.255275
2.1272
1.99452
2.13154
2.0303
1.54772
1.18721
1.01065
0.857591
0.720829
0.601494
0.494154
0.39784
0.314531
0.249203
0.200065
0.177125
0.177604
0.187481
0.205368
0.245738
2.23514
2.12406
2.28988
2.35361
1.97401
1.44927
1.13309
0.927428
0.774646
0.646704
0.541097
0.447896
0.364163
0.293968
0.240409
0.210388
0.204206
0.208757
0.217716
0.247389
2.34237
2.24598
2.36911
2.46404
2.38158
2.01173
1.57277
1.21728
0.971002
0.790911
0.663504
0.552447
0.456093
0.381044
0.325049
0.288883
0.26698
0.253523
0.253443
0.267938
6.33306
5.98339
5.70109
4.4915
4.0412
4.00442
3.93184
3.50756
2.92841
2.38585
1.97932
1.74004
1.62247
1.64817
1.72867
1.82674
1.94719
2.07017
2.18286
2.30379
5.99276
5.76884
4.56536
3.21179
3.41792
3.845
3.87223
3.3311
2.41731
1.64452
1.23476
1.11312
1.1459
1.24412
1.40816
1.59616
1.77317
1.92849
2.06613
2.20208
5.73681
4.68989
2.80786
2.33106
3.28609
3.90011
3.93492
3.28102
1.98724
1.12267
0.878174
0.914323
0.995902
1.12522
1.31518
1.56733
1.84944
2.0609
2.22933
2.33012
4.5221
3.23266
2.30593
1.92068
2.8379
3.8415
4.08543
3.63854
1.90084
0.595676
0.626364
0.701622
0.812097
0.93676
1.08469
1.29685
1.60615
1.96444
2.28579
2.43318
3.99593
3.29236
3.11626
2.58424
0.47605
0.717166
0.764484
0.802634
0.841237
0.888827
0.952633
1.04355
1.18832
1.46502
1.88146
2.32669
3.90057
3.71402
3.78967
3.74222
0.904167
0.917548
0.904273
0.893915
0.89405
0.897735
0.908491
0.932141
0.988128
1.11288
1.34537
1.90533
3.82186
3.75464
3.83057
3.99247
0.961252
0.91077
0.898025
0.887125
0.877897
0.872641
0.873351
0.880011
0.900312
0.946213
1.04438
1.44501
3.40611
3.23211
3.18739
3.54162
0.818947
0.643618
0.671093
0.693083
0.706091
0.715134
0.724199
0.737644
0.761283
0.799838
0.85654
1.10479
2.83958
2.33003
1.90518
1.76747
0.473736
0.865775
0.926805
0.774813
0.112527
0.179831
0.285278
0.380658
0.452344
0.500513
0.544922
0.586833
0.62195
0.658915
0.702576
0.866219
2.30604
1.58006
1.08288
0.580566
0.688774
0.88132
0.873068
0.620058
0.193766
0.0803877
0.105401
0.162662
0.236909
0.316018
0.386621
0.446939
0.495339
0.535878
0.576487
0.700258
1.91549
1.18811
0.850944
0.612539
0.734852
0.867735
0.861683
0.64999
0.298064
0.111821
0.0694057
0.0775798
0.117705
0.185561
0.256483
0.317668
0.371238
0.426799
0.470398
0.577687
1.68257
1.07432
0.888092
0.686419
0.771407
0.85715
0.851966
0.673519
0.389059
0.175259
0.0826793
0.0725428
0.0800874
0.110433
0.159087
0.212493
0.269982
0.333295
0.379089
0.473995
1.57936
1.1085
0.966117
0.791385
0.807935
0.857828
0.842842
0.686366
0.457504
0.252081
0.128526
0.0835759
0.0796483
0.0838452
0.102357
0.14053
0.193611
0.254214
0.301458
0.38945
1.61016
1.20937
1.09043
0.907614
0.85413
0.863219
0.842505
0.696576
0.504445
0.330401
0.198585
0.118581
0.0858063
0.0852676
0.0920807
0.111911
0.148504
0.197891
0.242791
0.323847
1.6964
1.38007
1.27602
1.04573
0.916269
0.876158
0.844889
0.707367
0.546883
0.398538
0.269526
0.171022
0.109933
0.0944557
0.0979015
0.112285
0.131536
0.162604
0.19773
0.27293
1.79616
1.57747
1.53133
1.24283
1.00519
0.901288
0.854138
0.72286
0.587142
0.456941
0.332488
0.228258
0.154423
0.119406
0.113766
0.118798
0.130341
0.14726
0.17356
0.241041
1.91506
1.75602
1.82009
1.54229
1.144
0.956238
0.877131
0.747851
0.622031
0.505854
0.389113
0.290207
0.212254
0.162016
0.138209
0.132128
0.135426
0.149
0.170833
0.222973
2.0325
1.90028
2.02671
1.90371
1.40977
1.07684
0.925569
0.787507
0.659742
0.548472
0.447774
0.357983
0.276982
0.216123
0.175509
0.152825
0.152482
0.160004
0.175817
0.216425
2.13836
2.02793
2.18826
2.22301
1.81912
1.30871
1.02604
0.845544
0.705393
0.590522
0.493464
0.406174
0.326625
0.263397
0.21444
0.184217
0.176271
0.179129
0.187965
0.219034
2.24709
2.15201
2.2795
2.37603
2.2575
1.85625
1.42282
1.09631
0.874518
0.717931
0.603301
0.502527
0.415904
0.346689
0.292722
0.256827
0.234156
0.223291
0.224281
0.240275
6.33296
5.97792
5.72935
4.36497
3.92999
3.96224
3.90089
3.47335
2.89755
2.35633
1.94373
1.70866
1.58529
1.60719
1.6855
1.78668
1.90593
2.0304
2.1455
2.26778
5.94303
5.95703
4.17396
2.99822
3.37453
3.83659
3.84568
3.29433
2.38609
1.62306
1.20595
1.08373
1.11295
1.20388
1.35923
1.54606
1.72751
1.89017
2.03131
2.16703
5.74113
4.26964
2.55383
2.21974
3.27545
3.8811
3.90061
3.23558
1.94014
1.10079
0.845055
0.877432
0.962404
1.09166
1.2709
1.51146
1.79946
2.02137
2.20348
2.30952
4.34393
2.95546
2.16165
1.80157
2.81583
3.81633
4.04471
3.59328
1.81539
0.5754
0.605521
0.6738
0.777498
0.899552
1.04514
1.25347
1.56186
1.92454
2.26848
2.42668
3.84957
3.21931
3.09237
2.52713
0.438168
0.697527
0.741425
0.774448
0.808426
0.853067
0.916445
1.0085
1.14284
1.39555
1.80741
2.29893
3.84201
3.6963
3.75884
3.71407
0.883814
0.901099
0.88443
0.871145
0.87123
0.875214
0.885633
0.907048
0.955456
1.06307
1.2674
1.82683
3.78557
3.7359
3.80356
3.95136
0.942388
0.894468
0.877968
0.865248
0.855739
0.854298
0.855957
0.86226
0.880167
0.917138
0.995849
1.35685
3.37214
3.21392
3.17296
3.50329
0.797477
0.630446
0.653654
0.673102
0.68722
0.697146
0.707834
0.721317
0.744201
0.779439
0.82648
1.03758
2.80679
2.322
1.91036
1.7845
0.426146
0.84608
0.90397
0.758088
0.104274
0.174059
0.275692
0.364405
0.432885
0.481432
0.524785
0.569222
0.607317
0.643651
0.681464
0.818813
2.27177
1.56659
1.07557
0.549834
0.667922
0.868546
0.858314
0.602813
0.176472
0.0723098
0.0965375
0.15094
0.218899
0.293921
0.364877
0.426111
0.478698
0.521626
0.559813
0.669556
1.86589
1.14653
0.804913
0.577341
0.712551
0.853478
0.844311
0.629404
0.275528
0.0991708
0.061912
0.0697768
0.104552
0.165325
0.234454
0.298468
0.353716
0.412075
0.457274
0.55551
1.63436
1.02772
0.831858
0.639976
0.744885
0.841286
0.833128
0.65178
0.3635
0.156691
0.072982
0.0633265
0.0696285
0.0973921
0.144383
0.196132
0.25217
0.316576
0.366192
0.455966
1.52852
1.05819
0.911324
0.734781
0.776749
0.84177
0.824957
0.667144
0.432901
0.227874
0.112566
0.072726
0.0679289
0.0716964
0.0889994
0.12533
0.175869
0.23767
0.287544
0.371813
1.55752
1.15304
1.0357
0.849399
0.81706
0.846178
0.825498
0.678015
0.482141
0.304643
0.176617
0.105169
0.0742926
0.0705523
0.0753233
0.0917436
0.127898
0.180151
0.22611
0.304577
1.64459
1.31723
1.21509
0.984552
0.874842
0.856791
0.82852
0.689502
0.525052
0.37484
0.246777
0.155183
0.0957976
0.0773111
0.0793361
0.0920021
0.112041
0.143365
0.177826
0.251412
1.75234
1.51949
1.46448
1.17357
0.960611
0.877068
0.836571
0.704219
0.567611
0.434548
0.310651
0.20862
0.136142
0.0993042
0.0940617
0.0997599
0.111674
0.127272
0.1518
0.218774
1.87301
1.71066
1.7698
1.47003
1.0856
0.920504
0.855585
0.727428
0.604081
0.485723
0.366816
0.267087
0.19053
0.140845
0.118615
0.113382
0.116075
0.128274
0.150197
0.203743
1.99665
1.87059
1.99852
1.8517
1.32493
1.02014
0.892759
0.761677
0.638768
0.527944
0.4266
0.335137
0.25608
0.196492
0.155423
0.132488
0.13151
0.138768
0.155744
0.197966
2.10776
2.00743
2.1801
2.2147
1.73945
1.22129
0.971081
0.808175
0.676563
0.566079
0.472508
0.386424
0.308489
0.244509
0.193306
0.162195
0.155166
0.158954
0.168665
0.200348
2.21807
2.13158
2.27872
2.38563
2.24119
1.77488
1.32903
1.02138
0.818387
0.678551
0.573387
0.478571
0.395367
0.325599
0.270264
0.234293
0.214981
0.204725
0.205325
0.220858
6.35622
6.00792
5.69936
4.25708
3.84568
3.93761
3.89328
3.46119
2.87773
2.33465
1.91869
1.69107
1.57112
1.59314
1.67363
1.78183
1.90388
2.03156
2.14875
2.26843
5.96107
6.07252
3.88292
2.85642
3.34358
3.83245
3.84626
3.28792
2.36639
1.6066
1.17379
1.05565
1.08485
1.17716
1.3351
1.52981
1.71937
1.89026
2.03672
2.16906
5.69891
3.9211
2.40643
2.1623
3.25768
3.87447
3.89869
3.2323
1.92117
1.08682
0.808586
0.835508
0.923164
1.061
1.24532
1.48636
1.78729
2.02292
2.2115
2.31792
4.19058
2.77022
2.10323
1.75711
2.68562
3.82127
4.04016
3.58478
1.72256
0.546012
0.576076
0.640208
0.736935
0.856007
0.997517
1.19926
1.50816
1.88899
2.27408
2.43546
3.73684
3.19957
3.13073
2.6128
0.468003
0.674903
0.721696
0.75468
0.784634
0.821664
0.875905
0.959098
1.081
1.30798
1.71435
2.26374
3.80451
3.70116
3.76156
3.7026
0.870974
0.881706
0.866391
0.854985
0.852201
0.854229
0.860772
0.874672
0.910367
0.99866
1.17142
1.71841
3.76825
3.73022
3.79522
3.9358
0.928786
0.873915
0.859667
0.847383
0.838733
0.834175
0.834909
0.837674
0.848585
0.874355
0.932558
1.24561
3.35516
3.19957
3.15662
3.48837
0.784203
0.608731
0.63291
0.651024
0.666535
0.677889
0.688311
0.699252
0.715959
0.742175
0.77864
0.953117
2.79292
2.30784
1.88467
1.72858
0.434923
0.850745
0.901103
0.752795
0.0963643
0.158408
0.25592
0.342914
0.412177
0.463574
0.504915
0.546596
0.584665
0.618819
0.650539
0.760841
2.26486
1.5664
1.066
0.534788
0.665831
0.868968
0.853994
0.597024
0.170975
0.0657623
0.0875418
0.138
0.20322
0.274225
0.344176
0.405877
0.460265
0.507196
0.539683
0.630174
1.84711
1.1319
0.783341
0.563399
0.712071
0.853049
0.840764
0.623517
0.268731
0.0921182
0.0560903
0.063835
0.0942066
0.147877
0.214311
0.2811
0.341314
0.400109
0.443323
0.530399
1.61773
1.00843
0.804803
0.623742
0.743955
0.839922
0.829979
0.643979
0.355395
0.148022
0.0667399
0.0572771
0.0631298
0.0865679
0.131167
0.185872
0.24165
0.303787
0.352445
0.437463
1.50675
1.03655
0.886882
0.715125
0.773448
0.839829
0.821999
0.661293
0.424281
0.216605
0.101945
0.0656675
0.0588037
0.0627631
0.0813339
0.117691
0.166218
0.223137
0.272831
0.356331
1.53054
1.12578
1.01594
0.828704
0.809413
0.842761
0.822228
0.674269
0.474257
0.2882
0.15993
0.0941412
0.0653701
0.0613104
0.0648263
0.0803317
0.114376
0.164069
0.210772
0.290074
1.61226
1.2803
1.19234
0.960733
0.861201
0.851076
0.824755
0.686199
0.513795
0.357306
0.228508
0.141895
0.0875861
0.0664996
0.0671479
0.0760005
0.0931055
0.124019
0.160714
0.235444
1.72677
1.48173
1.42748
1.14557
0.941114
0.866429
0.830256
0.698853
0.552773
0.416691
0.293306
0.196215
0.1254
0.0858599
0.0779447
0.0820072
0.093677
0.111167
0.135337
0.201221
1.84914
1.6792
1.73381
1.4347
1.0574
0.901798
0.844052
0.716368
0.588817
0.468302
0.350354
0.250711
0.17385
0.123582
0.0994926
0.0954138
0.0995069
0.113049
0.134721
0.187444
1.97553
1.85157
1.98419
1.81463
1.26724
0.986373
0.871814
0.742739
0.621924
0.512675
0.407907
0.313772
0.233873
0.176672
0.134902
0.11562
0.115931
0.123763
0.140143
0.181726
2.09188
1.99842
2.18206
2.22237
1.6621
1.15368
0.930761
0.780376
0.654418
0.5452
0.451951
0.364867
0.287229
0.225258
0.174264
0.144576
0.139559
0.143235
0.152556
0.184442
2.20851
2.12835
2.29522
2.41107
2.22689
1.69268
1.24218
0.958854
0.770744
0.640548
0.544893
0.45474
0.374691
0.307767
0.252929
0.216617
0.199283
0.188837
0.189673
0.206647
6.42339
6.08216
5.66601
4.18717
3.80646
3.93544
3.89974
3.46304
2.86907
2.32062
1.89722
1.67985
1.56913
1.59241
1.67439
1.79296
1.92079
2.05123
2.16938
2.28332
6.03071
6.13193
3.70606
2.78113
3.36605
3.85366
3.86109
3.29445
2.35517
1.5936
1.14682
1.03432
1.06743
1.16457
1.32605
1.53204
1.73395
1.91159
2.06173
2.18672
5.67025
3.74408
2.34715
2.14374
3.3112
3.89447
3.91046
3.23901
1.90397
1.07245
0.781831
0.806115
0.894577
1.03549
1.225
1.4709
1.78639
2.03774
2.2376
2.34051
4.11922
2.70041
2.06539
1.72748
2.7175
3.82891
4.04723
3.59857
1.75538
0.527941
0.558172
0.620309
0.713165
0.828321
0.964045
1.15878
1.46974
1.86315
2.28835
2.46149
3.69478
3.18469
3.11293
2.57304
0.416728
0.654341
0.703605
0.737965
0.768346
0.803366
0.852801
0.929166
1.04387
1.25793
1.65811
2.24894
3.79004
3.69769
3.75987
3.70968
0.841024
0.855709
0.843518
0.833981
0.834147
0.836294
0.84225
0.853236
0.88276
0.962201
1.11716
1.6488
3.76396
3.7314
3.79502
3.92971
0.892598
0.847042
0.836226
0.826356
0.820451
0.817369
0.818203
0.820601
0.829203
0.85041
0.898934
1.18122
3.35051
3.19415
3.14904
3.48418
0.755068
0.584889
0.6121
0.631739
0.648923
0.662462
0.673331
0.684132
0.69837
0.720154
0.752233
0.906653
2.78641
2.29349
1.85844
1.70298
0.422717
0.84781
0.89339
0.740478
0.0917255
0.148829
0.241141
0.327029
0.396952
0.449002
0.491828
0.531542
0.569165
0.60285
0.632306
0.728995
2.25967
1.55845
1.05233
0.525476
0.663287
0.866356
0.849372
0.59192
0.168093
0.0612375
0.082831
0.132412
0.194659
0.262479
0.33067
0.393357
0.448061
0.495377
0.526235
0.608139
1.8447
1.12816
0.776444
0.557561
0.711518
0.852021
0.838418
0.618845
0.264911
0.0888034
0.0544498
0.0612368
0.0873553
0.136134
0.203652
0.273412
0.333017
0.390224
0.432466
0.515754
1.62003
1.00689
0.798151
0.621042
0.745161
0.839851
0.829378
0.638166
0.349845
0.145502
0.0645519
0.0537421
0.0585817
0.0818172
0.1267
0.182165
0.235869
0.293144
0.34201
0.426194
1.50358
1.03421
0.883244
0.714031
0.775479
0.839789
0.821528
0.655723
0.418497
0.212367
0.0963657
0.0611216
0.0589655
0.064099
0.0817907
0.115537
0.158684
0.213933
0.265152
0.348246
1.52389
1.12206
1.01632
0.827973
0.81122
0.842777
0.82105
0.671117
0.469144
0.280325
0.149795
0.0888231
0.0661112
0.05786
0.0602934
0.0746047
0.107445
0.158247
0.205312
0.284375
1.60094
1.27312
1.19333
0.958837
0.861443
0.85094
0.823336
0.684864
0.508478
0.346583
0.218098
0.136274
0.0869603
0.0616388
0.0610954
0.0681659
0.0854547
0.117327
0.154453
0.228516
1.71284
1.46692
1.42099
1.14267
0.937492
0.864085
0.828618
0.698219
0.54549
0.407326
0.28527
0.191642
0.122392
0.0790607
0.0696674
0.0739071
0.0862073
0.104334
0.12813
0.193221
1.83662
1.66426
1.71939
1.43062
1.04896
0.895352
0.840705
0.713929
0.582483
0.461268
0.343886
0.244911
0.1654
0.114748
0.0902034
0.0877906
0.0924544
0.10619
0.128141
0.181869
1.9648
1.84269
1.97496
1.80402
1.24803
0.973923
0.864841
0.736988
0.617736
0.508597
0.401606
0.303314
0.222965
0.168551
0.126148
0.107858
0.108362
0.117131
0.13446
0.176166
2.08284
1.99568
2.17905
2.22165
1.62229
1.12268
0.914258
0.769817
0.648502
0.540186
0.445158
0.355069
0.277864
0.217875
0.166316
0.135477
0.13237
0.137171
0.146632
0.178581
2.19782
2.12385
2.2988
2.41783
2.20302
1.63644
1.19286
0.925917
0.749174
0.625526
0.533967
0.44501
0.366237
0.300982
0.244745
0.207511
0.193445
0.183247
0.183877
0.200923
6.42456
6.07771
5.644
4.17398
3.80365
3.93768
3.89911
3.4614
2.86731
2.3194
1.89162
1.67404
1.56809
1.59368
1.67894
1.80048
1.92934
2.06101
2.17926
2.29317
6.04143
6.13185
3.67923
2.76983
3.38713
3.86484
3.86328
3.29216
2.35198
1.59458
1.14384
1.03017
1.06476
1.1638
1.32699
1.5368
1.74166
1.92178
2.07173
2.19509
5.68712
3.73205
2.3329
2.13557
3.34941
3.90796
3.91023
3.23667
1.89764
1.07337
0.781759
0.804315
0.893564
1.03607
1.22488
1.47157
1.79316
2.04897
2.25114
2.3479
4.11589
2.69074
2.05534
1.711
2.81525
3.83796
4.04734
3.59954
1.73999
0.525667
0.556703
0.619974
0.713657
0.828855
0.964216
1.15741
1.46784
1.87252
2.3066
2.46916
3.68773
3.17094
3.094
2.49168
0.408757
0.648118
0.696609
0.731905
0.763859
0.800659
0.85123
0.927764
1.04191
1.2548
1.65982
2.25336
3.78577
3.69097
3.75462
3.70682
0.827595
0.850601
0.837212
0.827811
0.828417
0.831559
0.838795
0.850674
0.881017
0.96035
1.115
1.64725
3.76128
3.72801
3.79452
3.92763
0.875183
0.839847
0.828707
0.819535
0.813749
0.812725
0.814219
0.817717
0.827479
0.84895
0.896884
1.17678
3.34812
3.19462
3.15334
3.48144
0.736563
0.582309
0.60793
0.62731
0.644518
0.658297
0.669634
0.680814
0.695917
0.717942
0.749463
0.901997
2.78624
2.29595
1.86543
1.74295
0.399515
0.849642
0.893852
0.74087
0.0892214
0.151541
0.243163
0.327839
0.397046
0.448304
0.489313
0.528424
0.566422
0.600228
0.629449
0.724916
2.25917
1.55752
1.05349
0.521127
0.662073
0.86848
0.851548
0.589067
0.162717
0.0605265
0.0829804
0.13294
0.194974
0.261195
0.328732
0.390804
0.444866
0.492313
0.522542
0.602885
1.84629
1.12908
0.778645
0.553721
0.710338
0.854129
0.840736
0.617007
0.259071
0.0874687
0.0538393
0.0608236
0.0872444
0.136287
0.202225
0.269969
0.329103
0.386267
0.427933
0.510541
1.62277
1.00797
0.800097
0.618659
0.744587
0.842375
0.831837
0.639112
0.345517
0.143562
0.064022
0.0534111
0.0591116
0.0817443
0.124334
0.178394
0.231583
0.289321
0.337733
0.420581
1.50552
1.03552
0.884201
0.712967
0.775699
0.842372
0.824496
0.657592
0.414437
0.209686
0.0956766
0.0614729
0.0574891
0.0619468
0.0790307
0.11231
0.156069
0.211087
0.260786
0.342636
1.52581
1.1239
1.01754
0.827468
0.811703
0.845237
0.824161
0.671064
0.465353
0.27799
0.149526
0.0884263
0.0641829
0.0565572
0.0592368
0.0739078
0.106258
0.154886
0.201246
0.280087
1.60294
1.27557
1.19557
0.958212
0.86254
0.853056
0.826193
0.682831
0.506565
0.346407
0.217239
0.134927
0.0851637
0.0607183
0.060645
0.0675331
0.0836346
0.114387
0.151292
0.225532
1.71556
1.4709
1.4246
1.14485
0.938901
0.865943
0.831277
0.696862
0.546621
0.407256
0.284489
0.190428
0.120935
0.0790884
0.0690568
0.072653
0.0843648
0.102837
0.126838
0.191759
1.83765
1.66625
1.72378
1.43651
1.04967
0.896692
0.843407
0.715056
0.584462
0.460747
0.343493
0.244178
0.166471
0.115082
0.0883587
0.0862852
0.0910007
0.105199
0.127172
0.180419
1.96306
1.84249
1.97453
1.80588
1.25072
0.975896
0.867718
0.739709
0.617438
0.50816
0.401537
0.304558
0.223575
0.166771
0.124081
0.106654
0.107508
0.116394
0.133381
0.174977
2.07834
1.99261
2.17357
2.21426
1.62125
1.12455
0.916968
0.772191
0.647473
0.539931
0.446097
0.355907
0.277061
0.216608
0.164852
0.134374
0.131108
0.135711
0.1454
0.177557
2.19065
2.11764
2.29041
2.40929
2.19237
1.62737
1.18884
0.922825
0.747405
0.625337
0.533541
0.443849
0.365783
0.301023
0.243956
0.206299
0.191548
0.181497
0.182438
0.200321
6.35897
5.99809
5.66239
4.22927
3.83625
3.94129
3.89263
3.45525
2.86632
2.3228
1.90521
1.68311
1.57183
1.59648
1.68078
1.79352
1.91736
2.04712
2.16651
2.28571
5.98316
6.0851
3.83398
2.82693
3.38847
3.85786
3.85439
3.28421
2.35139
1.59465
1.15761
1.04735
1.08034
1.17678
1.33922
1.53953
1.73237
1.90607
2.05418
2.18431
5.72337
3.91452
2.38639
2.15441
3.34037
3.90092
3.90038
3.23017
1.90219
1.07673
0.797638
0.825681
0.916671
1.05757
1.24355
1.48832
1.79568
2.03575
2.22865
2.33164
4.18809
2.75508
2.07713
1.73201
2.82868
3.84829
4.04614
3.5966
1.73623
0.536586
0.567891
0.633747
0.73263
0.85271
0.994323
1.19467
1.50621
1.89594
2.29235
2.44811
3.72466
3.16629
3.08109
2.49834
0.414221
0.661959
0.709729
0.743765
0.774676
0.813
0.867133
0.94855
1.06903
1.29465
1.70964
2.27205
3.78966
3.68148
3.75118
3.71206
0.838007
0.868093
0.852238
0.840515
0.837522
0.839758
0.846624
0.860645
0.895976
0.982885
1.15476
1.70962
3.75639
3.72013
3.7964
3.9398
0.889303
0.859162
0.844944
0.8333
0.824897
0.821328
0.822423
0.825875
0.837138
0.861829
0.91773
1.22842
3.34248
3.1886
3.14963
3.49147
0.746761
0.599767
0.623983
0.641636
0.656778
0.668988
0.680504
0.691511
0.706743
0.730988
0.765998
0.938618
2.77861
2.28799
1.86073
1.69797
0.420715
0.848525
0.897657
0.74668
0.0899979
0.161327
0.256964
0.342365
0.410631
0.459795
0.498969
0.53936
0.576566
0.609561
0.640561
0.749042
2.25407
1.54976
1.05295
0.532345
0.663831
0.868245
0.856393
0.595278
0.162789
0.0641103
0.0868969
0.138869
0.202941
0.2712
0.339885
0.400974
0.454734
0.499775
0.530151
0.617683
1.84971
1.13187
0.784284
0.564093
0.710677
0.852528
0.842876
0.621136
0.260091
0.0889466
0.0552199
0.0627879
0.0930092
0.146198
0.212018
0.277979
0.335804
0.391875
0.43398
0.519267
1.62505
1.01233
0.80891
0.628371
0.743388
0.840387
0.832012
0.640877
0.346937
0.143274
0.064865
0.056263
0.0625437
0.0859353
0.129768
0.182458
0.235201
0.296447
0.344557
0.427785
1.5129
1.04071
0.891809
0.721989
0.773269
0.83861
0.823904
0.658032
0.416631
0.2098
0.0984114
0.0643877
0.0581366
0.0624293
0.0799756
0.113939
0.161137
0.217657
0.266665
0.348782
1.53612
1.13115
1.02252
0.835202
0.809361
0.841074
0.82123
0.670905
0.466766
0.280443
0.154912
0.0915524
0.0645033
0.0595938
0.063027
0.0784369
0.111792
0.160053
0.205967
0.283575
1.61735
1.28728
1.20027
0.967037
0.860872
0.848104
0.822763
0.682759
0.506492
0.35028
0.222983
0.138559
0.0855586
0.0644985
0.0654633
0.0745626
0.0911184
0.121183
0.156477
0.230104
1.72962
1.48784
1.43692
1.15463
0.939294
0.861583
0.827234
0.694905
0.547413
0.411553
0.289484
0.193023
0.122629
0.0839306
0.0761483
0.0801961
0.0918365
0.109137
0.133069
0.198626
1.85096
1.68362
1.74431
1.44843
1.05342
0.895441
0.840036
0.711886
0.585288
0.465758
0.348057
0.247866
0.172026
0.121766
0.0971311
0.0935608
0.0975751
0.11123
0.133402
0.185687
1.97543
1.85445
1.98753
1.8243
1.26573
0.979856
0.866524
0.737657
0.619241
0.511879
0.406839
0.312298
0.232542
0.174547
0.132399
0.113167
0.113796
0.122551
0.138689
0.179768
2.08829
1.99728
2.17926
2.22431
1.65714
1.14475
0.923602
0.773758
0.651246
0.544128
0.451646
0.364185
0.286187
0.223939
0.171626
0.142186
0.13772
0.141342
0.15079
0.182556
2.19861
2.11954
2.28126
2.39118
2.20758
1.67428
1.22833
0.947532
0.764256
0.636939
0.543252
0.454194
0.374477
0.307361
0.251936
0.215633
0.197911
0.187236
0.188151
0.205429
6.32407
5.95254
5.69302
4.35068
3.92734
3.97042
3.90357
3.47174
2.88682
2.34406
1.93358
1.70451
1.59066
1.61634
1.69805
1.79891
1.91778
2.04265
2.15851
2.28122
5.94577
5.95634
4.12066
2.98735
3.40211
3.8552
3.85265
3.29536
2.37391
1.60952
1.18641
1.07259
1.10729
1.20696
1.3693
1.55708
1.73699
1.89905
2.04032
2.1761
5.75447
4.2539
2.54315
2.22336
3.31588
3.89195
3.89963
3.23829
1.92921
1.08908
0.826948
0.861216
0.951421
1.08832
1.27414
1.52168
1.80937
2.02768
2.20906
2.3138
4.32926
2.93583
2.15709
1.77885
2.82861
3.82527
4.02896
3.58698
1.75324
0.558791
0.589124
0.659502
0.766644
0.891024
1.03829
1.24974
1.56523
1.93445
2.27866
2.4296
3.83225
3.19518
3.07064
2.51562
0.428029
0.676977
0.723294
0.757615
0.791633
0.836398
0.899346
0.990614
1.12529
1.38459
1.80704
2.30136
3.82124
3.67727
3.75318
3.71385
0.857375
0.87955
0.863943
0.851501
0.851413
0.854995
0.8651
0.886437
0.93509
1.0433
1.25268
1.82218
3.76803
3.71875
3.79771
3.94078
0.917133
0.874028
0.859431
0.848046
0.838592
0.837789
0.839438
0.845453
0.862575
0.898175
0.976726
1.3424
3.35343
3.19546
3.15886
3.49109
0.77225
0.612146
0.636771
0.657741
0.673517
0.685009
0.695555
0.707941
0.729243
0.763006
0.809559
1.02269
2.7889
2.29664
1.88122
1.76142
0.40895
0.846448
0.902904
0.755731
0.100342
0.166801
0.265909
0.355176
0.42462
0.472526
0.515158
0.559554
0.597972
0.63343
0.67035
0.807259
2.26188
1.55197
1.06025
0.543459
0.667819
0.870524
0.861745
0.606013
0.173975
0.0705183
0.0944919
0.14798
0.213937
0.287023
0.358373
0.421322
0.47401
0.515233
0.551644
0.659994
1.86563
1.14279
0.798751
0.57293
0.713655
0.855745
0.848817
0.631926
0.273687
0.0975462
0.0601125
0.067277
0.100895
0.161275
0.231444
0.295514
0.34947
0.406281
0.450952
0.54902
1.63712
1.02585
0.828682
0.63965
0.747377
0.843574
0.83882
0.653943
0.36269
0.15431
0.0696891
0.0615647
0.0681573
0.0961697
0.142953
0.193306
0.247501
0.311915
0.361199
0.45046
1.53227
1.05734
0.910813
0.738297
0.780616
0.844132
0.830377
0.66999
0.432137
0.223431
0.107204
0.0703597
0.0667639
0.07084
0.0877439
0.122885
0.172694
0.234506
0.283721
0.36691
1.562
1.15541
1.04085
0.856041
0.82201
0.848954
0.830741
0.681404
0.480347
0.298751
0.170896
0.101919
0.0727164
0.0686984
0.0734806
0.0902464
0.126231
0.17801
0.222743
0.299926
1.65059
1.3249
1.22582
0.992768
0.880465
0.859672
0.833633
0.692571
0.522697
0.370724
0.242867
0.151922
0.0930133
0.0748628
0.077276
0.0904808
0.110635
0.141292
0.174501
0.247316
1.75806
1.53126
1.48154
1.18518
0.966449
0.87951
0.841292
0.706235
0.566601
0.432982
0.308412
0.20537
0.13234
0.0963537
0.0922271
0.0983754
0.110487
0.12565
0.149584
0.216821
1.87932
1.7244
1.7945
1.48743
1.09052
0.92288
0.859866
0.728641
0.604694
0.485356
0.364213
0.263011
0.187131
0.138372
0.117045
0.112179
0.114719
0.126658
0.149157
0.203515
2.00226
1.88379
2.02107
1.87203
1.33121
1.02368
0.895866
0.762677
0.639778
0.52741
0.423747
0.332278
0.25426
0.195181
0.153719
0.130551
0.129688
0.137428
0.155168
0.197418
2.11199
2.01714
2.19851
2.24452
1.74503
1.22162
0.972351
0.809481
0.677339
0.564958
0.471379
0.385629
0.307848
0.243973
0.191535
0.160259
0.15421
0.158457
0.168417
0.199871
2.21825
2.13461
2.28255
2.38862
2.24432
1.77098
1.32549
1.02058
0.816922
0.676815
0.573687
0.479141
0.395658
0.326091
0.27011
0.234788
0.21629
0.205483
0.205919
0.221067
6.32045
5.95482
5.68911
4.50639
4.05853
4.02965
3.94741
3.52158
2.94092
2.39243
1.98419
1.74477
1.62931
1.65667
1.73732
1.83071
1.94665
2.06557
2.17743
2.30109
5.98505
5.75893
4.48413
3.22998
3.45714
3.87521
3.88653
3.34532
2.42944
1.64985
1.23403
1.11486
1.15039
1.25266
1.41731
1.59743
1.76732
1.91943
2.05512
2.19299
5.72361
4.69684
2.79712
2.35498
3.32649
3.92086
3.94397
3.29467
1.99461
1.12499
0.875084
0.913114
0.998005
1.12975
1.31957
1.56845
1.84017
2.04455
2.20967
2.31246
4.48052
3.19418
2.2899
1.8676
2.85932
3.83601
4.0586
3.62213
1.85608
0.589461
0.619553
0.694733
0.807059
0.931098
1.08252
1.30403
1.6185
1.96966
2.27452
2.41453
3.96208
3.26026
3.0918
2.53504
0.434751
0.696509
0.743377
0.781301
0.819658
0.868709
0.93468
1.02908
1.18101
1.46943
1.88421
2.31256
3.86659
3.68546
3.77667
3.72634
0.860009
0.894388
0.882096
0.872262
0.872091
0.876016
0.887195
0.912149
0.971789
1.1013
1.34369
1.90436
3.79552
3.7329
3.82046
3.96053
0.918983
0.88817
0.876699
0.866572
0.857865
0.853382
0.854309
0.861062
0.881618
0.929067
1.03191
1.44185
3.38159
3.21626
3.18149
3.51283
0.77693
0.628508
0.655849
0.677735
0.691055
0.700518
0.709766
0.723357
0.747073
0.786178
0.844433
1.09903
2.81705
2.31709
1.90609
1.73607
0.451542
0.852806
0.912263
0.766033
0.105419
0.179087
0.281572
0.374255
0.443937
0.491287
0.535411
0.577264
0.612397
0.649398
0.693539
0.860595
2.28518
1.56501
1.07542
0.571696
0.689878
0.889942
0.882137
0.624671
0.189942
0.0794059
0.104394
0.160416
0.232766
0.310367
0.380606
0.441158
0.489355
0.52947
0.570189
0.69611
1.89903
1.17073
0.837193
0.603077
0.73606
0.875486
0.870334
0.65437
0.295073
0.110036
0.0678108
0.0756133
0.11492
0.182149
0.252921
0.313652
0.366934
0.422699
0.467217
0.576255
1.67134
1.06119
0.875246
0.677252
0.772673
0.863243
0.860484
0.678845
0.387968
0.171946
0.0795993
0.0713075
0.0791667
0.109627
0.157456
0.209755
0.267192
0.331554
0.378123
0.473121
1.5763
1.09785
0.955993
0.783213
0.809542
0.863659
0.851533
0.692804
0.457504
0.247799
0.124025
0.082069
0.0787337
0.0827379
0.101221
0.139316
0.192789
0.254659
0.301753
0.388794
1.61095
1.20395
1.08541
0.90306
0.855182
0.868547
0.850169
0.702572
0.504425
0.326771
0.194835
0.116772
0.0842921
0.0836748
0.0907081
0.111176
0.148827
0.19888
0.243307
0.323437
1.70327
1.3845
1.27777
1.04309
0.916922
0.880702
0.852307
0.712016
0.547344
0.397202
0.267899
0.168915
0.107222
0.092462
0.0964643
0.111761
0.131542
0.162891
0.197831
0.272739
1.80945
1.59432
1.5454
1.24104
1.00568
0.904484
0.860665
0.725781
0.588574
0.457328
0.331261
0.225403
0.150931
0.11721
0.112921
0.118391
0.130076
0.147034
0.173578
0.241673
1.93533
1.78479
1.85398
1.54697
1.14168
0.956898
0.882226
0.749452
0.623603
0.505816
0.386393
0.286404
0.209054
0.160126
0.137319
0.131726
0.134994
0.148696
0.171178
0.224211
2.05703
1.9349
2.06774
1.9267
1.40742
1.07549
0.927651
0.787623
0.659683
0.546168
0.444087
0.354366
0.274692
0.214617
0.174421
0.152137
0.151896
0.159826
0.176176
0.216945
2.16347
2.06211
2.23491
2.27005