/*--------------------------------*- C++ -*----------------------------------*\
  =========                 |
  \\      /  F ield         | OpenFOAM: The Open Source CFD Toolbox
   \\    /   O peration     | Website:  https://openfoam.org
    \\  /    A nd           | Version:  9
     \\/     M anipulation  |
\*---------------------------------------------------------------------------*/
FoamFile
{
    format      ascii;
    class       volScalarField;
    location    "0.0065";
    object      rho.C4;
}
// * * * * * * * * * * * * * * * * * * * * * * * * * * * * * * * * * * * * * //

dimensions      [1 -3 0 0 0 0 0];

internalField   nonuniform List<scalar> 
9720
(
6.45106
6.12587
5.89403
4.73857
4.23317
4.11941
4.02959
3.59869
3.01617
2.46698
2.05792
1.81491
1.70321
1.73166
1.81009
1.90415
2.02571
2.14774
2.25797
2.37511
6.13606
5.87369
5.04308
3.49167
3.51086
3.91596
3.95325
3.4073
2.49039
1.71258
1.29621
1.17742
1.21744
1.32604
1.49675
1.6817
1.85456
2.00738
2.14069
2.27119
5.8923
5.14858
3.11253
2.48134
3.30602
3.96069
4.00464
3.35041
2.05557
1.18929
0.941282
0.978907
1.06371
1.20293
1.40851
1.67429
1.95367
2.15378
2.31455
2.39933
4.73606
3.4757
2.46317
2.05954
2.75593
3.9166
4.1817
3.71334
1.93606
0.634228
0.671474
0.757481
0.878607
1.01265
1.17341
1.40317
1.72689
2.09169
2.41343
2.51223
4.17793
3.41682
3.20782
2.73117
0.493752
0.751534
0.805644
0.852873
0.899544
0.955306
1.02778
1.12877
1.2914
1.59956
2.03935
2.45242
4.01872
3.7976
3.85858
3.82129
0.956313
0.959447
0.947128
0.946747
0.949642
0.958484
0.975078
1.00518
1.07244
1.21829
1.48258
2.06132
3.92245
3.83016
3.89145
4.07627
1.01399
0.951495
0.942632
0.937679
0.931511
0.931644
0.93433
0.94506
0.971317
1.02771
1.14706
1.59369
3.49697
3.29375
3.23445
3.60795
0.865227
0.677689
0.71017
0.734655
0.75041
0.764946
0.779283
0.797268
0.824747
0.868869
0.93674
1.22603
2.92428
2.38577
1.94741
1.76911
0.496391
0.91802
0.983033
0.827317
0.119277
0.196117
0.308208
0.411053
0.490668
0.545437
0.593753
0.637937
0.677151
0.720668
0.772083
0.963487
2.38967
1.64058
1.13086
0.613628
0.723885
0.9238
0.915612
0.655785
0.211162
0.089928
0.117806
0.183414
0.268424
0.353383
0.427691
0.493295
0.547235
0.592146
0.636257
0.776402
1.99673
1.25408
0.920254
0.655031
0.774752
0.909441
0.905965
0.690394
0.324338
0.126155
0.0806373
0.09084
0.136693
0.211822
0.290201
0.35897
0.418621
0.476621
0.522194
0.641727
1.758
1.14472
0.962776
0.744497
0.819671
0.907714
0.900256
0.71539
0.423493
0.200084
0.0976143
0.084572
0.0929584
0.127219
0.182577
0.243522
0.307205
0.375402
0.424504
0.527558
1.65771
1.18569
1.04655
0.86425
0.865559
0.911326
0.897127
0.731899
0.498286
0.286422
0.150956
0.0977618
0.0947808
0.100063
0.119719
0.162781
0.223535
0.293452
0.342916
0.433314
1.69197
1.29536
1.17866
0.99174
0.923233
0.922408
0.899311
0.746984
0.549387
0.369357
0.228869
0.139921
0.103631
0.10256
0.112018
0.136928
0.180372
0.233064
0.276027
0.360126
1.77874
1.47034
1.3751
1.1438
0.997065
0.942385
0.905687
0.762551
0.594519
0.440757
0.306888
0.199363
0.13097
0.114778
0.120346
0.13834
0.15937
0.188413
0.224978
0.306105
1.87874
1.6659
1.63806
1.35757
1.09851
0.975859
0.920411
0.782156
0.637592
0.504112
0.375478
0.262459
0.180344
0.144745
0.139794
0.144701
0.154284
0.172495
0.201121
0.274145
2.00388
1.84555
1.9261
1.6672
1.25663
1.04465
0.950786
0.811815
0.676913
0.557022
0.435931
0.32833
0.243818
0.193417
0.165563
0.156222
0.159707
0.174975
0.199732
0.256543
2.1273
1.9946
2.13169
2.0307
1.54836
1.18797
1.01151
0.858498
0.721726
0.60236
0.494979
0.398613
0.315244
0.249859
0.200668
0.177731
0.178287
0.188294
0.206359
0.247151
2.23526
2.12416
2.29002
2.35397
1.97472
1.45015
1.13405
0.928416
0.775629
0.647658
0.542025
0.448793
0.365013
0.294763
0.241158
0.211141
0.205045
0.20975
0.218894
0.249015
2.34255
2.24612
2.36926
2.46433
2.38222
2.01276
1.57401
1.21856
0.972261
0.792132
0.664708
0.55362
0.45722
0.382137
0.326133
0.290012
0.268212
0.254918
0.255065
0.270092
6.33331
5.98355
5.70122
4.49159
4.04127
4.00449
3.9319
3.50762
2.92846
2.38589
1.97935
1.74008
1.62251
1.64822
1.72872
1.8268
1.94726
2.07026
2.18295
2.30393
5.99293
5.76895
4.56543
3.21183
3.41796
3.84505
3.87228
3.33113
2.41734
1.64455
1.23479
1.11316
1.14595
1.24417
1.40822
1.59622
1.77324
1.92857
2.06622
2.20221
5.73694
4.68996
2.80789
2.33107
3.28611
3.90014
3.93495
3.28104
1.98727
1.12273
0.878272
0.914474
0.996094
1.12543
1.31542
1.56757
1.84967
2.0611
2.2295
2.33028
4.52219
3.2327
2.30594
1.92069
2.83791
3.84151
4.08544
3.63855
1.90086
0.595876
0.626634
0.701969
0.812512
0.937234
1.08522
1.29743
1.60678
1.96506
2.28636
2.4336
3.996
3.29239
3.11628
2.58425
0.4763
0.717761
0.765125
0.803308
0.841942
0.889566
0.953414
1.04439
1.18922
1.46603
1.88257
2.3277
3.90064
3.71406
3.7897
3.74223
0.904992
0.918532
0.905245
0.89488
0.89502
0.898716
0.909485
0.933158
0.989195
1.11405
1.34671
1.90693
3.82192
3.75468
3.8306
3.99248
0.962392
0.912022
0.899258
0.888344
0.879106
0.873847
0.874561
0.881234
0.901564
0.947526
1.04581
1.44684
3.40616
3.23214
3.18741
3.54162
0.820166
0.6447
0.672218
0.694246
0.707275
0.716329
0.72541
0.738883
0.762572
0.801205
0.858003
1.10663
2.83962
2.33006
1.9052
1.76749
0.473951
0.866406
0.927684
0.775737
0.11272
0.180178
0.285836
0.381396
0.453212
0.501478
0.545988
0.587997
0.623192
0.660236
0.703999
0.867983
2.30607
1.58008
1.08294
0.580742
0.689268
0.882133
0.874099
0.620947
0.194102
0.0805433
0.105611
0.162995
0.237412
0.316719
0.387495
0.447953
0.496463
0.537102
0.577829
0.701943
1.91553
1.18813
0.85103
0.612772
0.735378
0.868532
0.862687
0.650907
0.298573
0.112032
0.0695453
0.07775
0.117987
0.18602
0.257118
0.318459
0.372176
0.427904
0.471651
0.579299
1.6826
1.07435
0.888224
0.686716
0.771957
0.857934
0.852951
0.67446
0.389707
0.175585
0.0828513
0.0727135
0.0802867
0.110714
0.159501
0.213065
0.270739
0.33427
0.380236
0.475509
1.57939
1.10854
0.96628
0.791732
0.808507
0.858611
0.843812
0.687315
0.458243
0.25255
0.128803
0.083774
0.0798462
0.0840625
0.102636
0.140938
0.194211
0.255045
0.302479
0.390851
1.61019
1.20941
1.09061
0.908006
0.854726
0.864006
0.843471
0.697532
0.505259
0.331025
0.199015
0.118861
0.0860213
0.0854967
0.092349
0.112266
0.14901
0.198602
0.243697
0.325143
1.69644
1.38012
1.27622
1.04616
0.916896
0.876955
0.845857
0.708339
0.547769
0.399292
0.270104
0.171425
0.110215
0.0947251
0.0982116
0.112672
0.13202
0.163237
0.198534
0.274144
1.79621
1.57753
1.53153
1.2433
1.00585
0.902103
0.855117
0.723859
0.588099
0.4578
0.333194
0.228801
0.154838
0.119771
0.114153
0.119236
0.130853
0.147877
0.174331
0.242239
1.91511
1.75608
1.82028
1.54279
1.14471
0.957089
0.878135
0.748894
0.623048
0.5068
0.389941
0.290916
0.212852
0.162538
0.138703
0.132641
0.135993
0.149678
0.171672
0.224224
2.03256
1.90034
2.02687
1.90422
1.41056
1.07777
0.926625
0.788611
0.660824
0.549503
0.448743
0.358885
0.277788
0.216837
0.176155
0.153447
0.153168
0.160807
0.176788
0.217821
2.13844
2.028
2.18839
2.22346
1.82
1.30978
1.02719
0.846727
0.706562
0.591652
0.494559
0.407222
0.327592
0.26428
0.215248
0.184999
0.177119
0.180113
0.189123
0.220639
2.24721
2.15211
2.27963
2.37636
2.2583
1.85751
1.42429
1.09781
0.87598
0.719355
0.604701
0.503879
0.417185
0.347903
0.293896
0.258016
0.235415
0.2247
0.225901
0.242406
6.33305
5.97796
5.72938
4.36498
3.93
3.96225
3.9009
3.47336
2.89755
2.35634
1.94374
1.70867
1.5853
1.6072
1.68552
1.7867
1.90596
2.03043
2.14554
2.26784
5.94307
5.95704
4.17397
2.99822
3.37453
3.83659
3.84568
3.29434
2.3861
1.62307
1.20597
1.08376
1.113
1.20394
1.35929
1.54612
1.72756
1.89022
2.03136
2.16709
5.74116
4.26965
2.55383
2.21974
3.27545
3.8811
3.90061
3.23558
1.94015
1.10087
0.845188
0.877642
0.962679
1.09197
1.27124
1.51181
1.79978
2.02164
2.20369
2.30966
4.34395
2.95547
2.16165
1.80157
2.81583
3.81633
4.04471
3.59328
1.81541
0.575685
0.605899
0.674283
0.778084
0.900224
1.0459
1.25432
1.56279
1.92549
2.26934
2.42727
3.84958
3.21932
3.09237
2.52713
0.438457
0.698336
0.742301
0.775376
0.809396
0.854088
0.917533
1.00967
1.14412
1.39698
1.80904
2.30047
3.84202
3.6963
3.75884
3.71407
0.8848
0.902437
0.885757
0.872464
0.872561
0.876561
0.887007
0.908456
0.95693
1.06468
1.26924
1.82911
3.78558
3.73591
3.80356
3.95136
0.943764
0.896154
0.879628
0.866892
0.857374
0.85594
0.857609
0.863934
0.881884
0.918927
0.997778
1.35933
3.37214
3.21393
3.17296
3.50329
0.798938
0.631882
0.655145
0.674645
0.6888
0.698747
0.70946
0.722984
0.745938
0.781282
0.828438
1.04
2.80679
2.322
1.91037
1.78451
0.426405
0.846945
0.905169
0.759347
0.104507
0.17451
0.276423
0.365363
0.434008
0.482684
0.526171
0.570754
0.608964
0.645404
0.683334
0.821083
2.27178
1.5666
1.07564
0.55006
0.668595
0.869671
0.859727
0.604008
0.176889
0.0725007
0.0967984
0.151354
0.219518
0.294788
0.36598
0.427402
0.480147
0.523213
0.561545
0.671707
1.86589
1.14654
0.805019
0.577647
0.713277
0.854589
0.845698
0.630644
0.276176
0.0994274
0.0620804
0.0699808
0.104886
0.165871
0.235225
0.299447
0.354887
0.413474
0.458875
0.557548
1.63437
1.02775
0.832029
0.640368
0.745647
0.842384
0.834494
0.653061
0.364343
0.157091
0.0731869
0.0635279
0.069864
0.097724
0.144879
0.196821
0.253094
0.317788
0.367638
0.457851
1.52853
1.05823
0.911552
0.735253
0.777542
0.842872
0.826309
0.668451
0.433885
0.228458
0.112896
0.0729617
0.068157
0.0719438
0.0893195
0.125809
0.176585
0.238681
0.2888
0.373521
1.55753
1.15309
1.03596
0.84994
0.817888
0.847287
0.82685
0.679339
0.483235
0.305439
0.177143
0.105508
0.074543
0.0708046
0.0756151
0.0921296
0.128469
0.180986
0.227187
0.306122
1.64461
1.31729
1.21537
0.985159
0.875716
0.857913
0.829878
0.690849
0.52625
0.375829
0.247508
0.155681
0.0961292
0.0776061
0.0796718
0.0924216
0.112576
0.144077
0.178745
0.252823
1.75235
1.51954
1.46477
1.17424
0.961546
0.878213
0.837943
0.7056
0.568916
0.435694
0.311566
0.209298
0.136638
0.0997124
0.0944878
0.100239
0.112236
0.127949
0.152652
0.220133
1.87303
1.71071
1.77008
1.47078
1.08661
0.921694
0.856988
0.728865
0.605476
0.487
0.367902
0.267983
0.191261
0.141454
0.119174
0.113951
0.116695
0.129013
0.151122
0.205151
1.99668
1.87063
1.99874
1.85247
1.32607
1.02143
0.89422
0.763192
0.640247
0.529337
0.427885
0.336301
0.257094
0.197362
0.156177
0.133187
0.132268
0.139644
0.156808
0.199508
2.10779
2.00747
2.18028
2.21541
1.74075
1.22276
0.972654
0.809783
0.678141
0.567595
0.473965
0.387797
0.309731
0.245607
0.19427
0.163094
0.156121
0.160044
0.169932
0.202093
2.21812
2.13162
2.27884
2.38611
2.24242
1.77671
1.33105
1.02338
0.820314
0.680428
0.575227
0.480335
0.397017
0.32713
0.271702
0.235708
0.216452
0.206321
0.207118
0.223162
6.35623
6.00793
5.69936
4.25708
3.84568
3.93762
3.89328
3.46119
2.87773
2.33465
1.9187
1.69107
1.57113
1.59315
1.67364
1.78184
1.90389
2.03157
2.14877
2.26846
5.96108
6.07252
3.88292
2.85642
3.34358
3.83245
3.84626
3.28792
2.36639
1.60661
1.17381
1.0557
1.08493
1.17724
1.33519
1.52989
1.71943
1.8903
2.03675
2.16909
5.69891
3.9211
2.40643
2.1623
3.25768
3.87447
3.89869
3.2323
1.92119
1.08694
0.80877
0.835801
0.923555
1.06145
1.24582
1.48687
1.78778
2.02331
2.21179
2.31809
4.19059
2.77022
2.10323
1.75711
2.68562
3.82127
4.04016
3.58478
1.72262
0.546398
0.576591
0.640862
0.737731
0.856926
0.998559
1.20044
1.50948
1.89036
2.27535
2.43631
3.73684
3.19957
3.13073
2.6128
0.468521
0.676024
0.722909
0.755952
0.785955
0.82304
0.877357
0.960657
1.08269
1.30989
1.71656
2.26592
3.80451
3.70116
3.76156
3.7026
0.872466
0.883549
0.868211
0.856787
0.854003
0.856042
0.862602
0.87653
0.912289
1.00073
1.17377
1.72142
3.76825
3.73022
3.79522
3.9358
0.930804
0.876187
0.861903
0.849589
0.840922
0.836357
0.837098
0.839876
0.850818
0.876655
0.934997
1.24871
3.35516
3.19957
3.15662
3.48837
0.786282
0.610616
0.634867
0.653042
0.668604
0.679992
0.690445
0.701425
0.718197
0.744514
0.7811
0.95609
2.79292
2.30784
1.88468
1.72861
0.435304
0.851935
0.902721
0.754465
0.0966593
0.158946
0.256821
0.344118
0.413612
0.465188
0.506689
0.548543
0.586766
0.621053
0.6529
0.763627
2.26486
1.56641
1.06609
0.535079
0.666696
0.870409
0.855776
0.598511
0.171491
0.0659866
0.0878535
0.138501
0.203976
0.275279
0.345531
0.407488
0.462098
0.509227
0.541872
0.632807
1.84712
1.13192
0.783479
0.563791
0.71301
0.854475
0.842519
0.625062
0.269529
0.092427
0.0562895
0.0640758
0.0945866
0.148501
0.215223
0.282301
0.342787
0.401874
0.445328
0.532897
1.61774
1.00847
0.805023
0.624241
0.744947
0.841336
0.831714
0.645575
0.356437
0.148507
0.0669797
0.0575055
0.0633999
0.0869475
0.131751
0.186718
0.242788
0.305273
0.354217
0.43976
1.50676
1.03661
0.887183
0.715736
0.774481
0.84125
0.823722
0.662935
0.425504
0.217313
0.102321
0.0659353
0.0590562
0.0630424
0.0817112
0.118266
0.167074
0.224336
0.274335
0.358392
1.53055
1.12584
1.01629
0.829411
0.810491
0.844195
0.823958
0.675946
0.475622
0.289147
0.160525
0.094525
0.0656523
0.0615912
0.0651446
0.0807551
0.115014
0.165021
0.212031
0.291914
1.61227
1.28037
1.19273
0.961534
0.862339
0.85253
0.826497
0.687911
0.515278
0.35849
0.22936
0.142474
0.087972
0.0668189
0.0674995
0.0764279
0.0936565
0.124786
0.161748
0.237083
1.72677
1.48179
1.42789
1.14647
0.942335
0.867909
0.832017
0.700606
0.55438
0.418078
0.294401
0.197024
0.125972
0.0862952
0.0783767
0.0824916
0.0942594
0.111898
0.136276
0.202756
1.84915
1.67925
1.7342
1.43571
1.05873
0.903331
0.845848
0.718177
0.590542
0.469865
0.351669
0.251769
0.174677
0.124238
0.100068
0.0960029
0.10016
0.113844
0.135732
0.189013
1.97554
1.85161
1.98451
1.81571
1.26873
0.988026
0.873668
0.74463
0.623758
0.514398
0.40946
0.315133
0.235022
0.17764
0.135711
0.116371
0.116744
0.124707
0.141291
0.183409
2.0919
1.99845
2.18231
2.22339
1.66384
1.15555
0.932732
0.782379
0.656367
0.547054
0.453705
0.366485
0.288668
0.226519
0.175343
0.145562
0.140603
0.144413
0.153915
0.186321
2.20853
2.12837
2.29536
2.41177
2.22865
1.6951
1.2447
0.961293
0.773072
0.642791
0.547089
0.456836
0.376645
0.309574
0.2546
0.218225
0.200939
0.190597
0.191619
0.20913
6.42339
6.08217
5.66601
4.18717
3.80646
3.93544
3.89974
3.46304
2.86907
2.32062
1.89722
1.67986
1.56913
1.59242
1.6744
1.79297
1.9208
2.05124
2.16939
2.28334
6.03071
6.13193
3.70606
2.78113
3.36605
3.85366
3.86109
3.29445
2.35517
1.59361
1.14685
1.03438
1.06752
1.16467
1.32616
1.53214
1.73402
1.91164
2.06176
2.18675
5.67025
3.74408
2.34715
2.14374
3.3112
3.89447
3.91046
3.23901
1.904
1.07259
0.782045
0.806452
0.895033
1.03602
1.22559
1.47152
1.78698
2.03821
2.23794
2.3407
4.11922
2.70041
2.06539
1.72748
2.7175
3.82891
4.04723
3.59857
1.75544
0.528387
0.558767
0.621063
0.714082
0.829383
0.965249
1.16014
1.47129
1.86477
2.28988
2.4625
3.69478
3.18469
3.11293
2.57304
0.417298
0.655644
0.70502
0.73945
0.769887
0.804966
0.854479
0.930955
1.04581
1.2601
1.66066
2.25151
3.79004
3.69769
3.75987
3.70968
0.842861
0.857864
0.845646
0.836087
0.836253
0.838405
0.844373
0.855381
0.88496
0.964557
1.1198
1.65222
3.76396
3.7314
3.79502
3.92971
0.895061
0.849704
0.838846
0.828937
0.823009
0.819914
0.820749
0.823152
0.831777
0.853042
0.901696
1.18468
3.35051
3.19415
3.14904
3.48418
0.757598
0.58708
0.614383
0.634083
0.651324
0.664906
0.675811
0.686652
0.700947
0.722818
0.755017
0.90997
2.78641
2.29349
1.85846
1.70302
0.423156
0.849224
0.895287
0.742406
0.0920648
0.149433
0.242153
0.328403
0.398613
0.450877
0.493884
0.533774
0.571569
0.605408
0.635003
0.732124
2.25967
1.55846
1.05245
0.525835
0.664331
0.868076
0.85147
0.593649
0.168692
0.0614836
0.0831851
0.132994
0.195532
0.263676
0.332198
0.395193
0.450166
0.497722
0.528749
0.611105
1.84471
1.12819
0.776619
0.558041
0.712653
0.853722
0.840487
0.620641
0.265831
0.0891549
0.0546822
0.0615131
0.087768
0.136799
0.204668
0.274794
0.334722
0.392252
0.434752
0.518574
1.62003
1.00694
0.798424
0.621649
0.746359
0.841536
0.831423
0.640012
0.351038
0.146067
0.0648273
0.0539906
0.05887
0.0822365
0.127367
0.183147
0.237171
0.294808
0.344
0.428783
1.50358
1.03429
0.883616
0.714775
0.776725
0.84148
0.823555
0.657619
0.419905
0.213179
0.0967772
0.0614084
0.0592618
0.0644372
0.0822401
0.116197
0.159626
0.215253
0.266838
0.350575
1.52389
1.12215
1.01675
0.828833
0.812517
0.84448
0.823079
0.67306
0.470709
0.281389
0.150435
0.0892419
0.0664474
0.0581731
0.0606378
0.0750539
0.108126
0.159299
0.206727
0.286456
1.60094
1.27321
1.19381
0.959811
0.862808
0.85266
0.825374
0.68685
0.510174
0.347899
0.219031
0.13692
0.0874086
0.0619812
0.0614581
0.0685969
0.0860279
0.118158
0.155595
0.230335
1.71285
1.46701
1.42149
1.14377
0.938951
0.86583
0.830673
0.700251
0.547314
0.408878
0.286494
0.192556
0.123034
0.0795132
0.0700985
0.0743972
0.0868154
0.105115
0.129141
0.194893
1.83663
1.66433
1.71988
1.43186
1.05054
0.897151
0.842791
0.716015
0.584439
0.463032
0.345368
0.246092
0.166287
0.115428
0.0907864
0.0884008
0.0931398
0.107032
0.129221
0.183583
1.9648
1.84273
1.97535
1.80534
1.24979
0.975851
0.866986
0.739151
0.619825
0.510555
0.403352
0.3048
0.224191
0.169585
0.126997
0.108644
0.109211
0.118123
0.135686
0.177988
2.08285
1.99571
2.17935
2.22291
1.62434
1.12484
0.916515
0.772093
0.650713
0.542283
0.447118
0.35684
0.279427
0.219246
0.167472
0.136507
0.133467
0.138415
0.148075
0.180591
2.19783
2.12387
2.29897
2.41869
2.20513
1.63923
1.19569
0.928635
0.75176
0.628009
0.53639
0.447311
0.36838
0.302963
0.246548
0.209218
0.195219
0.185124
0.185942
0.20355
6.42457
6.07771
5.644
4.17398
3.80365
3.93768
3.89911
3.4614
2.86731
2.3194
1.89162
1.67404
1.56809
1.59369
1.67895
1.80049
1.92935
2.06102
2.17927
2.29319
6.04143
6.13185
3.67923
2.76983
3.38713
3.86484
3.86328
3.29216
2.35198
1.59459
1.14387
1.03024
1.06485
1.1639
1.3271
1.5369
1.74174
1.92183
2.07176
2.19512
5.68712
3.73205
2.3329
2.13557
3.34941
3.90796
3.91023
3.23667
1.89767
1.07351
0.78198
0.804663
0.894031
1.0366
1.22548
1.4722
1.79376
2.04944
2.25148
2.34809
4.11589
2.69074
2.05534
1.711
2.81525
3.83796
4.04734
3.59954
1.74005
0.526128
0.557318
0.620753
0.714605
0.82995
0.965457
1.15881
1.46943
1.87419
2.30817
2.47018
3.68773
3.17094
3.094
2.49168
0.409347
0.649452
0.698058
0.733429
0.765445
0.80231
0.852964
0.929614
1.04392
1.25704
1.66245
2.25601
3.78577
3.69097
3.75462
3.70682
0.829564
0.852822
0.839404
0.829981
0.83059
0.833739
0.840992
0.852895
0.883298
0.962792
1.11774
1.65079
3.76128
3.72801
3.79452
3.92763
0.877834
0.842596
0.831411
0.822199
0.81639
0.815359
0.816857
0.820364
0.830153
0.851685
0.89975
1.18037
3.34812
3.19462
3.15334
3.48144
0.739291
0.584588
0.610295
0.629738
0.647003
0.660828
0.672207
0.683431
0.698596
0.72071
0.752353
0.905434
2.78624
2.29595
1.86545
1.74299
0.399983
0.851319
0.896067
0.743094
0.0895848
0.152194
0.244239
0.329289
0.398793
0.450268
0.491456
0.530744
0.56892
0.602887
0.632252
0.728163
2.25917
1.55753
1.05361
0.521515
0.663219
0.870359
0.853827
0.590924
0.163337
0.0607844
0.0833564
0.133562
0.1959
0.262449
0.330324
0.392712
0.447053
0.494752
0.525154
0.605957
1.84629
1.12911
0.778836
0.55424
0.711575
0.855978
0.842974
0.618931
0.26003
0.0878354
0.054083
0.0611145
0.0876792
0.136987
0.203283
0.271401
0.33087
0.38837
0.4303
0.513457
1.62278
1.00802
0.800397
0.619318
0.745882
0.844198
0.83404
0.64109
0.346771
0.144153
0.0643112
0.0536712
0.0594174
0.0821848
0.125023
0.179404
0.232923
0.291038
0.339786
0.423251
1.50553
1.0356
0.884605
0.713771
0.777044
0.844193
0.826671
0.659618
0.415917
0.210535
0.0961078
0.0617763
0.0577933
0.0622912
0.0794872
0.112982
0.157036
0.212446
0.262518
0.34503
1.52582
1.12399
1.018
0.828397
0.813099
0.847062
0.82633
0.673124
0.466997
0.279106
0.150199
0.0888648
0.0645266
0.056879
0.0595914
0.0743725
0.10696
0.15596
0.202694
0.282227
1.60295
1.27567
1.19609
0.959261
0.864003
0.854894
0.828364
0.684926
0.508346
0.34779
0.218215
0.135597
0.0856245
0.0610714
0.0610206
0.0679776
0.0842184
0.115231
0.152459
0.227404
1.71557
1.47099
1.42514
1.14603
0.94046
0.867801
0.833459
0.699
0.548543
0.408884
0.285769
0.191379
0.121598
0.0795604
0.069501
0.0731534
0.0849835
0.103639
0.12788
0.193487
1.83766
1.66632
1.7243
1.43785
1.05135
0.8986
0.845615
0.717253
0.586522
0.462592
0.345042
0.245407
0.1674
0.115789
0.0889503
0.0869068
0.0917005
0.106064
0.128286
0.182187
1.96306
1.84254
1.97495
1.80728
1.25259
0.977937
0.869984
0.741988
0.619623
0.510204
0.403359
0.30611
0.224851
0.167829
0.124944
0.107458
0.10838
0.117414
0.134639
0.176853
2.07835
1.99264
2.17389
2.21559
1.62342
1.12683
0.919346
0.774577
0.649777
0.542117
0.44814
0.357748
0.278673
0.218015
0.166035
0.135428
0.132228
0.13698
0.146876
0.179623
2.19067
2.11766
2.29059
2.41019
2.19459
1.63028
1.19179
0.925651
0.75009
0.627915
0.536049
0.44622
0.367991
0.303064
0.245804
0.208041
0.193349
0.183402
0.184538
0.203012
6.35898
5.9981
5.66239
4.22927
3.83625
3.94129
3.89263
3.45525
2.86633
2.3228
1.90521
1.68311
1.57183
1.59649
1.68079
1.79353
1.91737
2.04713
2.16652
2.28573
5.98317
6.0851
3.83398
2.82693
3.38847
3.85786
3.85439
3.28421
2.35139
1.59466
1.15763
1.0474
1.08042
1.17687
1.33931
1.53962
1.73243
1.90611
2.05421
2.18434
5.72338
3.91452
2.38639
2.15441
3.34037
3.90092
3.90038
3.23017
1.90222
1.07686
0.797842
0.826006
0.917098
1.05806
1.24409
1.48888
1.79619
2.03615
2.22895
2.33182
4.18809
2.75508
2.07713
1.73201
2.82868
3.84829
4.04614
3.5966
1.73629
0.53702
0.568467
0.634481
0.733519
0.853737
0.995485
1.19597
1.50768
1.89745
2.29374
2.44902
3.72466
3.16629
3.08109
2.49834
0.414799
0.663215
0.711091
0.745194
0.776162
0.814548
0.868764
0.950295
1.07092
1.29677
1.71211
2.27446
3.78966
3.68148
3.75118
3.71206
0.839945
0.870184
0.854297
0.842551
0.839555
0.8418
0.848682
0.862732
0.898132
0.985206
1.15738
1.71299
3.75639
3.72013
3.7964
3.9398
0.891921
0.861754
0.847489
0.835807
0.827379
0.823802
0.824901
0.828366
0.839662
0.864422
0.92047
1.2319
3.34248
3.1886
3.14963
3.49147
0.749448
0.601932
0.626225
0.643938
0.65913
0.671379
0.682937
0.693988
0.709286
0.733631
0.768769
0.941967
2.77861
2.28799
1.86075
1.69802
0.421212
0.850162
0.899844
0.748894
0.0903465
0.161977
0.258025
0.343774
0.412306
0.461667
0.50101
0.541583
0.578958
0.6121
0.643243
0.752198
2.25407
1.54977
1.05306
0.532708
0.664879
0.869981
0.858534
0.597042
0.163372
0.0643679
0.087263
0.13947
0.203839
0.272428
0.341446
0.402826
0.45684
0.502102
0.532646
0.620662
1.84971
1.1319
0.78446
0.564578
0.711815
0.85424
0.844976
0.622959
0.261002
0.0892971
0.0554522
0.0630691
0.0934514
0.146919
0.213074
0.27937
0.3375
0.393888
0.436255
0.522091
1.62506
1.01238
0.809186
0.628987
0.744582
0.842079
0.834079
0.64275
0.348129
0.143826
0.0651396
0.056525
0.062855
0.0863764
0.130445
0.18343
0.23649
0.298125
0.346559
0.430379
1.5129
1.04078
0.892179
0.722737
0.774509
0.840303
0.825948
0.659949
0.418036
0.210599
0.0988327
0.0646915
0.0584277
0.0627547
0.0804094
0.114586
0.162094
0.219005
0.268362
0.351111
1.53613
1.13123
1.02294
0.836063
0.810652
0.842772
0.823265
0.672853
0.468325
0.281511
0.155578
0.0919836
0.0648273
0.0599113
0.0633846
0.0789111
0.112506
0.161122
0.207387
0.285649
1.61735
1.28737
1.20075
0.968008
0.862229
0.849815
0.824801
0.684742
0.508184
0.351617
0.223939
0.13921
0.0859936
0.064854
0.065854
0.07504
0.091735
0.122044
0.157635
0.231942
1.72963
1.48792
1.43741
1.15573
0.940744
0.863316
0.829282
0.696925
0.549247
0.413122
0.290719
0.193933
0.123268
0.0844128
0.076625
0.0807333
0.0924874
0.109957
0.134123
0.200357
1.85096
1.68368
1.74478
1.44966
1.05499
0.897228
0.842112
0.713962
0.587253
0.467532
0.349546
0.249051
0.172948
0.122491
0.0977614
0.0942118
0.0982993
0.112116
0.134536
0.187454
1.97544
1.85449
1.98791
1.82558
1.26749
0.981774
0.86866
0.739817
0.621326
0.513834
0.408594
0.313822
0.23382
0.175613
0.133285
0.113988
0.114689
0.123597
0.139965
0.181647
2.0883
1.99731
2.17954
2.22552
1.65917
1.14691
0.92586
0.776026
0.65345
0.546223
0.453621
0.365993
0.287784
0.225331
0.172805
0.14326
0.13886
0.142629
0.152283
0.184634
2.19863
2.11957
2.28142
2.39199
2.20961
1.67704
1.23118
0.950276
0.766864
0.639446
0.545699
0.45652
0.376637
0.309351
0.253765
0.217386
0.199709
0.189141
0.190262
0.208143
6.32415
5.95258
5.69305
4.3507
3.92735
3.97043
3.90358
3.47174
2.88683
2.34407
1.93359
1.70452
1.59067
1.61635
1.69807
1.79893
1.91781
2.04268
2.15855
2.28128
5.94581
5.95636
4.12067
2.98735
3.40211
3.8552
3.85265
3.29536
2.37392
1.60953
1.18643
1.07263
1.10735
1.20702
1.36937
1.55714
1.73704
1.8991
2.04037
2.17616
5.7545
4.25391
2.54315
2.22336
3.31588
3.89195
3.89963
3.23829
1.92923
1.08917
0.827104
0.861466
0.95174
1.08868
1.27452
1.52208
1.80973
2.02796
2.20928
2.31395
4.32927
2.93583
2.15709
1.77885
2.82861
3.82527
4.02896
3.58698
1.75329
0.559133
0.589581
0.660089
0.767348
0.891832
1.03919
1.25076
1.56634
1.93555
2.27964
2.43025
3.83226
3.19518
3.07064
2.51562
0.428519
0.677971
0.724373
0.75875
0.792817
0.837641
0.900664
0.992027
1.12682
1.38631
1.80899
2.30315
3.82125
3.67727
3.75318
3.71385
0.859004
0.881209
0.865585
0.853128
0.853047
0.856642
0.866765
0.88814
0.936868
1.04524
1.2549
1.82491
3.76804
3.71876
3.79771
3.94078
0.919368
0.876119
0.86149
0.850082
0.84061
0.839807
0.841461
0.847494
0.864657
0.90034
0.979055
1.34539
3.35344
3.19546
3.15886
3.49109
0.774559
0.613911
0.638608
0.659643
0.675463
0.686979
0.697554
0.709982
0.731362
0.765239
0.811927
1.02561
2.78891
2.29664
1.88124
1.76145
0.409334
0.847789
0.904741
0.75763
0.100657
0.167344
0.2668
0.356356
0.426012
0.474078
0.516873
0.561444
0.599999
0.635581
0.672638
0.810027
2.26189
1.55198
1.06033
0.543745
0.668647
0.871903
0.863469
0.60746
0.174478
0.0707491
0.094811
0.148492
0.214706
0.288102
0.359745
0.422933
0.475814
0.517199
0.553777
0.662626
1.86564
1.14281
0.798889
0.573315
0.714554
0.857109
0.850514
0.633428
0.27447
0.0978563
0.0603149
0.0675232
0.101303
0.16195
0.232406
0.296737
0.350925
0.408011
0.452926
0.551526
1.63713
1.02588
0.828903
0.640144
0.748324
0.844925
0.840497
0.655498
0.363706
0.154788
0.0699292
0.0618059
0.0684424
0.0965785
0.143567
0.194157
0.248636
0.313409
0.36298
0.452777
1.53229
1.0574
0.911104
0.738895
0.781604
0.84549
0.832038
0.671581
0.433319
0.224124
0.107586
0.0706379
0.0670394
0.071142
0.0881351
0.123468
0.17357
0.23575
0.285264
0.368999
1.56202
1.15548
1.04118
0.856728
0.823045
0.850324
0.832404
0.683016
0.481659
0.299691
0.17151
0.102318
0.0730155
0.0689988
0.0738298
0.0907144
0.126929
0.179032
0.224057
0.301803
1.65061
1.32497
1.22619
0.993542
0.88156
0.861059
0.835302
0.69421
0.524134
0.3719
0.243732
0.152509
0.0934019
0.0752086
0.0776737
0.0909862
0.111284
0.142154
0.175607
0.249017
1.75807
1.53132
1.48193
1.18604
0.967624
0.880926
0.842978
0.707913
0.56817
0.43435
0.309497
0.206169
0.132915
0.096829
0.0927314
0.0989486
0.111163
0.126464
0.150608
0.218464
1.87934
1.72446
1.79486
1.4884
1.09179
0.924352
0.861588
0.730385
0.606373
0.48688
0.365497
0.264058
0.187982
0.139083
0.117702
0.112853
0.115456
0.127537
0.150267
0.205217
2.00228
1.88384
2.02136
1.87302
1.33264
1.02527
0.897657
0.764514
0.641557
0.52907
0.42526
0.333641
0.255447
0.196199
0.154599
0.131366
0.130575
0.138462
0.156435
0.199258
2.11202
2.01719
2.19873
2.24543
1.74668
1.22344
0.974275
0.81143
0.679233
0.566759
0.473101
0.387244
0.309304
0.245258
0.192654
0.1613
0.155326
0.159737
0.169911
0.20193
2.21831
2.13466
2.2827
2.38923
2.24588
1.77324
1.32795
1.02299
0.819225
0.67904
0.575862
0.481215
0.397587
0.327878
0.271781
0.236434
0.218007
0.20734
0.208002
0.223747
6.3207
5.95498
5.68924
4.50647
4.0586
4.02972
3.94747
3.52163
2.94096
2.39247
1.98422
1.74481
1.62935
1.65671
1.73737
1.83076
1.94672
2.06565
2.17753
2.30123
5.98522
5.75904
4.4842
3.23002
3.45718
3.87525
3.88657
3.34536
2.42947
1.64988
1.23405
1.1149
1.15044
1.25272
1.41737
1.59749
1.76738
1.9195
2.05521
2.19311
5.72374
4.69691
2.79715
2.355
3.32652
3.92089
3.944
3.29469
1.99463
1.12506
0.875191
0.913279
0.998208
1.12998
1.31981
1.56869
1.8404
2.04475
2.20984
2.31262
4.48061
3.19422
2.28991
1.8676
2.85932
3.83601
4.0586
3.62213
1.8561
0.589691
0.61986
0.695129
0.807525
0.931628
1.0831
1.30467
1.61919
1.97033
2.27511
2.41496
3.96215
3.2603
3.09182
2.53504
0.435095
0.697197
0.744111
0.782071
0.820462
0.869551
0.935571
1.03003
1.18203
1.47058
1.88546
2.31367
3.86666
3.6855
3.7767
3.72634
0.861177
0.895547
0.883233
0.873386
0.873215
0.877146
0.888339
0.913321
0.973021
1.10266
1.34524
1.90618
3.79559
3.73294
3.82049
3.96053
0.920618
0.889663
0.878157
0.868004
0.859279
0.854784
0.855713
0.86248
0.88307
0.930592
1.03357
1.44399
3.38164
3.21629
3.18151
3.51283
0.778656
0.629806
0.657189
0.679111
0.692445
0.70191
0.711175
0.724801
0.748579
0.787771
0.84614
1.10119
2.81709
2.31712
1.90612
1.7361
0.451867
0.853796
0.913627
0.767454
0.105666
0.179509
0.282244
0.375135
0.444962
0.492424
0.536671
0.578639
0.613857
0.650949
0.695209
0.862669
2.28522
1.56503
1.07549
0.571907
0.69047
0.890917
0.883369
0.625722
0.190331
0.0795912
0.104643
0.16081
0.233368
0.31121
0.381652
0.442364
0.490685
0.530913
0.571769
0.698105
1.89906
1.17076
0.837299
0.603356
0.736693
0.876445
0.871538
0.655458
0.295667
0.110281
0.0679721
0.0758128
0.115259
0.182698
0.253678
0.31459
0.368043
0.424009
0.468709
0.578179
1.67137
1.06123
0.87541
0.677609
0.773338
0.864189
0.861669
0.67997
0.388726
0.17232
0.0797946
0.0715087
0.0794033
0.109961
0.157945
0.210429
0.268094
0.332725
0.379504
0.474935
1.57633
1.0979
0.956199
0.783639
0.810237
0.864608
0.852706
0.693945
0.458376
0.248341
0.124342
0.082301
0.0789666
0.0829927
0.101549
0.139801
0.193512
0.255667
0.302987
0.39047
1.61098
1.20401
1.08564
0.903545
0.855911
0.869505
0.851343
0.703728
0.505389
0.327499
0.195334
0.117099
0.0845426
0.0839418
0.0910241
0.111602
0.149442
0.199744
0.244397
0.324982
1.70331
1.38457
1.27802
1.04363
0.917693
0.881676
0.853487
0.713191
0.548401
0.398095
0.268579
0.169386
0.107548
0.092776
0.0968323
0.112228
0.132128
0.163651
0.198792
0.274183
1.8095
1.59438
1.54567
1.24164
1.0065
0.905482
0.861863
0.726991
0.589724
0.458353
0.332095
0.226036
0.151411
0.117638
0.113385
0.118917
0.130689
0.147771
0.174498
0.2431
1.93539
1.78485
1.85424
1.54762
1.14257
0.957944
0.883457
0.750717
0.624829
0.506947
0.387371
0.287232
0.209752
0.160741
0.137907
0.132337
0.135669
0.149504
0.17218
0.225703
2.0571
1.93497
2.06795
1.92736
1.40843
1.07664
0.928943
0.788966
0.660988
0.547398
0.445233
0.355427
0.275642
0.215462
0.175187
0.152874
0.15271
0.16078
0.177332
0.2186
2.16355
2.06219
2.23508
2.27065
1.82831
1.30453
1.02527
0.84513
0.704333