/*--------------------------------*- C++ -*----------------------------------*\
  =========                 |
  \\      /  F ield         | OpenFOAM: The Open Source CFD Toolbox
   \\    /   O peration     | Website:  https://openfoam.org
    \\  /    A nd           | Version:  9
     \\/     M anipulation  |
\*---------------------------------------------------------------------------*/
FoamFile
{
    format      ascii;
    class       volScalarField;
    location    "0.0065";
    object      rho.Air;
}
// * * * * * * * * * * * * * * * * * * * * * * * * * * * * * * * * * * * * * //

dimensions      [1 -3 0 0 0 0 0];

internalField   nonuniform List<scalar> 
9720
(
0.00614388
0.00586739
0.00557443
0.00437152
0.00386049
0.00378545
0.00371044
0.00331047
0.00283301
0.00234797
0.00196188
0.00166557
0.00152856
0.00155414
0.00164152
0.00178014
0.0019599
0.00213602
0.00230161
0.00246609
0.0058538
0.0055415
0.00463135
0.00318398
0.00320765
0.00360283
0.00365162
0.0031744
0.00238053
0.00152001
0.000981521
0.000633514
0.000577848
0.00061289
0.000709941
0.000866081
0.00106538
0.00129626
0.0015132
0.00186678
0.00553941
0.00470973
0.00286441
0.00229757
0.00308605
0.00370962
0.003777
0.00317211
0.00193643
0.000743537
0.000346779
0.000208701
0.000195189
0.000205126
0.000237515
0.000305098
0.000424298
0.000599857
0.000782278
0.00115728
0.00436377
0.00316413
0.00227312
0.00181936
0.00239139
0.00342156
0.00366272
0.00323427
0.00163202
0.000104237
5.00295e-05
4.39342e-05
4.5585e-05
5.04272e-05
6.0238e-05
7.97811e-05
0.00011895
0.000194594
0.000297351
0.000542354
0.00381494
0.0031294
0.00300629
0.00237604
9.3003e-05
1.75933e-05
1.75757e-05
1.77888e-05
1.86009e-05
2.02565e-05
2.30344e-05
2.76305e-05
3.60848e-05
5.55937e-05
9.32346e-05
0.000205412
0.00369658
0.0034956
0.00362029
0.00332821
3.57685e-05
1.75403e-05
1.63449e-05
1.5671e-05
1.57432e-05
1.61041e-05
1.68878e-05
1.82726e-05
2.08991e-05
2.62345e-05
3.64181e-05
7.81845e-05
0.00361609
0.00354047
0.00368336
0.00356813
3.07702e-05
1.54099e-05
1.4615e-05
1.39504e-05
1.36867e-05
1.37767e-05
1.40964e-05
1.47745e-05
1.59701e-05
1.80683e-05
2.17182e-05
3.88325e-05
0.00321919
0.00307375
0.00307327
0.00312926
2.26774e-05
1.01162e-05
1.01634e-05
1.01776e-05
1.02279e-05
1.04161e-05
1.07622e-05
1.13074e-05
1.21774e-05
1.35887e-05
1.55597e-05
2.42878e-05
0.00274438
0.00227737
0.00183283
0.00148221
7.81627e-05
4.12566e-05
3.64518e-05
2.63716e-05
2.58231e-06
2.90929e-06
4.2134e-06
5.46109e-06
6.44126e-06
7.128e-06
7.80188e-06
8.55668e-06
9.41841e-06
1.05582e-05
1.19265e-05
1.72045e-05
0.00227275
0.00145082
0.000705525
9.77444e-05
1.82713e-05
1.86177e-05
1.61324e-05
1.05495e-05
3.13825e-06
1.21234e-06
1.57379e-06
2.397e-06
3.43991e-06
4.48492e-06
5.4546e-06
6.42214e-06
7.37526e-06
8.36888e-06
9.41054e-06
1.3062e-05
0.00190346
0.000930852
0.000324101
4.71765e-05
1.77454e-05
1.70898e-05
1.50434e-05
1.05006e-05
4.50021e-06
1.65322e-06
1.02396e-06
1.12517e-06
1.6634e-06
2.59633e-06
3.62581e-06
4.60218e-06
5.53489e-06
6.56106e-06
7.47219e-06
1.0416e-05
0.00161568
0.000606679
0.000204609
4.14543e-05
1.78764e-05
1.59385e-05
1.4124e-05
1.03916e-05
5.74385e-06
2.56351e-06
1.17953e-06
1.09054e-06
1.19359e-06
1.6005e-06
2.27891e-06
3.06675e-06
3.95172e-06
5.01805e-06
5.91138e-06
8.40599e-06
0.00150024
0.000548985
0.000181821
4.28521e-05
1.85522e-05
1.59011e-05
1.37108e-05
1.03938e-05
6.69602e-06
3.63433e-06
1.76939e-06
1.21696e-06
1.22973e-06
1.31519e-06
1.55617e-06
2.07034e-06
2.8403e-06
3.85244e-06
4.69347e-06
6.84381e-06
0.0015322
0.000582253
0.000189732
4.71686e-05
2.00645e-05
1.61734e-05
1.37982e-05
1.05346e-05
7.35395e-06
4.67947e-06
2.71316e-06
1.66449e-06
1.34518e-06
1.3532e-06
1.51315e-06
1.87718e-06
2.42001e-06
3.10674e-06
3.69257e-06
5.5012e-06
0.00162633
0.000679859
0.000218838
5.60158e-05
2.27332e-05
1.69442e-05
1.41372e-05
1.08477e-05
8.00664e-06
5.65507e-06
3.74968e-06
2.3627e-06
1.62104e-06
1.54281e-06
1.64412e-06
1.94292e-06
2.33145e-06
2.80174e-06
3.33455e-06
4.81689e-06
0.00176848
0.000842677
0.000281737
7.34661e-05
2.72643e-05
1.83807e-05
1.48599e-05
1.13826e-05
8.76518e-06
6.66113e-06
4.77815e-06
3.1844e-06
2.14762e-06
1.9158e-06
1.96593e-06
2.1161e-06
2.36499e-06
2.80846e-06
3.37238e-06
4.85669e-06
0.00195206
0.00104726
0.000394448
0.000108949
3.54995e-05
2.11093e-05
1.61598e-05
1.22897e-05
9.65858e-06
7.68111e-06
5.80182e-06
4.12968e-06
2.92084e-06
2.45019e-06
2.36474e-06
2.39177e-06
2.52545e-06
2.92211e-06
3.49774e-06
5.00095e-06
0.00212688
0.00127623
0.000564841
0.000179702
5.42484e-05
2.66466e-05
1.84679e-05
1.38189e-05
1.08829e-05
8.76184e-06
6.93444e-06
5.28455e-06
3.96089e-06
3.10569e-06
2.83793e-06
2.85522e-06
2.95356e-06
3.29802e-06
3.81713e-06
5.25198e-06
0.00228589
0.00148894
0.000745931
0.000277821
9.09993e-05
3.73998e-05
2.24557e-05
1.59672e-05
1.23717e-05
9.88193e-06
7.94303e-06
6.27151e-06
4.85316e-06
3.68065e-06
3.36259e-06
3.41311e-06
3.5415e-06
3.84675e-06
4.2537e-06
5.58467e-06
0.00241559
0.00183213
0.00112388
0.000523823
0.000204826
8.22593e-05
4.16521e-05
2.58874e-05
1.83755e-05
1.3969e-05
1.12212e-05
9.0572e-06
7.21088e-06
5.57575e-06
4.78509e-06
4.81566e-06
4.96626e-06
5.23773e-06
5.5746e-06
6.98484e-06
0.0060566
0.00592326
0.00572618
0.00436509
0.00383852
0.00376823
0.00369123
0.00331693
0.00284668
0.00229894
0.00180571
0.00146841
0.00130995
0.0013314
0.00142126
0.00157217
0.00176629
0.00195489
0.00213113
0.00229699
0.00592015
0.00607733
0.00508919
0.00325698
0.00329774
0.0036423
0.00375627
0.00325557
0.00233915
0.00120819
0.000630285
0.0003557
0.0003325
0.000360891
0.000443242
0.000591727
0.000796003
0.00103504
0.00126151
0.00163367
0.00574365
0.00523424
0.00320618
0.00277226
0.00347195
0.00437904
0.00454493
0.00392076
0.00168959
0.000314606
0.00012401
8.05665e-05
8.23698e-05
9.07249e-05
0.000111875
0.000155663
0.000238188
0.000371433
0.000522785
0.000852564
0.00440095
0.00326305
0.00275717
0.00278335
0.0100126
0.0126708
0.0133165
0.013214
0.00200222
1.17941e-05
1.19825e-05
1.29991e-05
1.53034e-05
1.92365e-05
2.52865e-05
3.56035e-05
5.61742e-05
9.92565e-05
0.000163152
0.000322612
0.00381642
0.00323491
0.00332168
0.00873922
2.51025e-05
3.83291e-06
5.05645e-06
6.28163e-06
7.61056e-06
9.14316e-06
1.10377e-05
1.3722e-05
1.80931e-05
2.76472e-05
4.75451e-05
0.00011024
0.0036884
0.00352985
0.00430728
0.0131342
3.83541e-06
5.03698e-06
6.02717e-06
6.92895e-06
7.78035e-06
8.62821e-06
9.54072e-06
1.06541e-05
1.23594e-05
1.53625e-05
2.08449e-05
4.37626e-05
0.00360444
0.00361083
0.00451363
0.0144655
5.09041e-06
5.94136e-06
6.65822e-06
7.29799e-06
7.8802e-06
8.45237e-06
9.05175e-06
9.75012e-06
1.06765e-05
1.20603e-05
1.42447e-05
2.41275e-05
0.0032258
0.00315342
0.00387835
0.0149374
5.3125e-06
4.72952e-06
5.31595e-06
5.8876e-06
6.44631e-06
6.98073e-06
7.48761e-06
8.0441e-06
8.77479e-06
9.82174e-06
1.11468e-05
1.66103e-05
0.0027666
0.00223639
0.00156792
0.00202783
1.85958e-05
2.86013e-06
3.77756e-06
3.77879e-06
7.46147e-07
1.45128e-06
2.4416e-06
3.42987e-06
4.29869e-06
5.00107e-06
5.70577e-06
6.43601e-06
7.16824e-06
8.0306e-06
9.00645e-06
1.25761e-05
0.00222456
0.00113042
0.000274986
9.25423e-06
3.10848e-06
4.00713e-06
4.66493e-06
3.74136e-06
1.34686e-06
7.18137e-07
9.62071e-07
1.54669e-06
2.34614e-06
3.24958e-06
4.13168e-06
4.9895e-06
5.8047e-06
6.61715e-06
7.43945e-06
1.01307e-05
0.00173865
0.0005663
0.000103532
9.54327e-06
4.21674e-06
4.97606e-06
5.41146e-06
4.3534e-06
2.16952e-06
9.49825e-07
7.1691e-07
7.92133e-07
1.19467e-06
1.93371e-06
2.78526e-06
3.61678e-06
4.43504e-06
5.3601e-06
6.16043e-06
8.48966e-06
0.00140285
0.000311418
6.96675e-05
1.06012e-05
5.32703e-06
5.82881e-06
6.08529e-06
4.95816e-06
3.02019e-06
1.47768e-06
8.04157e-07
8.1381e-07
9.1877e-07
1.24768e-06
1.79976e-06
2.47401e-06
3.2749e-06
4.23951e-06
5.02804e-06
7.14332e-06
0.00126381
0.000293731
7.05949e-05
1.26778e-05
6.52509e-06
6.63984e-06
6.67923e-06
5.53517e-06
3.81745e-06
2.19653e-06
1.18578e-06
9.29797e-07
9.51392e-07
1.0445e-06
1.27482e-06
1.73796e-06
2.42387e-06
3.29001e-06
4.06331e-06
6.04755e-06
0.0012898
0.000319656
7.71116e-05
1.61165e-05
7.91291e-06
7.466e-06
7.26712e-06
6.06506e-06
4.48975e-06
3.01688e-06
1.85006e-06
1.24093e-06
1.05684e-06
1.08386e-06
1.24487e-06
1.577e-06
2.04751e-06
2.70165e-06
3.32669e-06
5.04686e-06
0.00138323
0.00039911
9.53155e-05
2.14151e-05
9.65943e-06
8.36737e-06
7.8935e-06
6.57437e-06
5.14249e-06
3.82354e-06
2.62548e-06
1.75562e-06
1.30013e-06
1.26842e-06
1.35531e-06
1.61919e-06
1.9989e-06
2.50494e-06
3.02756e-06
4.46793e-06
0.00153519
0.000547396
0.000134559
3.04123e-05
1.21924e-05
9.47389e-06
8.62313e-06
7.13374e-06
5.82189e-06
4.62169e-06
3.42885e-06
2.41045e-06
1.75706e-06
1.61131e-06
1.64483e-06
1.78349e-06
2.05377e-06
2.50068e-06
3.05386e-06
4.50567e-06
0.00173086
0.000751505
0.000209441
4.87226e-05
1.62878e-05
1.11412e-05
9.58206e-06
7.85835e-06
6.53304e-06
5.41778e-06
4.2436e-06
3.20557e-06
2.41412e-06
2.07944e-06
2.04467e-06
2.0858e-06
2.2253e-06
2.60656e-06
3.16422e-06
4.62947e-06
0.00191494
0.000987087
0.000332926
8.84766e-05
2.53625e-05
1.40667e-05
1.0999e-05
8.90618e-06
7.39848e-06
6.23615e-06
5.16209e-06
4.17108e-06
3.26292e-06
2.68731e-06
2.55193e-06
2.55892e-06
2.64711e-06
2.95888e-06
3.45008e-06
4.88129e-06
0.00207809
0.00120534
0.000475962
0.000147917
4.48479e-05
1.9686e-05
1.32396e-05
1.02492e-05
8.39039e-06
7.0488e-06
5.95224e-06
4.96699e-06
4.03691e-06
3.25723e-06
3.05164e-06
3.1015e-06
3.21831e-06
3.48256e-06
3.8861e-06
5.22731e-06
0.00220845
0.00156098
0.000793868
0.000301137
0.000107352
4.37926e-05
2.3851e-05
1.6068e-05
1.21567e-05
9.81339e-06
8.31428e-06
7.08013e-06
5.97865e-06
4.89582e-06
4.3628e-06
4.41832e-06
4.57089e-06
4.85091e-06
5.2065e-06
6.58517e-06
0.00592636
0.00619822
0.00631966
0.00465193
0.00400287
0.00380934
0.00367167
0.00336134
0.00285567
0.00192251
0.00131895
0.000962301
0.000781755
0.000801767
0.000887905
0.00104678
0.00125593
0.00146393
0.00164645
0.00184712
0.00619965
0.00747963
0.00695663
0.00389822
0.00379845
0.00465907
0.0049311
0.00444084
0.00181649
0.000429367
0.000149036
6.889e-05
7.10625e-05
8.28287e-05
0.000115543
0.00018699
0.000312878
0.000494487
0.000693766
0.00105937
0.00637056
0.00722207
0.00516593
0.00619771
0.00637868
0.00721577
0.00798461
0.00612873
0.000306768
3.65326e-05
1.08507e-05
1.08268e-05
1.20784e-05
1.47132e-05
2.01693e-05
3.18409e-05
5.68711e-05
0.000104466
0.000171538
0.000341336
0.00472641
0.00395541
0.00593877
0.0198433
0.0104381
0.0111909
0.0242734
0.000826471
2.34406e-05
1.80616e-06
2.43972e-06
3.14978e-06
4.07437e-06
5.41372e-06
7.12598e-06
9.64785e-06
1.43547e-05
2.47522e-05
4.26907e-05
9.11463e-05
0.00404252
0.00396908
0.00550153
0.000449815
1.41758e-06
3.939e-06
4.33608e-06
4.68218e-06
5.07036e-06
5.55886e-06
6.26009e-06
7.32108e-06
8.86668e-06
1.17481e-05
1.72952e-05
3.35785e-05
0.00374584
0.00467358
0.00782672
0.0262217
4.37871e-06
6.10463e-06
6.27417e-06
6.49065e-06
6.74394e-06
7.0198e-06
7.36084e-06
7.84059e-06
8.62176e-06
1.00354e-05
1.23822e-05
2.00852e-05
0.00358959
0.00497791
0.00834168
0.027081
6.00422e-06
7.462e-06
7.48894e-06
7.57823e-06
7.72452e-06
7.91963e-06
8.14943e-06
8.44269e-06
8.88622e-06
9.60226e-06
1.07778e-05
1.54387e-05
0.00327242
0.0045058
0.0064163
0.000608075
6.3459e-06
6.02689e-06
6.1894e-06
6.39262e-06
6.62652e-06
6.86353e-06
7.13513e-06
7.47557e-06
7.97877e-06
8.67051e-06
9.49111e-06
1.26366e-05
0.00282083
0.00200519
0.000334654
1.67002e-05
1.26257e-06
3.61195e-06
4.95935e-06
5.18873e-06
9.70448e-07
1.87373e-06
2.93606e-06
3.83432e-06
4.55124e-06
5.12552e-06
5.69674e-06
6.31298e-06
6.89704e-06
7.51792e-06
8.17808e-06
1.05242e-05
0.00192661
0.000472036
3.77797e-05
1.32804e-06
3.13992e-06
4.91277e-06
5.98462e-06
4.86928e-06
1.67259e-06
8.20782e-07
1.08579e-06
1.70357e-06
2.50891e-06
3.42698e-06
4.30061e-06
5.07045e-06
5.77825e-06
6.44174e-06
7.08323e-06
9.11697e-06
0.00128954
0.000140847
9.05435e-06
1.83331e-06
3.42497e-06
5.01291e-06
5.99024e-06
5.00535e-06
2.50609e-06
1.03937e-06
7.63568e-07
8.45986e-07
1.27157e-06
2.04126e-06
2.91164e-06
3.74322e-06
4.52332e-06
5.41675e-06
6.16214e-06
8.0748e-06
0.000886538
5.42829e-05
8.455e-06
2.37054e-06
3.6677e-06
5.14749e-06
6.05067e-06
5.18346e-06
3.24236e-06
1.55996e-06
8.4625e-07
8.67683e-07
9.60678e-07
1.2857e-06
1.87316e-06
2.58961e-06
3.43813e-06
4.45381e-06
5.25693e-06
7.0962e-06
0.000709253
5.56242e-05
9.33671e-06
3.05457e-06
3.94499e-06
5.32776e-06
6.15623e-06
5.37585e-06
3.85363e-06
2.25078e-06
1.23473e-06
9.69153e-07
9.87296e-07
1.07059e-06
1.30177e-06
1.81482e-06
2.5902e-06
3.56503e-06
4.37703e-06
6.20597e-06
0.000733687
6.53839e-05
1.12514e-05
4.06194e-06
4.3025e-06
5.54473e-06
6.30649e-06
5.55845e-06
4.3309e-06
3.03306e-06
1.90727e-06
1.27954e-06
1.08768e-06
1.0948e-06
1.23093e-06
1.56155e-06
2.12235e-06
2.9126e-06
3.6201e-06
5.34009e-06
0.000826274
9.40385e-05
1.55083e-05
5.39601e-06
4.8284e-06
5.82139e-06
6.50388e-06
5.77499e-06
4.78406e-06
3.75683e-06
2.65679e-06
1.80155e-06
1.32373e-06
1.25978e-06
1.33319e-06
1.60366e-06
2.02737e-06
2.5869e-06
3.16417e-06
4.73802e-06
0.00099152
0.000158775
2.51597e-05
7.36855e-06
5.66928e-06
6.21771e-06
6.771e-06
6.0604e-06
5.26687e-06
4.38172e-06
3.36059e-06
2.42262e-06
1.79282e-06
1.61004e-06
1.64229e-06
1.79478e-06
2.08404e-06
2.55231e-06
3.17095e-06
4.77907e-06
0.00120679
0.000276092
4.66668e-05
1.12563e-05
6.95564e-06
6.85772e-06
7.16245e-06
6.4801e-06
5.73846e-06
4.9548e-06
4.01736e-06
3.15712e-06
2.47962e-06
2.14545e-06
2.0802e-06
2.1212e-06
2.25562e-06
2.65134e-06
3.27856e-06
4.92226e-06
0.00141683
0.000450527
8.91743e-05
2.05503e-05
9.41931e-06
8.02804e-06
7.78982e-06
7.06773e-06
6.25617e-06
5.50558e-06
4.77183e-06
4.05175e-06
3.35277e-06
2.83733e-06
2.62287e-06
2.61696e-06
2.69837e-06
3.03174e-06
3.59922e-06
5.18672e-06
0.00158808
0.000642682
0.000150019
3.69073e-05
1.45185e-05
1.01089e-05
8.8207e-06
7.78023e-06
6.83153e-06
6.05373e-06
5.4044e-06
4.7598e-06
4.08997e-06
3.42433e-06
3.15839e-06
3.21167e-06
3.33965e-06
3.64241e-06
4.09171e-06
5.53272e-06
0.00176271
0.000995403
0.000305925
8.2037e-05
3.04317e-05
1.74725e-05
1.31268e-05
1.06742e-05
9.00432e-06
7.9047e-06
7.13642e-06
6.41882e-06
5.71662e-06
4.89946e-06
4.53444e-06
4.62918e-06
4.8466e-06
5.16703e-06
5.52588e-06
6.93467e-06
0.00468106
0.00470106
0.004473
0.00325041
0.0027199
0.00244255
0.00221903
0.00202671
0.00211134
0.0013148
0.000647792
0.000250524
0.000171188
0.000191245
0.000249901
0.000372046
0.000561475
0.000774346
0.000940634
0.00120664
0.00477515
0.0118594
0.0146024
0.0102448
0.00842757
0.00815049
0.00720063
0.0056612
0.00216183
0.000198274
3.2657e-05
9.05849e-06
9.3772e-06
1.09928e-05
1.57319e-05
2.81683e-05
5.6862e-05
0.000114415
0.000199537
0.000432827
0.00451378
0.0149811
0.0145338
0.00870824
0.00849905
0.00930201
0.00973298
0.00665443
4.30878e-05
6.69316e-06
3.37491e-06
3.6674e-06
4.28158e-06
5.08486e-06
6.18599e-06
8.00909e-06
1.16343e-05
1.90804e-05
3.15857e-05
7.02963e-05
0.00331628
0.0109369
0.00919004
0.000358173
0.000893195
0.00248188
0.0281522
0.000365909
1.10997e-06
2.26772e-06
2.90251e-06
3.5305e-06
4.22383e-06
5.0028e-06
5.9436e-06
7.26086e-06
9.23708e-06
1.19873e-05
1.54116e-05
2.23784e-05
0.00267535
0.00886817
0.00930509
0.000721408
2.85385e-06
5.45801e-06
5.82697e-06
6.09479e-06
6.38338e-06
6.7657e-06
7.30863e-06
8.13131e-06
9.28379e-06
1.11358e-05
1.41651e-05
1.8598e-05
0.00229635
0.00807611
0.00976882
0.0132682
6.72565e-06
8.43888e-06
8.41676e-06
8.43458e-06
8.51745e-06
8.6648e-06
8.87082e-06
9.16786e-06
9.69681e-06
1.07977e-05
1.27247e-05
1.72754e-05
0.00204659
0.00691239
0.00960252
0.0292916
8.92692e-06
1.00368e-05
9.94371e-06
9.83722e-06
9.755e-06
9.777e-06
9.84902e-06
9.9781e-06
1.02353e-05
1.07183e-05
1.16459e-05
1.53394e-05
0.00184723
0.00530941
0.00660811
0.000486583
9.03251e-06
7.88943e-06
8.07405e-06
8.22426e-06
8.35194e-06
8.46353e-06
8.61346e-06
8.83274e-06
9.19452e-06
9.74428e-06
1.04286e-05
1.31477e-05
0.00195584
0.00246457
6.30249e-05
7.74532e-07
2.19998e-06
5.27395e-06
7.01652e-06
7.08299e-06
1.21495e-06
2.26506e-06
3.63695e-06
4.79747e-06
5.66796e-06
6.31274e-06
6.86168e-06
7.44872e-06
8.01283e-06
8.57966e-06
9.15502e-06
1.11809e-05
0.00127509
0.000242944
9.16603e-06
1.72083e-06
4.19106e-06
6.54553e-06
7.79125e-06
6.26043e-06
2.0784e-06
9.62319e-07
1.29384e-06
2.06038e-06
3.05284e-06
4.12698e-06
5.15058e-06
6.00882e-06
6.75553e-06
7.46874e-06
8.04699e-06
9.85586e-06
0.000651877
3.82406e-05
2.84759e-06
2.20929e-06
4.48412e-06
6.51642e-06
7.72516e-06
6.42757e-06
3.14867e-06
1.24807e-06
8.82606e-07
9.89332e-07
1.49069e-06
2.38825e-06
3.43952e-06
4.45006e-06
5.37874e-06
6.35088e-06
7.1039e-06
8.89713e-06
0.000237107
8.14609e-06
2.96178e-06
2.68535e-06
4.6995e-06
6.53484e-06
7.63468e-06
6.54952e-06
4.06849e-06
1.89552e-06
9.82162e-07
1.0038e-06
1.09433e-06
1.45147e-06
2.18073e-06
3.12145e-06
4.12518e-06
5.26092e-06
6.12019e-06
7.91885e-06
0.000152398
8.04936e-06
3.34755e-06
3.21025e-06
4.92548e-06
6.61399e-06
7.63618e-06
6.66952e-06
4.75214e-06
2.70654e-06
1.42105e-06
1.09669e-06
1.10668e-06
1.17987e-06
1.49411e-06
2.16066e-06
3.09644e-06
4.19212e-06
5.11038e-06
6.99493e-06
0.000170511
9.09452e-06
3.91087e-06
3.7893e-06
5.22503e-06
6.75904e-06
7.678e-06
6.78065e-06
5.24971e-06
3.55916e-06
2.18162e-06
1.4341e-06
1.19384e-06
1.20208e-06
1.31199e-06
1.64766e-06
2.33238e-06
3.31159e-06
4.21588e-06
6.15107e-06
0.000226799
1.29139e-05
4.73032e-06
4.47951e-06
5.64743e-06
6.96162e-06
7.77734e-06
6.92485e-06
5.67292e-06
4.36644e-06
3.04963e-06
2.04936e-06
1.48389e-06
1.33503e-06
1.38515e-06
1.64516e-06
2.07787e-06
2.74637e-06
3.48637e-06
5.33838e-06
0.000345764
2.36338e-05
6.13168e-06
5.44832e-06
6.29939e-06
7.23845e-06
7.93634e-06
7.12871e-06
6.12098e-06
5.04299e-06
3.84505e-06
2.78662e-06
2.0165e-06
1.66263e-06
1.66986e-06
1.79802e-06
2.11756e-06
2.68226e-06
3.4218e-06
5.30383e-06
0.000531981
4.95818e-05
9.06646e-06
6.94329e-06
7.23351e-06
7.69808e-06
8.20405e-06
7.4401e-06
6.56783e-06
5.64019e-06
4.56581e-06
3.56071e-06
2.73876e-06
2.25103e-06
2.1208e-06
2.14849e-06
2.31635e-06
2.79497e-06
3.51287e-06
5.39864e-06
0.000742874
0.000103918
1.55093e-05
9.17947e-06
8.68024e-06
8.59965e-06
8.6472e-06
7.91351e-06
7.0387e-06
6.21085e-06
5.34256e-06
4.47828e-06
3.65535e-06
3.06696e-06
2.73358e-06
2.72124e-06
2.82256e-06
3.20834e-06
3.84205e-06
5.63281e-06
0.000902882
0.000185965
2.68082e-05
1.21378e-05
1.10767e-05
1.01681e-05
9.44776e-06
8.51572e-06
7.53872e-06
6.69256e-06
5.97277e-06
5.21675e-06
4.46085e-06
3.76727e-06
3.3744e-06
3.40907e-06
3.54819e-06
3.88077e-06
4.37586e-06
5.99742e-06
0.00116255
0.000414798
6.25578e-05
1.85681e-05
1.49632e-05
1.39342e-05
1.25306e-05
1.08905e-05
9.36701e-06
8.31023e-06
7.59553e-06
6.84605e-06
6.12424e-06
5.31759e-06
4.93494e-06
5.03614e-06
5.28248e-06
5.61211e-06
6.00214e-06
7.56095e-06
0.00237366
0.00166689
0.00147985
0.00117652
0.00101601
0.000889578
0.00080399
0.000734721
0.000789561
0.000525677
0.00024087
6.41463e-05
3.98026e-05
4.63686e-05
6.9507e-05
0.000131499
0.000256421
0.000433424
0.000579428
0.000879243
0.00169905
0.00265107
0.0026338
0.00252871
0.00246647
0.00259759
0.00247736
0.00191714
0.000874244
0.000100161
1.45534e-05
4.83397e-06
5.00419e-06
5.65193e-06
7.12361e-06
1.05957e-05
1.89563e-05
3.91354e-05
7.54418e-05
0.000219789
0.00152208
0.00266602
0.00467681
0.00507388
0.00675346
0.00695343
0.00731287
0.00497966
2.27211e-05
3.67829e-06
3.41009e-06
3.66622e-06
4.22841e-06
4.94442e-06
5.8261e-06
6.9915e-06
8.77736e-06
1.14116e-05
1.49673e-05
2.55031e-05
0.00123109
0.00240251
0.00488254
0.00148991
0.00224804
2.89886e-09
0.021819
0.000412769
1.11704e-06
2.61311e-06
3.34549e-06
4.08173e-06
4.8292e-06
5.61832e-06
6.55201e-06
7.84987e-06
9.77648e-06
1.2216e-05
1.46943e-05
1.67199e-05
0.00104518
0.00249156
0.00572042
9.59306e-05
3.39874e-06
6.35266e-06
6.82565e-06
7.15945e-06
7.49112e-06
7.90528e-06
8.4596e-06
9.28477e-06
1.03914e-05
1.20915e-05
1.50504e-05
1.85181e-05
0.000889621
0.00265976
0.00704004
0.000316289
8.39036e-06
9.80747e-06
9.8099e-06
9.85399e-06
9.96606e-06
1.01304e-05
1.03376e-05
1.05992e-05
1.10692e-05
1.20999e-05
1.39349e-05
1.82247e-05
0.000796175
0.00248754
0.00744178
0.0241588
1.09814e-05
1.16688e-05
1.15505e-05
1.14327e-05
1.14e-05
1.14197e-05
1.14823e-05
1.15863e-05
1.17917e-05
1.21931e-05
1.3023e-05
1.652e-05
0.000723716
0.0018872
0.00499856
0.000303137
1.09555e-05
9.08041e-06
9.32731e-06
9.5092e-06
9.69365e-06
9.86646e-06
1.00374e-05
1.0248e-05
1.05625e-05
1.10629e-05
1.17217e-05
1.43354e-05
0.000773083
0.000983414
3.27214e-05
9.03641e-07
2.70194e-06
6.54469e-06
8.53018e-06
8.39473e-06
1.3303e-06
2.51934e-06
4.07917e-06
5.46005e-06
6.52702e-06
7.29809e-06
7.94369e-06
8.5682e-06
9.19449e-06
9.81173e-06
1.03945e-05
1.23206e-05
0.000530565
0.000116359
4.86748e-06
2.14355e-06
5.15399e-06
7.89706e-06
9.2476e-06
7.34614e-06
2.35688e-06
1.03702e-06
1.44863e-06
2.37624e-06
3.50177e-06
4.68264e-06
5.83931e-06
6.88499e-06
7.79724e-06
8.61894e-06
9.20204e-06
1.09492e-05
0.000254508
1.75589e-05
2.93275e-06
2.74522e-06
5.54084e-06
7.88254e-06
9.18229e-06
7.55702e-06
3.60976e-06
1.3999e-06
1.00374e-06
1.11379e-06
1.62168e-06
2.58276e-06
3.8769e-06
5.17034e-06
6.25585e-06
7.31627e-06
8.11722e-06
9.97514e-06
7.04378e-05
4.56296e-06
3.13984e-06
3.32223e-06
5.80552e-06
7.90683e-06
9.11639e-06
7.70464e-06
4.69608e-06
2.18545e-06
1.10213e-06
1.10093e-06
1.19088e-06
1.63816e-06
2.54609e-06
3.67757e-06
4.77114e-06
5.9474e-06
6.9287e-06
8.90961e-06
3.80376e-05
4.56767e-06
3.58702e-06
3.902e-06
6.06278e-06
7.98853e-06
9.11744e-06
7.87174e-06
5.54359e-06
3.11309e-06
1.54249e-06
1.1905e-06
1.2389e-06
1.37775e-06
1.75571e-06
2.49753e-06
3.45993e-06
4.69959e-06
5.81035e-06
7.90892e-06
4.36053e-05
4.96217e-06
4.12631e-06
4.50787e-06
6.39175e-06
8.13394e-06
9.14772e-06
8.03935e-06
6.15289e-06
4.04061e-06
2.33986e-06
1.58637e-06
1.3787e-06
1.33236e-06
1.40286e-06
1.7307e-06
2.50681e-06
3.73673e-06
4.83959e-06
7.00511e-06
6.48929e-05
6.08943e-06
4.76226e-06
5.22756e-06
6.83804e-06
8.33581e-06
9.23606e-06
8.218e-06
6.63135e-06
4.93593e-06
3.3718e-06
2.32064e-06
1.69548e-06
1.40779e-06
1.42974e-06
1.67035e-06
2.17947e-06
3.01624e-06
3.90504e-06
6.01292e-06
0.000123205
9.01829e-06
5.58161e-06
6.22818e-06
7.5021e-06
8.58944e-06
9.38011e-06
8.42696e-06
7.10338e-06
5.7554e-06
4.37082e-06
3.19232e-06
2.25124e-06
1.69206e-06
1.67451e-06
1.83002e-06
2.2251e-06
2.87514e-06
3.69702e-06
5.81657e-06
0.000241737
1.65923e-05
6.90209e-06
7.69988e-06
8.38786e-06
9.01631e-06
9.61692e-06
8.71047e-06
7.60514e-06
6.49045e-06
5.23049e-06
4.03175e-06
2.95364e-06
2.31131e-06
2.16885e-06
2.22171e-06
2.44159e-06
2.97979e-06
3.78783e-06
5.93066e-06
0.000411285
3.56529e-05
9.02705e-06
9.60548e-06
9.71324e-06
9.87651e-06
1.00052e-05
9.14947e-06
8.13612e-06
7.16531e-06
6.0938e-06
4.96953e-06
3.94673e-06
3.29888e-06
2.88231e-06
2.84658e-06
2.95588e-06
3.40211e-06
4.14227e-06
6.17045e-06
0.000551731
7.05544e-05
1.21235e-05
1.15825e-05
1.20053e-05
1.13301e-05
1.07132e-05
9.71776e-06
8.64175e-06
7.65696e-06
6.76341e-06
5.79748e-06
4.90006e-06
4.1547e-06
3.60152e-06
3.59509e-06
3.72685e-06
4.13788e-06
4.70363e-06
6.53716e-06
0.000846919
0.000211071
2.18163e-05
1.31908e-05
1.47621e-05
1.47847e-05
1.35762e-05
1.19135e-05
1.03179e-05
9.17502e-06
8.39847e-06
7.53904e-06
6.73415e-06
5.88539e-06
5.30414e-06
5.39128e-06
5.67994e-06
6.05156e-06
6.47332e-06
8.19271e-06
0.0023586
0.00166991
0.00148866
0.00117578
0.0010098
0.000881857
0.000797271
0.000728939
0.000780765
0.000516811
0.000233266
6.0491e-05
4.00886e-05
4.69682e-05
7.12455e-05
0.000135995
0.000265505
0.000446061
0.000592538
0.000890353
0.00168295
0.00262995
0.00263452
0.00257427
0.00243983
0.00255238
0.00244463
0.00190983
0.000795284
9.52701e-05
1.38068e-05
4.82476e-06
5.02856e-06
5.71589e-06
7.2345e-06
1.08219e-05
1.94849e-05
4.04085e-05
7.79083e-05
0.000224805
0.00151622
0.00265764
0.00468772
0.00506212
0.00695526
0.00691529
0.00720646
0.00495081
2.0142e-05
3.45004e-06
3.45847e-06
3.70563e-06
4.27837e-06
5.01052e-06
5.90588e-06
7.10222e-06
8.95251e-06
1.16706e-05
1.53131e-05
2.60464e-05
0.00123399
0.00240864
0.00493911
0.00158038
0.00615337
0.000144911
0.0170858
0.000217638
1.15092e-06
2.65064e-06
3.40919e-06
4.18331e-06
4.97114e-06
5.78789e-06
6.74267e-06
8.06401e-06
1.00361e-05
1.25521e-05
1.5075e-05
1.70347e-05
0.0010522
0.00256746
0.00581063
1.50447e-06
3.65211e-06
6.47786e-06
6.96554e-06
7.32278e-06
7.68535e-06
8.13719e-06
8.72876e-06
9.59129e-06
1.07447e-05
1.24761e-05
1.55448e-05
1.89873e-05
0.000896576
0.00272386
0.00717797
0.00302006
8.90807e-06
1.00581e-05
1.00609e-05
1.01174e-05
1.02557e-05
1.0453e-05
1.06961e-05
1.09863e-05
1.14906e-05
1.25587e-05
1.44604e-05
1.88486e-05
0.000801116
0.00251443
0.00750021
0.0272448
1.17131e-05
1.20018e-05
1.188e-05
1.17758e-05
1.1772e-05
1.18061e-05
1.18987e-05
1.20369e-05
1.22734e-05
1.269e-05
1.35342e-05
1.71104e-05
0.000726996
0.0019116
0.00503341
0.000737823
1.17348e-05
9.44652e-06
9.6621e-06
9.83944e-06
1.00333e-05
1.02176e-05
1.04085e-05
1.06382e-05
1.09799e-05
1.15021e-05
1.21718e-05
1.48427e-05
0.000784513
0.00098344
3.15162e-05
8.44158e-07
2.78921e-06
7.53995e-06
9.74492e-06
9.50533e-06
1.57522e-06
2.72601e-06
4.31146e-06
5.71532e-06
6.81052e-06
7.60015e-06
8.24298e-06
8.88537e-06
9.54911e-06
1.01974e-05
1.07976e-05
1.27664e-05
0.000523435
0.000112901
4.60404e-06
2.24272e-06
5.50273e-06
8.43913e-06
9.86992e-06
7.74924e-06
2.44248e-06
1.09364e-06
1.53955e-06
2.51133e-06
3.67032e-06
4.85989e-06
6.05088e-06
7.13893e-06
8.09211e-06
8.9567e-06
9.54776e-06
1.13212e-05
0.000239646
1.64181e-05
3.04518e-06
2.8926e-06
5.89712e-06
8.40403e-06
9.76183e-06
7.96928e-06
3.73715e-06
1.46709e-06
1.04654e-06
1.1641e-06
1.696e-06
2.69867e-06
4.02208e-06
5.34298e-06
6.47089e-06
7.57394e-06
8.39377e-06
1.03108e-05
6.15079e-05
4.48181e-06
3.2633e-06
3.52098e-06
6.1669e-06
8.41489e-06
9.66502e-06
8.14011e-06
4.88657e-06
2.28046e-06
1.14991e-06
1.14585e-06
1.252e-06
1.71669e-06
2.62113e-06
3.77228e-06
4.89779e-06
6.13021e-06
7.14698e-06
9.18748e-06
3.41058e-05
4.52201e-06
3.73693e-06
4.15122e-06
6.43203e-06
8.48103e-06
9.65654e-06
8.31188e-06
5.76944e-06
3.23104e-06
1.60298e-06
1.2463e-06
1.29019e-06
1.40117e-06
1.7772e-06
2.542e-06
3.55561e-06
4.84401e-06
5.97677e-06
8.13849e-06
3.93958e-05
4.93667e-06
4.30112e-06
4.80068e-06
6.77093e-06
8.61633e-06
9.68009e-06
8.45453e-06
6.40466e-06
4.19658e-06
2.43988e-06
1.64777e-06
1.40226e-06
1.36263e-06
1.44111e-06
1.79523e-06
2.59416e-06
3.83067e-06
4.9728e-06
7.22362e-06
5.9091e-05
6.02219e-06
4.9442e-06
5.56161e-06
7.23826e-06
8.81175e-06
9.75601e-06
8.60819e-06
6.92392e-06
5.15638e-06
3.50537e-06
2.39281e-06
1.72372e-06
1.44754e-06
1.4802e-06
1.73076e-06
2.24363e-06
3.09736e-06
4.0231e-06
6.21257e-06
0.000113633
8.80549e-06
5.7988e-06
6.62334e-06
7.92635e-06
9.06081e-06
9.89069e-06
8.82566e-06
7.4518e-06
6.01079e-06
4.54732e-06
3.29855e-06
2.30724e-06
1.75691e-06
1.73327e-06
1.88419e-06
2.29379e-06
2.98738e-06
3.84451e-06
6.04325e-06
0.000226927
1.59472e-05
7.17717e-06
8.17301e-06
8.83523e-06
9.48325e-06
1.01229e-05
9.14339e-06
7.98319e-06
6.7725e-06
5.44925e-06
4.17889e-06
3.08125e-06
2.39681e-06
2.22532e-06
2.28577e-06
2.52707e-06
3.10698e-06
3.94569e-06
6.16137e-06
0.00039305
3.38039e-05
9.28612e-06
1.00823e-05
1.02279e-05
1.03592e-05
1.05094e-05
9.60968e-06
8.50137e-06
7.47865e-06
6.35323e-06
5.18846e-06
4.10077e-06
3.36846e-06
2.9591e-06
2.94279e-06
3.07097e-06
3.54489e-06
4.30169e-06
6.40931e-06
0.000532738
6.63942e-05
1.22707e-05
1.20317e-05
1.2603e-05
1.18743e-05
1.12205e-05
1.01776e-05
9.0088e-06
7.98864e-06
7.06317e-06
6.04453e-06
5.06728e-06
4.26687e-06
3.70732e-06
3.71013e-06
3.85383e-06
4.27249e-06
4.86439e-06
6.78674e-06
0.000827352
0.000200443
2.14364e-05
1.35801e-05
1.52823e-05
1.53703e-05
1.41232e-05
1.23794e-05
1.07202e-05
9.54119e-06
8.71971e-06
7.80618e-06
6.9719e-06
6.09057e-06
5.45369e-06
5.53762e-06
5.82229e-06
6.19985e-06
6.64841e-06
8.48918e-06
0.0046579
0.00469753
0.0044974
0.00325036
0.00266644
0.00239149
0.00217643
0.00198366
0.00202434
0.00126325
0.000587284
0.000220115
0.000167822
0.000191121
0.000256668
0.000390155
0.000591712
0.000810101
0.00097666
0.00123214
0.00471158
0.0118745
0.0149072
0.0103942
0.00824093
0.00780145
0.00694458
0.00550485
0.00180819
0.000173404
2.75158e-05
8.46394e-06
8.99731e-06
1.08675e-05
1.58335e-05
2.86606e-05
5.84797e-05
0.000118645
0.000207712
0.000446203
0.00447089
0.0146303
0.0143783
0.00884147
0.00982285
0.00935012
0.00950435
0.0065599
2.92264e-05
5.39591e-06
3.4932e-06
3.83586e-06
4.4891e-06
5.32946e-06
6.47479e-06
8.3388e-06
1.20092e-05
1.94253e-05
3.18128e-05
7.0169e-05
0.00330666
0.0108859
0.00909108
0.00108249
0.00566721
4.14671e-10
0.0187994
0.000173244
1.15722e-06
2.48309e-06
3.17135e-06
3.84255e-06
4.57622e-06
5.41455e-06
6.40794e-06
7.78078e-06
9.83659e-06
1.26566e-05
1.60568e-05
2.2686e-05
0.00270262
0.00935824
0.00879514
1.31636e-06
3.57623e-06
6.07883e-06
6.50865e-06
6.78736e-06
7.08403e-06
7.48959e-06
8.05364e-06
8.89601e-06
1.00701e-05
1.19708e-05
1.51821e-05
1.96407e-05
0.00232224
0.00848344
0.0101423
0.00679271
8.73395e-06
9.47582e-06
9.45979e-06
9.48406e-06
9.57177e-06
9.71116e-06
9.89616e-06
1.01803e-05
1.07171e-05
1.18446e-05
1.38614e-05
1.86058e-05
0.0020694
0.00715103
0.00982048
0.0309569
1.15392e-05
1.13681e-05
1.12371e-05
1.11109e-05
1.10439e-05
1.10641e-05
1.11329e-05
1.1253e-05
1.14876e-05
1.19265e-05
1.2849e-05
1.6696e-05
0.00186696
0.00549505
0.00662813
0.000192979
1.15921e-05
9.04111e-06
9.22058e-06
9.35339e-06
9.487e-06
9.62294e-06
9.79697e-06
1.00208e-05
1.03649e-05
1.09047e-05
1.15853e-05
1.44336e-05
0.00194234
0.00196627
3.55065e-05
9.84279e-07
2.87624e-06
7.25844e-06
9.49388e-06
9.34293e-06
1.58516e-06
2.72975e-06
4.26431e-06
5.56423e-06
6.54191e-06
7.2325e-06
7.8125e-06
8.44722e-06
9.05946e-06
9.65356e-06
1.02488e-05
1.23673e-05
0.00120264
0.000183847
6.24495e-06
2.04646e-06
4.95366e-06
7.70507e-06
9.18088e-06
7.2875e-06
2.31046e-06
1.10244e-06
1.51448e-06
2.4402e-06
3.55136e-06
4.71016e-06
5.85103e-06
6.83275e-06
7.68803e-06
8.45532e-06
9.0396e-06
1.09254e-05
0.000575833
2.97432e-05
3.0455e-06
2.61e-06
5.28357e-06
7.65406e-06
9.07359e-06
7.46004e-06
3.52773e-06
1.40731e-06
1.01274e-06
1.13468e-06
1.71257e-06
2.73276e-06
3.9371e-06
5.09315e-06