/*--------------------------------*- C++ -*----------------------------------*\
  =========                 |
  \\      /  F ield         | OpenFOAM: The Open Source CFD Toolbox
   \\    /   O peration     | Website:  https://openfoam.org
    \\  /    A nd           | Version:  9
     \\/     M anipulation  |
\*---------------------------------------------------------------------------*/
FoamFile
{
    format      ascii;
    class       volScalarField;
    location    "0.0065";
    object      rhoE;
}
// * * * * * * * * * * * * * * * * * * * * * * * * * * * * * * * * * * * * * //

dimensions      [1 -1 -2 0 0 0 0];

internalField   nonuniform List<scalar> 
9720
(
1.39033e+07
1.27791e+07
1.2249e+07
1.0061e+07
9.29773e+06
8.84583e+06
8.61448e+06
7.85436e+06
6.81879e+06
5.64395e+06
4.72683e+06
4.19145e+06
3.99275e+06
4.13277e+06
4.32229e+06
4.61623e+06
4.97969e+06
5.41522e+06
5.80618e+06
6.42523e+06
1.27787e+07
1.18553e+07
9.99849e+06
7.30326e+06
7.74539e+06
8.36894e+06
8.40614e+06
7.4749e+06
5.69868e+06
3.89675e+06
2.99928e+06
2.79658e+06
2.95761e+06
3.27719e+06
3.66568e+06
4.11027e+06
4.60453e+06
5.08796e+06
5.53461e+06
6.15313e+06
1.22095e+07
1.0234e+07
6.60913e+06
5.49296e+06
7.20761e+06
8.38742e+06
8.48341e+06
7.29806e+06
4.59143e+06
2.55186e+06
2.168e+06
2.40151e+06
2.75531e+06
3.26978e+06
3.89801e+06
4.606e+06
5.28389e+06
5.75139e+06
6.24467e+06
6.63715e+06
9.99254e+06
7.2309e+06
5.43607e+06
4.68699e+06
5.97348e+06
8.26416e+06
8.79916e+06
7.91431e+06
4.3238e+06
1.77716e+06
2.11756e+06
2.50991e+06
2.95812e+06
3.41257e+06
3.92974e+06
4.63156e+06
5.5049e+06
6.35908e+06
6.99237e+06
7.25739e+06
9.10892e+06
7.49693e+06
6.96539e+06
5.85376e+06
1.5345e+06
2.83581e+06
3.08028e+06
3.27961e+06
3.46448e+06
3.6671e+06
3.9079e+06
4.2118e+06
4.71263e+06
5.59824e+06
6.68062e+06
7.59419e+06
8.58181e+06
8.07595e+06
8.13843e+06
8.03232e+06
3.59921e+06
3.66393e+06
3.62109e+06
3.61684e+06
3.62478e+06
3.65645e+06
3.72366e+06
3.83529e+06
4.08462e+06
4.59489e+06
5.45393e+06
7.00113e+06
8.34948e+06
8.11578e+06
8.21251e+06
8.54199e+06
3.84168e+06
3.70236e+06
3.67446e+06
3.65704e+06
3.64071e+06
3.65102e+06
3.67442e+06
3.72139e+06
3.82379e+06
4.01901e+06
4.46973e+06
5.87452e+06
7.60966e+06
7.2155e+06
7.02993e+06
7.65577e+06
3.35861e+06
2.7187e+06
2.87207e+06
2.96721e+06
3.04062e+06
3.12032e+06
3.17714e+06
3.25782e+06
3.37654e+06
3.53525e+06
3.79377e+06
4.81796e+06
6.58832e+06
5.44909e+06
4.33049e+06
3.93834e+06
1.57736e+06
3.33262e+06
3.59727e+06
3.10235e+06
487778
789749
1.25742e+06
1.70469e+06
2.01516e+06
2.25177e+06
2.49449e+06
2.6742e+06
2.85708e+06
3.0528e+06
3.24071e+06
3.96117e+06
5.44319e+06
3.71091e+06
2.41155e+06
1.71392e+06
2.6476e+06
3.40602e+06
3.44502e+06
2.53142e+06
863116
338039
454884
738900
1.09291e+06
1.43342e+06
1.7704e+06
2.06362e+06
2.27849e+06
2.5118e+06
2.72936e+06
3.30942e+06
4.56093e+06
2.88871e+06
2.11922e+06
2.04692e+06
2.8763e+06
3.36053e+06
3.42017e+06
2.69344e+06
1.28737e+06
512383
300946
363850
573585
864164
1.16917e+06
1.46858e+06
1.7317e+06
1.99095e+06
2.24834e+06
2.76097e+06
4.03851e+06
2.71223e+06
2.35604e+06
2.42472e+06
3.06529e+06
3.35753e+06
3.40523e+06
2.78741e+06
1.70677e+06
788299
392659
354066
402941
523726
738408
1.00323e+06
1.30304e+06
1.58319e+06
1.8254e+06
2.28976e+06
3.88012e+06
2.88509e+06
2.70233e+06
2.85764e+06
3.24352e+06
3.36859e+06
3.4023e+06
2.86255e+06
1.99526e+06
1.1382e+06
608964
413546
403709
423214
514008
697602
967240
1.24149e+06
1.47111e+06
1.89965e+06
4.03021e+06
3.20816e+06
3.19663e+06
3.28613e+06
3.44843e+06
3.40649e+06
3.42207e+06
2.94061e+06
2.21583e+06
1.46985e+06
904677
555544
429190
449558
506253
598686
773775
981140
1.18815e+06
1.58895e+06
4.23766e+06
3.6058e+06
3.80211e+06
3.76935e+06
3.68898e+06
3.48216e+06
3.46012e+06
2.99692e+06
2.4399e+06
1.79373e+06
1.21193e+06
780510
538992
501478
540895
602069
684205
811726
994540
1.36975e+06
4.53781e+06
4.05584e+06
4.50471e+06
4.42143e+06
3.99377e+06
3.59978e+06
3.52238e+06
3.08357e+06
2.60725e+06
2.07606e+06
1.51715e+06
1.05241e+06
734912
602463
595291
608393
659914
758725
888171
1.22696e+06
4.90958e+06
4.56334e+06
5.20815e+06
5.25942e+06
4.47835e+06
3.84935e+06
3.63997e+06
3.20979e+06
2.77935e+06
2.28504e+06
1.78835e+06
1.36157e+06
1.01392e+06
795391
687290
657297
697912
780912
877394
1.13759e+06
5.35052e+06
5.03886e+06
5.67594e+06
6.10863e+06
5.30123e+06
4.34128e+06
3.85308e+06
3.37741e+06
2.96902e+06
2.51391e+06
2.04732e+06
1.64926e+06
1.29774e+06
1.01738e+06
839606
760640
784793
830445
890602
1.0894e+06
5.73878e+06
5.48014e+06
6.15679e+06
6.75613e+06
6.33192e+06
5.17102e+06
4.3033e+06
3.63983e+06
3.15944e+06
2.72471e+06
2.30398e+06
1.89972e+06
1.53572e+06
1.23742e+06
1.03852e+06
909816
885350
899568
928393
1.08292e+06
6.32756e+06
6.07517e+06
6.53112e+06
7.07129e+06
7.25169e+06
6.65798e+06
5.66014e+06
4.64266e+06
3.87957e+06
3.30396e+06
2.81434e+06
2.36717e+06
1.97465e+06
1.65478e+06
1.4284e+06
1.27331e+06
1.17106e+06
1.11521e+06
1.10869e+06
1.18983e+06
1.36278e+07
1.24424e+07
1.18283e+07
9.57378e+06
8.93745e+06
8.64697e+06
8.45087e+06
7.70301e+06
6.66279e+06
5.47472e+06
4.55861e+06
4.02848e+06
3.80788e+06
3.93519e+06
4.12409e+06
4.42287e+06
4.77898e+06
5.21036e+06
5.60111e+06
6.2193e+06
1.24405e+07
1.15901e+07
8.96843e+06
6.83645e+06
7.62597e+06
8.28418e+06
8.29935e+06
7.37577e+06
5.58518e+06
3.76695e+06
2.86908e+06
2.65405e+06
2.7992e+06
3.08981e+06
3.46538e+06
3.90393e+06
4.39875e+06
4.87983e+06
5.33168e+06
5.95457e+06
1.18785e+07
9.22311e+06
6.08815e+06
5.26164e+06
7.24404e+06
8.37287e+06
8.4417e+06
7.2383e+06
4.49432e+06
2.43244e+06
2.03835e+06
2.26626e+06
2.6037e+06
3.08076e+06
3.66393e+06
4.33909e+06
5.02697e+06
5.50517e+06
6.00633e+06
6.43986e+06
9.57222e+06
6.83377e+06
5.19071e+06
4.45952e+06
6.22388e+06
8.23682e+06
8.7343e+06
7.86795e+06
4.32101e+06
1.7095e+06
2.02256e+06
2.38077e+06
2.79206e+06
3.21658e+06
3.69048e+06
4.34275e+06
5.18899e+06
6.03661e+06
6.65506e+06
7.04732e+06
8.76209e+06
7.29732e+06
6.83159e+06
5.68038e+06
1.52774e+06
2.785e+06
2.99978e+06
3.16324e+06
3.31608e+06
3.48698e+06
3.69696e+06
3.96638e+06
4.41169e+06
5.22003e+06
6.25535e+06
7.26512e+06
8.3709e+06
7.95443e+06
8.08757e+06
7.96674e+06
3.54379e+06
3.61007e+06
3.55306e+06
3.50135e+06
3.49145e+06
3.49669e+06
3.53752e+06
3.62365e+06
3.83083e+06
4.27127e+06
5.04563e+06
6.56425e+06
8.17736e+06
8.01478e+06
8.18248e+06
8.4964e+06
3.7972e+06
3.65974e+06
3.6042e+06
3.55557e+06
3.52423e+06
3.50356e+06
3.51147e+06
3.53975e+06
3.61791e+06
3.7772e+06
4.15484e+06
5.43697e+06
7.45328e+06
7.14242e+06
7.00947e+06
7.61745e+06
3.30791e+06
2.6669e+06
2.79906e+06
2.88595e+06
2.93597e+06
2.98517e+06
3.01907e+06
3.07539e+06
3.17936e+06
3.32341e+06
3.54146e+06
4.43404e+06
6.4396e+06
5.3714e+06
4.28054e+06
3.98882e+06
1.56869e+06
3.29149e+06
3.56807e+06
3.06661e+06
470584
748370
1.20055e+06
1.62481e+06
1.91817e+06
2.1232e+06
2.34491e+06
2.51946e+06
2.68119e+06
2.85163e+06
3.01374e+06
3.63898e+06
5.27578e+06
3.61029e+06
2.33226e+06
1.65949e+06
2.63116e+06
3.39993e+06
3.44743e+06
2.52099e+06
828844
316901
416982
671416
995391
1.3265e+06
1.64605e+06
1.92342e+06
2.11457e+06
2.31258e+06
2.52014e+06
3.04501e+06
4.38747e+06
2.74767e+06
1.96967e+06
1.96051e+06
2.83214e+06
3.33854e+06
3.39272e+06
2.65202e+06
1.24333e+06
469174
264491
309166
503312
783807
1.06994e+06
1.33687e+06
1.5767e+06
1.82264e+06
2.0703e+06
2.54144e+06
3.87613e+06
2.55271e+06
2.19103e+06
2.30041e+06
2.98407e+06
3.28561e+06
3.34919e+06
2.73793e+06
1.63268e+06
721806
337771
303039
352066
467933
658073
887133
1.16687e+06
1.44519e+06
1.67561e+06
2.10066e+06
3.70507e+06
2.71394e+06
2.51764e+06
2.68786e+06
3.12452e+06
3.27542e+06
3.31261e+06
2.78395e+06
1.90017e+06
1.04385e+06
540323
363682
348047
356353
441481
610932
862298
1.11251e+06
1.31843e+06
1.73062e+06
3.83859e+06
3.01134e+06
2.98706e+06
3.08287e+06
3.28615e+06
3.28212e+06
3.31026e+06
2.83629e+06
2.09402e+06
1.36716e+06
821935
492159
360887
370737
419855
505172
659582
849127
1.0515e+06
1.44341e+06
4.03552e+06
3.39793e+06
3.5619e+06
3.52038e+06
3.4855e+06
3.32592e+06
3.32271e+06
2.87288e+06
2.30677e+06
1.67349e+06
1.1056e+06
689733
460311
418348
453654
509180
576600
703933
877388
1.2387e+06
4.32675e+06
3.83838e+06
4.24764e+06
4.12492e+06
3.74754e+06
3.41134e+06
3.35957e+06
2.93319e+06
2.47202e+06
1.93698e+06
1.38229e+06
932585
643519
515431
504929
515437
564128
652311
781890
1.10188e+06
4.67698e+06
4.33225e+06
4.9547e+06
4.94552e+06
4.16959e+06
3.60911e+06
3.44716e+06
3.03831e+06
2.62469e+06
2.12834e+06
1.63889e+06
1.22947e+06
909744
687783
584391
562464
594468
678265
773659
1.0105e+06
5.09446e+06
4.78347e+06
5.40123e+06
5.79394e+06
4.93346e+06
4.02663e+06
3.61621e+06
3.18218e+06
2.78826e+06
2.33532e+06
1.89367e+06
1.51989e+06
1.17357e+06
895670
737978
658953
683204
729235
782033
971504
5.46905e+06
5.21128e+06
5.87088e+06
6.41021e+06
5.92503e+06
4.77879e+06
3.99222e+06
3.39955e+06
2.95155e+06
2.54097e+06
2.14478e+06
1.76174e+06
1.39939e+06
1.11384e+06
927889
808646
782530
790214
810815
964378
6.04715e+06
5.79796e+06
6.269e+06
6.83624e+06
6.9346e+06
6.24465e+06
5.23296e+06
4.27502e+06
3.57986e+06
3.06541e+06
2.61405e+06
2.19322e+06
1.82189e+06
1.518e+06
1.30038e+06
1.14907e+06
1.04194e+06
991621
985279
1.07219e+06
1.37222e+07
1.25116e+07
1.20644e+07
9.50609e+06
8.8438e+06
8.66776e+06
8.49636e+06
7.74321e+06
6.69842e+06
5.47772e+06
4.53667e+06
4.00374e+06
3.75991e+06
3.89048e+06
4.07398e+06
4.36655e+06
4.70745e+06
5.136e+06
5.52933e+06
6.14675e+06
1.23934e+07
1.20819e+07
8.35617e+06
6.60492e+06
7.62952e+06
8.36728e+06
8.35136e+06
7.39879e+06
5.59484e+06
3.75581e+06
2.84223e+06
2.61338e+06
2.75365e+06
3.04516e+06
3.42648e+06
3.85177e+06
4.32999e+06
4.81546e+06
5.26904e+06
5.88248e+06
1.20391e+07
8.47855e+06
5.7107e+06
5.09365e+06
7.26663e+06
8.42602e+06
8.47472e+06
7.22911e+06
4.44424e+06
2.40894e+06
1.98649e+06
2.23456e+06
2.58616e+06
3.07211e+06
3.64824e+06
4.31648e+06
5.03482e+06
5.50282e+06
6.01941e+06
6.44815e+06
9.35179e+06
6.43199e+06
4.94016e+06
4.25246e+06
6.30658e+06
8.27563e+06
8.75246e+06
7.86657e+06
4.18303e+06
1.70324e+06
2.01605e+06
2.384e+06
2.79262e+06
3.23415e+06
3.72371e+06
4.40219e+06
5.28964e+06
6.19723e+06
6.89586e+06
7.20777e+06
8.59142e+06
7.24062e+06
6.83376e+06
5.66038e+06
1.42664e+06
2.80467e+06
3.02375e+06
3.18424e+06
3.33449e+06
3.50854e+06
3.73543e+06
4.03043e+06
4.45911e+06
5.25877e+06
6.39443e+06
7.54178e+06
8.35648e+06
8.0175e+06
8.11576e+06
7.98185e+06
3.51308e+06
3.68053e+06
3.62219e+06
3.5637e+06
3.5581e+06
3.56873e+06
3.61298e+06
3.70012e+06
3.8945e+06
4.29935e+06
5.04981e+06
6.69619e+06
8.20714e+06
8.07628e+06
8.22378e+06
8.51572e+06
3.79297e+06
3.74578e+06
3.68669e+06
3.63719e+06
3.60682e+06
3.60861e+06
3.62147e+06
3.653e+06
3.73032e+06
3.86753e+06
4.19558e+06
5.45188e+06
7.47635e+06
7.18291e+06
7.04615e+06
7.63212e+06
3.29952e+06
2.72527e+06
2.8514e+06
2.94818e+06
2.99977e+06
3.04983e+06
3.1017e+06
3.16192e+06
3.27214e+06
3.41798e+06
3.60985e+06
4.43193e+06
6.45974e+06
5.42253e+06
4.34556e+06
4.07646e+06
1.37413e+06
3.32432e+06
3.59917e+06
3.10534e+06
452994
751681
1.2133e+06
1.61947e+06
1.94046e+06
2.15761e+06
2.37611e+06
2.56925e+06
2.74218e+06
2.93319e+06
3.09268e+06
3.66003e+06
5.26199e+06
3.61266e+06
2.33407e+06
1.59079e+06
2.63373e+06
3.48383e+06
3.52493e+06
2.55701e+06
773039
291978
390084
646063
971494
1.31515e+06
1.63062e+06
1.92259e+06
2.15579e+06
2.3669e+06
2.58376e+06
3.07795e+06
4.32731e+06
2.67558e+06
1.86208e+06
1.87758e+06
2.84876e+06
3.43105e+06
3.47671e+06
2.68975e+06
1.19565e+06
423782
245818
284253
460898
732103
1.02991e+06
1.33135e+06
1.59938e+06
1.85293e+06
2.10524e+06
2.57096e+06
3.81287e+06
2.46688e+06
2.09542e+06
2.22423e+06
3.0034e+06
3.37782e+06
3.43534e+06
2.79123e+06
1.58318e+06
681347
310938
261870
301405
428789
631265
860439
1.13452e+06
1.42694e+06
1.6873e+06
2.12011e+06
3.62014e+06
2.62152e+06
2.43572e+06
2.60523e+06
3.14348e+06
3.37325e+06
3.40725e+06
2.84614e+06
1.89042e+06
1.00808e+06
499432
318113
302132
318089
399366
558322
803707
1.08358e+06
1.31941e+06
1.73017e+06
3.76013e+06
2.91918e+06
2.91649e+06
3.024e+06
3.30293e+06
3.38208e+06
3.4148e+06
2.90404e+06
2.10324e+06
1.34493e+06
774148
456960
328013
314605
351586
425323
589695
810260
1.01621e+06
1.40597e+06
3.96156e+06
3.3186e+06
3.49716e+06
3.47477e+06
3.50983e+06
3.4234e+06
3.43504e+06
2.95994e+06
2.32454e+06
1.64866e+06
1.0693e+06
665653
422105
354630
384190
440980
521207
647326
814401
1.18142e+06
4.26324e+06
3.76774e+06
4.19562e+06
4.09176e+06
3.7858e+06
3.50253e+06
3.47503e+06
3.01984e+06
2.51427e+06
1.92905e+06
1.36924e+06
901548
593020
447233
442736
464515
515552
588289
712449
1.04277e+06
4.60889e+06
4.27479e+06
4.979e+06
4.95243e+06
4.18152e+06
3.67234e+06
3.55735e+06
3.12281e+06
2.67919e+06
2.15668e+06
1.64644e+06
1.18952e+06
854879
628338
532926
514962
534799
609156
715432
967557
5.03626e+06
4.75556e+06
5.46083e+06
5.92742e+06
4.92651e+06
4.04228e+06
3.69767e+06
3.25691e+06
2.85315e+06
2.36631e+06
1.90473e+06
1.49266e+06
1.14434e+06
857117
681898
596050
612641
666317
735418
934697
5.42345e+06
5.20302e+06
5.96026e+06
6.68632e+06
6.06098e+06
4.76754e+06
4.01699e+06
3.43877e+06
3.00658e+06
2.57894e+06
2.15533e+06
1.75532e+06
1.39187e+06
1.07478e+06
864509
739609
719719
741655
768336
923282
6.00223e+06
5.78232e+06
6.36325e+06
7.06249e+06
7.25276e+06
6.38667e+06
5.23909e+06
4.24494e+06
3.57485e+06
3.07146e+06
2.61935e+06
2.19545e+06
1.81706e+06
1.48009e+06
1.24485e+06
1.09012e+06
997439
951214
941175
1.02306e+06
1.38398e+07
1.26197e+07
1.21e+07
9.39261e+06
8.72765e+06
8.68154e+06
8.5411e+06
7.78173e+06
6.71062e+06
5.46894e+06
4.51361e+06
3.9908e+06
3.74389e+06
3.87767e+06
4.0759e+06
4.38148e+06
4.72403e+06
5.1546e+06
5.55402e+06
6.16569e+06
1.2478e+07
1.23517e+07
7.96737e+06
6.4368e+06
7.60265e+06
8.41623e+06
8.40883e+06
7.44221e+06
5.58412e+06
3.72583e+06
2.7903e+06
2.57034e+06
2.70324e+06
3.00313e+06
3.411e+06
3.86416e+06
4.34806e+06
4.84538e+06
5.30727e+06
5.90508e+06
1.2026e+07
7.92698e+06
5.45639e+06
5.00278e+06
7.26164e+06
8.46448e+06
8.5319e+06
7.27334e+06
4.42451e+06
2.38554e+06
1.91284e+06
2.17039e+06
2.54129e+06
3.06973e+06
3.68003e+06
4.37247e+06
5.14661e+06
5.63122e+06
6.13473e+06
6.54267e+06
9.12821e+06
6.14791e+06
4.83856e+06
4.17381e+06
6.14987e+06
8.3006e+06
8.80666e+06
7.8878e+06
3.97537e+06
1.66597e+06
1.98068e+06
2.35854e+06
2.76494e+06
3.21971e+06
3.7205e+06
4.41501e+06
5.3454e+06
6.35234e+06
7.21126e+06
7.41746e+06
8.42998e+06
7.24081e+06
6.93436e+06
5.89033e+06
1.75783e+06
2.86162e+06
3.09206e+06
3.25508e+06
3.39333e+06
3.54464e+06
3.74981e+06
4.03143e+06
4.42533e+06
5.18455e+06
6.42074e+06
7.77849e+06
8.33931e+06
8.09187e+06
8.18925e+06
8.05924e+06
3.68769e+06
3.80227e+06
3.73204e+06
3.67313e+06
3.6493e+06
3.64513e+06
3.66975e+06
3.72706e+06
3.8819e+06
4.22836e+06
4.91935e+06
6.67822e+06
8.23091e+06
8.11076e+06
8.26687e+06
8.53086e+06
3.9919e+06
3.85756e+06
3.79863e+06
3.74277e+06
3.70858e+06
3.69355e+06
3.70091e+06
3.71619e+06
3.76908e+06
3.8654e+06
4.12263e+06
5.29949e+06
7.50127e+06
7.20407e+06
7.06034e+06
7.64682e+06
3.4543e+06
2.77012e+06
2.90049e+06
2.99859e+06
3.05577e+06
3.09839e+06
3.15699e+06
3.2091e+06
3.29307e+06
3.4075e+06
3.55936e+06
4.28767e+06
6.47507e+06
5.41791e+06
4.31197e+06
3.95614e+06
1.53936e+06
3.5115e+06
3.77069e+06
3.23206e+06
439300
721317
1.17768e+06
1.57487e+06
1.9272e+06
2.18228e+06
2.39732e+06
2.58276e+06
2.73899e+06
2.93103e+06
3.08654e+06
3.58019e+06
5.27798e+06
3.62286e+06
2.32859e+06
1.60275e+06
2.75966e+06
3.6681e+06
3.68576e+06
2.65494e+06
787351
276315
361333
607200
945531
1.29891e+06
1.60471e+06
1.8882e+06
2.15989e+06
2.40115e+06
2.60683e+06
3.03825e+06
4.31914e+06
2.66615e+06
1.82757e+06
1.89822e+06
2.98654e+06
3.60334e+06
3.6358e+06
2.7851e+06
1.22735e+06
399715
232575
274662
428937
676902
970528
1.29686e+06
1.62183e+06
1.89426e+06
2.11968e+06
2.55122e+06
3.8072e+06
2.44684e+06
2.0773e+06
2.2601e+06
3.14539e+06
3.54161e+06
3.59194e+06
2.89302e+06
1.60159e+06
669362
299552
244391
269646
384754
596059
853170
1.13777e+06
1.41905e+06
1.65816e+06
2.09273e+06
3.5762e+06
2.57771e+06
2.42606e+06
2.64596e+06
3.28216e+06
3.53303e+06
3.56097e+06
2.95753e+06
1.93029e+06
1.01342e+06
475119
287027
255278
287188
386127
546105
774172
1.02894e+06
1.27923e+06
1.71593e+06
3.71276e+06
2.86696e+06
2.92258e+06
3.08215e+06
3.43213e+06
3.53424e+06
3.56796e+06
3.01255e+06
2.16614e+06
1.35037e+06
734456
418317
300057
290471
317779
382024
532529
751236
978046
1.38799e+06
3.91784e+06
3.27435e+06
3.5141e+06
3.54386e+06
3.63069e+06
3.56557e+06
3.58772e+06
3.08148e+06
2.37686e+06
1.63881e+06
1.02742e+06
638918
411937
321638
339209
375761
446771
588258
768811
1.14301e+06
4.23817e+06
3.74396e+06
4.19738e+06
4.17664e+06
3.90379e+06
3.63111e+06
3.6191e+06
3.13818e+06
2.55789e+06
1.90639e+06
1.34252e+06
895439
576054
401431
379769
400668
460066
550110
662201
987079
4.57808e+06
4.24117e+06
5.0078e+06
5.05401e+06
4.2761e+06
3.78152e+06
3.68601e+06
3.22018e+06
2.70909e+06
2.16626e+06
1.65594e+06
1.17631e+06
804455
562857
464839
462225
495909
566827
660480
911497
4.99938e+06
4.74003e+06
5.54064e+06
6.07718e+06
4.97304e+06
4.11196e+06
3.79462e+06
3.32961e+06
2.89033e+06
2.39759e+06
1.92122e+06
1.45605e+06
1.06843e+06
791754
625205
560057
572410
615124
681525
887845
5.39423e+06
5.20168e+06
6.05625e+06
7.02619e+06
6.17134e+06
4.77537e+06
4.05215e+06
3.48022e+06
3.04595e+06
2.60268e+06
2.14354e+06
1.70074e+06
1.33462e+06
1.02909e+06
817543
688230
667802
684595
722901
890199
5.98621e+06
5.78445e+06
6.48372e+06
7.32492e+06
7.58675e+06
6.49938e+06
5.20909e+06
4.20793e+06
3.55203e+06
3.04695e+06
2.5929e+06
2.15683e+06
1.7927e+06
1.45862e+06
1.20851e+06
1.0395e+06
948205
903282
907520
997380
1.40259e+07
1.27852e+07
1.20319e+07
9.26831e+06
8.66725e+06
8.71395e+06
8.58336e+06
7.81487e+06
6.70979e+06
5.45591e+06
4.47909e+06
3.97081e+06
3.7431e+06
3.8858e+06
4.09326e+06
4.4181e+06
4.77472e+06
5.21211e+06
5.61615e+06
6.21406e+06
1.26413e+07
1.24771e+07
7.69667e+06
6.31149e+06
7.67086e+06
8.49881e+06
8.46519e+06
7.48062e+06
5.56571e+06
3.70253e+06
2.7429e+06
2.5347e+06
2.6628e+06
2.97687e+06
3.40363e+06
3.88843e+06
4.39914e+06
4.91264e+06
5.38449e+06
5.96138e+06
1.19808e+07
7.65954e+06
5.3439e+06
4.97423e+06
7.41029e+06
8.55443e+06
8.58552e+06
7.30831e+06
4.39398e+06
2.35891e+06
1.85756e+06
2.11952e+06
2.49603e+06
3.03893e+06
3.67028e+06
4.38816e+06
5.2153e+06
5.7322e+06
6.25191e+06
6.64151e+06
9.0168e+06
6.05531e+06
4.7699e+06
4.13299e+06
6.24826e+06
8.41155e+06
8.86394e+06
7.96203e+06
4.06587e+06
1.62785e+06
1.94214e+06
2.32453e+06
2.72917e+06
3.18259e+06
3.67405e+06
4.36137e+06
5.32391e+06
6.38519e+06
7.39814e+06
7.58012e+06
8.36617e+06
7.22424e+06
6.91229e+06
5.8646e+06
1.53378e+06
2.82269e+06
3.06915e+06
3.24325e+06
3.38883e+06
3.53741e+06
3.73394e+06
4.00133e+06
4.37278e+06
5.10649e+06
6.37142e+06
7.87801e+06
8.33078e+06
8.10412e+06
8.20517e+06
8.07714e+06
3.67503e+06
3.75888e+06
3.70344e+06
3.65308e+06
3.64347e+06
3.63941e+06
3.6612e+06
3.70918e+06
3.84352e+06
4.16236e+06
4.80239e+06
6.57294e+06
8.25351e+06
8.13734e+06
8.29793e+06
8.57574e+06
3.95746e+06
3.81739e+06
3.77367e+06
3.72559e+06
3.70034e+06
3.69371e+06
3.70376e+06
3.71756e+06
3.76197e+06
3.84176e+06
4.05986e+06
5.14973e+06
7.52502e+06
7.22152e+06
7.06727e+06
7.66897e+06
3.42698e+06
2.70677e+06
2.85815e+06
2.97181e+06
3.03942e+06
3.07911e+06
3.13902e+06
3.19596e+06
3.27633e+06
3.37937e+06
3.50764e+06
4.16554e+06
6.4876e+06
5.39905e+06
4.25929e+06
3.91333e+06
1.53449e+06
3.65027e+06
3.9001e+06
3.31459e+06
426415
694701
1.13312e+06
1.51874e+06
1.87592e+06
2.14942e+06
2.38231e+06
2.57299e+06
2.71235e+06
2.89421e+06
3.05022e+06
3.49682e+06
5.28861e+06
3.60974e+06
2.30533e+06
1.61421e+06
2.8336e+06
3.7692e+06
3.77581e+06
2.70655e+06
798532
267714
343251
584213
923110
1.28127e+06
1.57985e+06
1.85174e+06
2.13303e+06
2.37772e+06
2.59007e+06
2.99277e+06
4.33705e+06
2.67613e+06
1.82689e+06
1.92725e+06
3.07245e+06
3.70387e+06
3.73153e+06
2.83235e+06
1.25715e+06
389927
226721
274537
408232
635095
929930
1.26637e+06
1.60792e+06
1.89595e+06
2.1094e+06
2.52239e+06
3.8229e+06
2.45532e+06
2.09052e+06
2.30887e+06
3.24047e+06
3.64207e+06
3.69039e+06
2.94406e+06
1.61808e+06
666827
297471
239409
250706
359824
580189
849748
1.14151e+06
1.40001e+06
1.62159e+06
2.05913e+06
3.57254e+06
2.57531e+06
2.45284e+06
2.708e+06
3.38188e+06
3.6311e+06
3.6557e+06
3.01438e+06
1.94626e+06
1.01715e+06
463322
269234
251236
293038
398475
555082
752705
984409
1.24251e+06
1.69755e+06
3.70592e+06
2.86492e+06
2.96262e+06
3.153e+06
3.53184e+06
3.62838e+06
3.65778e+06
3.06817e+06
2.19322e+06
1.35773e+06
709871
398831
304887
283691
306331
365042
501351
724648
965909
1.38628e+06
3.90755e+06
3.27698e+06
3.56246e+06
3.62266e+06
3.72948e+06
3.65619e+06
3.67427e+06
3.14462e+06
2.40729e+06
1.63648e+06
1.00189e+06
626974
422202
309928
320456
344076
411957
568182
757495
1.12905e+06
4.21946e+06
3.74125e+06
4.23327e+06
4.26379e+06
3.99334e+06
3.71234e+06
3.70107e+06
3.20553e+06
2.58875e+06
1.89928e+06
1.324e+06
891773
583553
383224
349278
368662
433817
534695
644078
958002
4.55688e+06
4.22523e+06
5.02394e+06
5.15023e+06
4.34952e+06
3.85053e+06
3.76035e+06
3.28335e+06
2.73356e+06
2.17647e+06
1.65679e+06
1.18145e+06
784029
530879
429409
437620
479877
551674
635211
888618
4.97746e+06
4.72925e+06
5.56444e+06
6.1672e+06
5.02582e+06
4.16305e+06
3.85572e+06
3.38672e+06
2.92316e+06
2.41858e+06
1.94159e+06
1.44521e+06
1.02637e+06
763917
600874
543284
557852
593522
654321
869976
5.37418e+06
5.2028e+06
6.08537e+06
7.17678e+06
6.19899e+06
4.77325e+06
4.07677e+06
3.51321e+06
3.0819e+06
2.63167e+06
2.15714e+06
1.67925e+06
1.30077e+06
1.01582e+06
803692
667077
645950
656135
707639
884802
5.95961e+06
5.77578e+06
6.52345e+06
7.43048e+06
7.6791e+06
6.47138e+06
5.14498e+06
4.16752e+06
3.53343e+06
3.04182e+06
2.59025e+06
2.14114e+06
1.78031e+06
1.4589e+06
1.19496e+06
1.01099e+06
927855
885983
902475
991395
1.40289e+07
1.27719e+07
1.19702e+07
9.23968e+06
8.66558e+06
8.72325e+06
8.57938e+06
7.81199e+06
6.70574e+06
5.45191e+06
4.46636e+06
3.96382e+06
3.74391e+06
3.88958e+06
4.10633e+06
4.43818e+06
4.79527e+06
5.23453e+06
5.64016e+06
6.24006e+06
1.26654e+07
1.24762e+07
7.64425e+06
6.28944e+06
7.72073e+06
8.52381e+06
8.46731e+06
7.4743e+06
5.55757e+06
3.70399e+06
2.73517e+06
2.53403e+06
2.66128e+06
2.9769e+06
3.40878e+06
3.9011e+06
4.41485e+06
4.93419e+06
5.40681e+06
5.98188e+06
1.20264e+07
7.64718e+06
5.31401e+06
4.95707e+06
7.50364e+06
8.58397e+06
8.58177e+06
7.30137e+06
4.38183e+06
2.36116e+06
1.85808e+06
2.11936e+06
2.49311e+06
3.0374e+06
3.66624e+06
4.38639e+06
5.22978e+06
5.75661e+06
6.28737e+06
6.65947e+06
9.01074e+06
6.03915e+06
4.7506e+06
4.1134e+06
6.44643e+06
8.44152e+06
8.86816e+06
7.96699e+06
4.03144e+06
1.62185e+06
1.93603e+06
2.32151e+06
2.72888e+06
3.18342e+06
3.67316e+06
4.35562e+06
5.31513e+06
6.4086e+06
7.45608e+06
7.59557e+06
8.34561e+06
7.18654e+06
6.86278e+06
5.6625e+06
1.48283e+06
2.7912e+06
3.03445e+06
3.21256e+06
3.36584e+06
3.52311e+06
3.72613e+06
3.99551e+06
4.36394e+06
5.09361e+06
6.37745e+06
7.8889e+06
8.31997e+06
8.0907e+06
8.19997e+06
8.07277e+06
3.61925e+06
3.73173e+06
3.67256e+06
3.62367e+06
3.61715e+06
3.61821e+06
3.64668e+06
3.70011e+06
3.83881e+06
4.15819e+06
4.79736e+06
6.56989e+06
8.25091e+06
8.13032e+06
8.29695e+06
8.57036e+06
3.9036e+06
3.78021e+06
3.73594e+06
3.69231e+06
3.66726e+06
3.67096e+06
3.68578e+06
3.70534e+06
3.75549e+06
3.83762e+06
4.05317e+06
5.13336e+06
7.52345e+06
7.22758e+06
7.08015e+06
7.67634e+06
3.35641e+06
2.69396e+06
2.8298e+06
2.94411e+06
3.015e+06
3.05605e+06
3.11713e+06
3.17498e+06
3.26038e+06
3.36655e+06
3.49239e+06
4.14228e+06
6.49244e+06
5.40868e+06
4.27844e+06
4.02191e+06
1.38658e+06
3.70131e+06
3.94844e+06
3.35052e+06
428915
705114
1.14766e+06
1.52666e+06
1.87603e+06
2.14279e+06
2.36499e+06
2.5537e+06
2.69797e+06
2.88044e+06
3.03521e+06
3.47489e+06
5.29273e+06
3.61121e+06
2.30712e+06
1.59816e+06
2.83281e+06
3.78671e+06
3.79592e+06
2.70194e+06
771637
263598
347251
589794
924882
1.27442e+06
1.57038e+06
1.84268e+06
2.11937e+06
2.36214e+06
2.57014e+06
2.9649e+06
4.34343e+06
2.68268e+06
1.83243e+06
1.91431e+06
3.07361e+06
3.72158e+06
3.75281e+06
2.8342e+06
1.22635e+06
383456
225327
273150
408544
638480
929325
1.25628e+06
1.59086e+06
1.87556e+06
2.08562e+06
2.4964e+06
3.82646e+06
2.4577e+06
2.09398e+06
2.30114e+06
3.24463e+06
3.66153e+06
3.71225e+06
2.95875e+06
1.59906e+06
657669
293312
237614
254050
363089
574775
834855
1.11949e+06
1.37923e+06
1.60178e+06
2.03401e+06
3.57638e+06
2.57932e+06
2.45721e+06
2.70814e+06
3.38982e+06
3.65112e+06
3.67927e+06
3.03546e+06
1.93549e+06
1.00328e+06
457411
270561
245040
285275
386293
537985
738813
974183
1.22729e+06
1.67402e+06
3.71143e+06
2.87239e+06
2.9708e+06
3.15708e+06
3.54324e+06
3.6484e+06
3.6821e+06
3.08108e+06
2.18377e+06
1.34642e+06
707842
398342
297134
277529
300360
359451
497704
712974
949443
1.3659e+06
3.91325e+06
3.28479e+06
3.57526e+06
3.62923e+06
3.74368e+06
3.67518e+06
3.69744e+06
3.14678e+06
2.40409e+06
1.63813e+06
1.00179e+06
623084
414448
305424
316489
339979
405199
555914
741449
1.11376e+06
4.22446e+06
3.75097e+06
4.25022e+06
4.28312e+06
4.00871e+06
3.72873e+06
3.72337e+06
3.20997e+06
2.60171e+06
1.90723e+06
1.32495e+06
888207
574897
380843
345732
363475
426038
527469
635787
949413
4.55783e+06
4.23013e+06
5.0399e+06
5.1814e+06
4.36557e+06
3.86659e+06
3.78333e+06
3.29882e+06
2.75472e+06
2.1826e+06
1.6573e+06
1.17649e+06
786463
534602
422981
431234
472298
544722
627703
881957
4.97238e+06
4.72912e+06
5.56755e+06
6.18485e+06
5.04756e+06
4.18198e+06
3.87938e+06
3.41109e+06
2.93159e+06
2.42115e+06
1.94044e+06
1.45051e+06
1.03415e+06
761527
592844
537942
552692
585951
651603
866643
5.36209e+06
5.19491e+06
6.07734e+06
7.16176e+06
6.2093e+06
4.79426e+06
4.10063e+06
3.53873e+06
3.0873e+06
2.63252e+06
2.16401e+06
1.68794e+06
1.30396e+06
1.01235e+06
795873
661188
639627
653823
706266
881288
5.93869e+06
5.75884e+06
6.50552e+06
7.41477e+06
7.65962e+06
6.4562e+06
5.14492e+06
4.17152e+06
3.53376e+06
3.0453e+06
2.59404e+06
2.13967e+06
1.78098e+06
1.45874e+06
1.19153e+06
1.00761e+06
922817
883279
898508
989593
1.38509e+07
1.25939e+07
1.19954e+07
9.32526e+06
8.71106e+06
8.70236e+06
8.53313e+06
7.76922e+06
6.68215e+06
5.43693e+06
4.47943e+06
3.97724e+06
3.74837e+06
3.88664e+06
4.09589e+06
4.41412e+06
4.75916e+06
5.19238e+06
5.59626e+06
6.20714e+06
1.25347e+07
1.23784e+07
7.86915e+06
6.36426e+06
7.6993e+06
8.48114e+06
8.41853e+06
7.42926e+06
5.54309e+06
3.69223e+06
2.75133e+06
2.56122e+06
2.69547e+06
3.00087e+06
3.41896e+06
3.88579e+06
4.37764e+06
4.88113e+06
5.34703e+06
5.93853e+06
1.2102e+07
7.92883e+06
5.40929e+06
4.97601e+06
7.45499e+06
8.53698e+06
8.52602e+06
7.2608e+06
4.3747e+06
2.35858e+06
1.88841e+06
2.15252e+06
2.52693e+06
3.06018e+06
3.67329e+06
4.37726e+06
5.16966e+06
5.66376e+06
6.18014e+06
6.57741e+06
9.13156e+06
6.12413e+06
4.77989e+06
4.15182e+06
6.46894e+06
8.44789e+06
8.84991e+06
7.94796e+06
4.01238e+06
1.64071e+06
1.95695e+06
2.34173e+06
2.75696e+06
3.21938e+06
3.72243e+06
4.41375e+06
5.35189e+06
6.37887e+06
7.27587e+06
7.45149e+06
8.40311e+06
7.16401e+06
6.8173e+06
5.65636e+06
1.49161e+06
2.81278e+06
3.04967e+06
3.21866e+06
3.36335e+06
3.52156e+06
3.72933e+06
4.00633e+06
4.39445e+06
5.15009e+06
6.42276e+06
7.815e+06
8.30082e+06
8.04487e+06
8.17253e+06
8.08419e+06
3.64187e+06
3.75449e+06
3.68546e+06
3.62713e+06
3.60403e+06
3.60184e+06
3.62869e+06
3.68683e+06
3.84212e+06
4.18491e+06
4.8758e+06
6.67123e+06
8.20895e+06
8.08944e+06
8.27372e+06
8.57708e+06
3.92123e+06
3.80072e+06
3.74494e+06
3.69313e+06
3.65883e+06
3.64935e+06
3.66089e+06
3.67912e+06
3.73397e+06
3.82693e+06
4.07443e+06
5.24571e+06
7.48379e+06
7.192e+06
7.04878e+06
7.67978e+06
3.36756e+06
2.73186e+06
2.85532e+06
2.95519e+06
3.01532e+06
3.06019e+06
3.12132e+06
3.17264e+06
3.25072e+06
3.35845e+06
3.50315e+06
4.2261e+06
6.45153e+06
5.3742e+06
4.24766e+06
3.89784e+06
1.5015e+06
3.64569e+06
3.91698e+06
3.33749e+06
422572
734568
1.1933e+06
1.58271e+06
1.92331e+06
2.16101e+06
2.36445e+06
2.55058e+06
2.70836e+06
2.89143e+06
3.04204e+06
3.52398e+06
5.26507e+06
3.58796e+06
2.29773e+06
1.61668e+06
2.78855e+06
3.71101e+06
3.74544e+06
2.6828e+06
747737
271879
367613
617377
945721
1.28741e+06
1.59165e+06
1.87593e+06
2.14012e+06
2.36899e+06
2.56227e+06
2.98041e+06
4.3329e+06
2.68097e+06
1.84433e+06
1.92837e+06
3.02195e+06
3.64703e+06
3.69439e+06
2.81105e+06
1.1979e+06
390455
229559
269708
425695
676768
971301
1.29224e+06
1.60208e+06
1.85941e+06
2.07995e+06
2.50486e+06
3.81479e+06
2.45568e+06
2.09596e+06
2.30385e+06
3.18659e+06
3.58893e+06
3.64851e+06
2.91815e+06
1.58287e+06
647616
286614
238637
268902
386971
594941
841143
1.10929e+06
1.38681e+06
1.62642e+06
2.0556e+06
3.5889e+06
2.59129e+06
2.45581e+06
2.70545e+06
3.32694e+06
3.57322e+06
3.61562e+06
2.98506e+06
1.92258e+06
979257
457016
282318
254131
287427
379882
527870
752694
1.01062e+06
1.25929e+06
1.68947e+06
3.72779e+06
2.88847e+06
2.96605e+06
3.14535e+06
3.47962e+06
3.57271e+06
3.60953e+06
3.03744e+06
2.1557e+06
1.32106e+06
719300
412837
297237
280585
306817
371539
523142
737866
960043
1.3607e+06
3.92943e+06
3.29624e+06
3.56434e+06
3.61566e+06
3.67845e+06
3.59875e+06
3.62429e+06
3.10281e+06
2.36484e+06
1.62517e+06
1.01798e+06
629741
402906
311132
329439
368183
439050
576305
747676
1.11705e+06
4.23857e+06
3.75967e+06
4.25142e+06
4.26405e+06
3.94563e+06
3.65515e+06
3.64904e+06
3.1573e+06
2.56113e+06
1.90889e+06
1.33762e+06
883522
562305
392094
373173
394792
452916
539693
649064
974675
4.57642e+06
4.25124e+06
5.05474e+06
5.15237e+06
4.31332e+06
3.80063e+06
3.71092e+06
3.24017e+06
2.72464e+06
2.17431e+06
1.65137e+06
1.16265e+06
798368
562039
460633
455432
486432
555939
652313
905878
4.99531e+06
4.74502e+06
5.56036e+06
6.15787e+06
5.01942e+06
4.13186e+06
3.81335e+06
3.35062e+06
2.90833e+06
2.40796e+06
1.92172e+06
1.45657e+06
1.07507e+06
793287
617008
548686
562876
609925
680492
883845
5.38216e+06
5.19612e+06
6.06459e+06
7.08205e+06
6.21387e+06
4.79207e+06
4.06435e+06
3.49494e+06
3.06085e+06
2.61131e+06
2.15658e+06
1.71238e+06
1.3411e+06
1.02899e+06
806096
681560
664602
686223
723833
886719
5.9561e+06
5.75863e+06
6.45415e+06
7.28943e+06
7.58084e+06
6.49697e+06
5.20613e+06
4.20824e+06
3.55354e+06
3.04897e+06