/*--------------------------------*- C++ -*----------------------------------*\
  =========                 |
  \\      /  F ield         | OpenFOAM: The Open Source CFD Toolbox
   \\    /   O peration     | Website:  https://openfoam.org
    \\  /    A nd           | Version:  9
     \\/     M anipulation  |
\*---------------------------------------------------------------------------*/
FoamFile
{
    format      ascii;
    class       volVectorField;
    location    "0.0065";
    object      rhoU;
}
// * * * * * * * * * * * * * * * * * * * * * * * * * * * * * * * * * * * * * //

dimensions      [1 -2 -1 0 0 0 0];

internalField   nonuniform List<vector> 
9720
(
(-4294.31 -4310.81 -8.27506)
(-3221.9 -4381.46 17.3297)
(-2601.08 -4523.56 -17.2571)
(-2179.98 -4451.25 -127.736)
(-1391.69 -4796.47 -134.581)
(-386.013 -4735.13 -113.242)
(527.472 -4619.82 -126.989)
(1476.74 -4174.16 -104.646)
(2149.95 -3421.52 -100.503)
(2350.68 -2524.94 -70.3261)
(2317.76 -1817.25 -63.6709)
(2257.22 -1365.27 -23.9304)
(2256.65 -1106.77 -29.4761)
(2399.36 -980.421 -52.7979)
(2539.39 -884.257 -55.0968)
(2727.62 -823.64 -39.5406)
(2946.08 -780.554 -32.4675)
(3199.75 -772.278 -44.3868)
(3429.16 -747.746 -50.6649)
(3796.9 -704.897 -63.0903)
(-4373.1 -3215.33 32.0104)
(-3410.13 -3403.34 49.7421)
(-2742.04 -3261.23 -10.5464)
(-2522.15 -3069.07 -103.424)
(-1511.11 -4121.68 -109.565)
(-473.193 -4520.07 -101.456)
(495.878 -4516.95 -112.019)
(1572.1 -3968.72 -92.6404)
(2177.54 -2731.47 -76.5145)
(1984.16 -1521.94 -30.6921)
(1743.74 -914.376 -29.699)
(1702.71 -678.171 -2.16212)
(1830.31 -600.342 -10.4714)
(2038.1 -551.797 -36.6081)
(2270.2 -523.714 -47.6243)
(2523.36 -519.417 -31.9873)
(2801.77 -541.426 -23.1206)
(3070.07 -573.436 -28.9226)
(3318.87 -591.728 -38.9121)
(3674.8 -582.451 -52.5431)
(-4510.99 -2565.16 27.8699)
(-3321.1 -2754.31 21.0029)
(-2651.86 -2629.47 -54.015)
(-2186.61 -2495.48 -96.4623)
(-1586.52 -3806.73 -75.3432)
(-498.322 -4484.1 -79.519)
(583.442 -4511.7 -88.1616)
(1676.08 -3808.35 -60.9196)
(2019.53 -2028.05 -48.6789)
(1465.71 -811.559 -24.5047)
(1339.06 -508.957 -19.3262)
(1511.25 -435.634 -21.0815)
(1731.38 -421.532 -27.2706)
(2040.09 -434.703 -43.7949)
(2415.64 -432.531 -57.8815)
(2826.04 -454.4 -66.1488)
(3212.3 -430.277 -57.2945)
(3464.82 -436.819 -44.0364)
(3723.68 -496.272 -48.74)
(3945.55 -508.053 -55.4795)
(-4426.37 -2091.99 -70.0314)
(-3053.93 -2463.03 -49.9611)
(-2485.69 -2151.98 -29.6005)
(-2111.35 -2045.78 -85.3243)
(-1855.3 -3021.22 -87.5943)
(-918.456 -4355.04 -69.2869)
(282.703 -4626.67 -116.81)
(1427.46 -4100.18 -102.755)
(1889.85 -1963.15 -80.4216)
(1114.43 -416.282 -21.2896)
(1303.8 -444.575 -39.2588)
(1532.39 -475.724 -51.858)
(1802.1 -507.025 -50.5695)
(2080.33 -519.73 -47.8902)
(2396.98 -515.013 -58.8551)
(2825.81 -467.572 -80.9424)
(3346.9 -418.859 -91.2539)
(3834.09 -368.457 -71.7268)
(4167.75 -264.381 -91.1668)
(4312.66 -251.47 -113.432)
(-4697.88 -1347.41 -132.787)
(-4003 -1475.56 -98.0474)
(-3697.56 -1543.28 -60.269)
(-2980.19 -1774.84 -72.1721)
(949.5 -340.154 -38.5095)
(1722.55 -373.097 -40.9384)
(1862.08 -389.324 -43.8346)
(1979.33 -392.632 -49.4967)
(2090.32 -385.374 -54.5731)
(2213.3 -376.387 -58.5667)
(2361.8 -363.839 -69.6766)
(2552.46 -347.798 -70.7282)
(2861.64 -294.172 -78.326)
(3397.9 -163.696 -113.265)
(4026.14 -56.0133 -119.146)
(4518.66 23.6392 -129.626)
(-4610.34 -370.124 -118.151)
(-4386.08 -455.05 -104.964)
(-4371.77 -485.025 -86.528)
(-4251.12 -896.908 -81.1353)
(2205.53 -236.715 -61.7754)
(2243.34 -132.623 -48.2231)
(2217.92 -127.393 -51.5423)
(2216.87 -124.032 -55.4356)
(2222.06 -120.913 -59.0855)
(2241.12 -116.14 -60.5394)
(2280.08 -106.77 -65.3876)
(2346.06 -93.948 -69.465)
(2492.74 -70.7063 -67.4594)
(2793.32 -29.8796 -86.8502)
(3297.06 97.9854 -98.2144)
(4178.89 312.031 -107.145)
(-4499.18 517.526 -146.4)
(-4390.52 483.021 -130.093)
(-4392.9 567.048 -104.117)
(-4512.11 274.684 -134.083)
(2355.56 28.5422 -62.6011)
(2255.44 120.614 -48.3376)
(2238.99 112.466 -48.715)
(2229.38 106.111 -52.4396)
(2218.91 102.771 -58.5407)
(2223.79 103.254 -60.147)
(2235.16 107.02 -59.7818)
(2261.26 114.283 -62.9358)
(2320.12 128.64 -62.9579)
(2435.98 150.874 -69.2214)
(2693.67 220.949 -80.0168)
(3498.95 438.886 -95.9526)
(-4064.45 1443.49 -118.874)
(-3857.72 1531.23 -105.862)
(-3691.17 1636.95 -74.5019)
(-3987.88 1388.36 -120.72)
(2039.87 287.614 -53.4409)
(1629.04 354.994 -26.199)
(1717.03 359.508 -42.6203)
(1776.96 352.594 -51.5939)
(1821.18 345.108 -45.5434)
(1867.01 335.37 -37.5343)
(1902.16 328.387 -42.2075)
(1949.08 322.318 -54.9255)
(2018.04 318.835 -57.1819)
(2113.75 323.351 -56.5274)
(2263.18 352.989 -58.3521)
(2844.34 515.903 -68.0812)
(-3314.9 2097.71 -117.075)
(-2617.72 2107.58 -95.5637)
(-1909.12 1933.02 -73.8884)
(-1776.82 1770.35 -100.058)
(-348.452 977.573 -40.8329)
(-227.153 2068 -60.4377)
(34.9817 2231.97 -63.9342)
(286.581 1906.48 -52.2524)
(201.179 225.371 -14.4361)
(434.261 232.231 -22.0249)
(709.684 320.164 -20.9474)
(971.208 389.357 -14.8489)
(1163.62 424.04 -15.7469)
(1307.27 438.31 -36.8815)
(1447.28 447.164 -50.2681)
(1558.36 449.019 -52.1688)
(1664.97 451.831 -46.3251)
(1779.36 453.791 -44.1207)
(1895.65 457.889 -48.7429)
(2303.11 577.006 -57.2879)
(-2435.3 2282.75 -101.398)
(-1447.75 1906.09 -63.559)
(-768.177 1398.04 -48.5601)
(-405.807 1078.28 -29.0203)
(-361.649 1624.98 -41.8199)
(-123.583 2111.51 -48.886)
(124.778 2123.74 -47.8341)
(349.386 1537.2 -27.1777)
(240.352 479.316 -14.2853)
(148.93 156.5 -10.5512)
(234.549 168.533 4.03024)
(394.291 240.279 -2.75398)
(596.748 323.542 -23.9426)
(799.034 390.654 -37.8475)
(993.123 444.446 -40.1337)
(1165.18 480.836 -32.8132)
(1300.16 494.762 -25.2021)
(1430.17 515.571 -34.0565)
(1558.02 517.641 -42.6219)
(1882.14 611.737 -50.7121)
(-1754.25 2249.3 -91.923)
(-880.573 1686.09 -57.041)
(-496.264 1312.05 -39.8177)
(-436.764 1264.27 -48.6044)
(-376.18 1756.22 -45.6223)
(-118.275 2083.73 -51.2912)
(115.135 2108.28 -47.891)
(352.322 1630.67 -38.9728)
(322.502 738.58 -25.2494)
(178.523 264.56 3.87427)
(134.811 140.388 2.11764)
(178.32 143.864 -10.6617)
(289.892 203.17 -16.9986)
(450.316 292.878 -19.5544)
(626.49 371.832 -16.4217)
(797.641 435.606 -17.6222)
(952.525 478.847 -24.2532)
(1105.48 514.556 -32.8718)
(1248.72 536.548 -40.9582)
(1537.84 617.212 -43.0233)
(-1318.05 2184.49 -50.4227)
(-663.177 1655 -29.4904)
(-431.554 1482.68 -39.3351)
(-468.915 1487.39 -59.7251)
(-377.499 1867.96 -51.7019)
(-114.528 2082.17 -54.6707)
(108.918 2099.13 -53.0034)
(344.811 1690.33 -44.6655)
(390.343 985.124 -20.84)
(254.122 426.344 -3.95258)
(149.695 196.133 -8.87926)
(152.713 157.907 -10.9856)
(187.567 159.961 -6.13051)
(255.915 201.629 -3.79168)
(373.421 271.205 -1.70888)
(516.052 347.878 -8.94316)
(678.7 420.321 -23.6473)
(841.914 481.031 -29.9266)
(977.433 520.762 -40.1839)
(1238.38 599.9 -43.367)
(-1079.04 2200.85 -53.8318)
(-597.069 1786.75 -35.0298)
(-425.204 1698.84 -44.1427)
(-498.941 1749.98 -60.1775)
(-369.939 1975.62 -56.5691)
(-111.934 2089.01 -58.2519)
(104.127 2096.46 -58.9488)
(335.133 1736.06 -40.2915)
(421.338 1164.62 -18.059)
(335.955 629.323 -21.8753)
(216.406 313.556 -19.2021)
(161.392 197.661 -7.7036)
(174.244 177.904 -3.44923)
(194.984 174.534 -1.23845)
(245.443 198.203 0.869548)
(338.27 260.795 -5.531)
(476.06 345.003 -20.0741)
(629 424.296 -29.0464)
(753.876 480.444 -30.6646)
(991.268 565.911 -27.8293)
(-960.787 2344.41 -78.2236)
(-554.34 1996.23 -57.6306)
(-442.725 1997.37 -56.6628)
(-509.523 2013.71 -56.3811)
(-361.562 2100.78 -61.4508)
(-107.346 2112.03 -60.1564)
(102.819 2106.43 -59.6625)
(324.177 1781.75 -36.2343)
(433.378 1298.64 -31.4435)
(399.126 827.669 -33.9701)
(306.229 479.287 -21.8852)
(215.005 275.936 -8.18916)
(175.335 201.755 -3.83986)
(191.373 196.255 -1.95333)
(225.254 204.928 -4.57236)
(275.088 237.361 -10.8606)
(364.881 297.63 -20.0514)
(476.047 365.968 -18.3064)
(582.517 425.544 -8.56151)
(797.858 522.074 -10.1136)
(-874.209 2491.36 -82.5604)
(-526.689 2235.18 -70.4503)
(-439.859 2361.95 -68.2466)
(-505.656 2311 -64.8635)
(-348.858 2250.06 -71.6001)
(-98.0669 2156.69 -65.8265)
(105.878 2126.54 -59.6491)
(316.952 1817.46 -42.6489)
(439.641 1428.76 -40.0096)
(449.088 1014.79 -36.1622)
(383.974 656.948 -17.7189)
(289.172 399.738 -5.41886)
(210.535 261.64 -3.14187)
(202.865 228.346 -7.25671)
(229.487 230.389 -13.1439)
(265.752 250.454 -14.568)
(312.138 275.281 -12.6455)
(378.602 315.389 -2.31719)
(465.173 375.165 -0.739091)
(658.284 483.964 -9.53019)
(-814.641 2682.65 -68.1691)
(-516.47 2491.75 -58.751)
(-465.689 2770.13 -74.6669)
(-461.173 2711.2 -86.7203)
(-332.212 2441.45 -69.0082)
(-85.9389 2227.3 -68.3507)
(112.635 2161.72 -62.4894)
(311.516 1867.92 -55.4498)
(440.07 1533.64 -42.9925)
(482.937 1180.7 -27.4517)
(447.479 830.513 -13.9526)
(366.852 547.603 -9.5506)
(278.565 363.756 -9.71997)
(241.79 282.924 -14.1981)
(248.819 265.459 -16.3505)
(263.717 264.186 -8.81747)
(292.111 276.394 -1.64726)
(340.555 304.737 2.82346)
(402.993 349.48 -0.867445)
(570.282 456.787 -7.58185)
(-773.327 2905.56 -62.8455)
(-540.066 2776.71 -53.6731)
(-447.087 3170.35 -72.5731)
(-409.582 3213.75 -93.3733)
(-280.883 2740.79 -80.4746)
(-62.1335 2375.02 -67.4578)
(126.442 2229.58 -62.1554)
(308.971 1941.4 -57.7809)
(440.8 1636.21 -39.7125)
(495.364 1312.28 -16.4054)
(491.02 988.949 -18.1378)
(440.295 716.48 -22.4282)
(364.8 507.859 -22.1995)
(310.063 381.426 -21.6123)
(279.783 317.516 -13.1545)
(276.116 293.467 -1.41176)
(297.314 299.098 1.98397)
(338.98 321.97 -2.27947)
(388.991 355.957 -7.06826)
(516.485 440.124 -9.65475)
(-767.524 3161.8 -75.2462)
(-574.517 3039.49 -61.0016)
(-442.26 3422.2 -70.1789)
(-368.3 3699 -60.0755)
(-165.72 3241 -109.934)
(-20.367 2666.04 -87.5045)
(149.304 2355.35 -69.5483)
(315.637 2042 -58.3781)
(442.265 1749.12 -39.9713)
(514.142 1441.32 -23.699)
(525.816 1142.32 -27.0305)
(500.618 884.948 -27.169)
(445.038 666.185 -28.0871)
(384.214 499.828 -17.4408)
(330.841 394.93 -1.81054)
(308.541 344.893 2.36822)
(324.578 342.974 -2.62511)
(352.366 352.296 -12.6655)
(387.294 372.601 -15.5651)
(481.618 436.88 -12.9813)
(-744.701 3389.83 -81.6859)
(-595.272 3284.86 -71.6429)
(-496.453 3674.21 -77.4581)
(-275.539 4040.64 -88.8076)
(-53.8327 3842.06 -91.9135)
(101.041 3155.24 -90.0989)
(217.05 2614.66 -78.253)
(346.226 2194.07 -59.5215)
(447.847 1867.59 -46.5646)
(515.011 1567.43 -35.4319)
(546.086 1286.96 -33.7115)
(540.075 1024.94 -33.2832)
(502.353 794.489 -24.382)
(447.685 612.156 -4.22644)
(396.831 489.5 0.174209)
(361.602 416.211 -2.02946)
(361.229 395.101 -7.56899)
(377.206 391.984 -15.5944)
(397.991 398.143 -12.5186)
(472.404 445.139 -5.73699)
(-700.416 3741.98 -92.6894)
(-584.956 3628.96 -84.6543)
(-510.396 3885.26 -84.5743)
(-262.99 4210.75 -121.403)
(17.251 4336.34 -111.513)
(301.921 4001.91 -96.2548)
(422.244 3395.04 -89.7856)
(506.504 2765.44 -66.4298)
(568.618 2276.9 -55.2242)
(609.708 1893.41 -44.7374)
(626.472 1577.07 -34.8587)
(617.637 1288.63 -33.7538)
(587.693 1037.48 -18.7529)
(546.351 837.014 -4.26727)
(508.139 692.072 -7.64893)
(477.377 595.835 -7.39774)
(456.272 533.881 -8.76353)
(448.874 493.65 -12.8037)
(456.012 483.209 -5.85223)
(501.005 500.397 0.283131)
(-4229.49 -4255.59 94.2421)
(-3119.29 -4314.92 158.747)
(-2499.02 -4435.39 226.111)
(-2155.58 -4303.03 94.526)
(-1370.97 -4685.36 10.116)
(-385.901 -4679.54 -16.742)
(512.39 -4576.63 -30.6851)
(1445.1 -4133.29 -19.1252)
(2102.71 -3374 -21.9944)
(2282.69 -2473.15 -0.149623)
(2239.24 -1771.05 -3.98792)
(2175.59 -1326.72 25.3301)
(2160.25 -1066.71 23.6296)
(2295.04 -942.992 10.3955)
(2433.31 -854.433 8.4272)
(2624.11 -798.715 23.5007)
(2839.08 -757.304 31.1861)
(3091 -751.179 23.1892)
(3319.97 -729.503 15.7979)
(3685.73 -692.165 2.28117)
(-4281.01 -3135.61 168.371)
(-3297.98 -3333.51 234.667)
(-2589.47 -3072.1 378.832)
(-2412.02 -2980.99 68.6769)
(-1460.97 -4118.02 -31.3432)
(-456.127 -4518.66 -27.9124)
(489.456 -4502.69 -28.5867)
(1540.23 -3957.03 -24.4489)
(2128.12 -2705.53 -17.2051)
(1917.05 -1490.09 17.6394)
(1671.66 -883.089 6.17895)
(1620.84 -648.047 29.8045)
(1739.24 -572.175 25.4143)
(1930.52 -525.666 10.168)
(2157.21 -500.48 8.41044)
(2408.73 -495.178 29.4138)
(2689.56 -515.764 40.4715)
(2958.18 -550.482 36.673)
(3210.03 -573.386 25.1211)
(3566.62 -569.915 9.70683)
(-4417.49 -2496.28 232.397)
(-3077.69 -2614.55 361.441)
(-2509.39 -2522.41 117.789)
(-2055.35 -2488.87 -14.2556)
(-1534.86 -3872.77 -30.4297)
(-485.732 -4529.59 -17.927)
(571.54 -4544.07 -27.5497)
(1645.9 -3825.06 -10.2498)
(1967.36 -2014.51 10.3114)
(1399.56 -786.123 14.2004)
(1264.2 -482.337 12.8707)
(1431.45 -411.076 18.6097)
(1641.83 -395.271 15.741)
(1929.07 -407.604 -0.587879)
(2280.39 -403.187 -5.18975)
(2675.18 -425.534 8.09287)
(3070.68 -407.875 29.4029)
(3333.29 -408.97 28.9897)
(3598.14 -466.243 19.6012)
(3838.91 -488.951 5.53425)
(-4289.8 -2082.35 129.266)
(-2953.79 -2420.38 89.0127)
(-2427.17 -2065.24 8.07648)
(-1983.73 -2015.33 -6.39587)
(-1789.27 -3222.27 -39.004)
(-893.401 -4408.66 -6.12233)
(266.684 -4671.69 -49.3102)
(1392.52 -4143.9 -44.9375)
(1851.47 -2011.91 7.16133)
(1070.29 -396.902 8.75145)
(1242.43 -421.639 -7.25835)
(1450.81 -448.525 -13.2331)
(1698.98 -477.897 -5.93772)
(1960.39 -489.608 5.979)
(2253.26 -485.019 6.47875)
(2655.21 -441.851 -9.66873)
(3166.07 -387.682 -12.5933)
(3657.16 -337.906 44.777)
(3989.25 -244.288 16.605)
(4200.29 -231.844 -46.9544)
(-4585.13 -1328.94 11.7)
(-3951.06 -1434.17 -22.9926)
(-3663 -1521.9 -29.7152)
(-2948.36 -1750.42 -17.5542)
(941.499 -324.659 -4.72179)
(1681.79 -357.442 -17.4214)
(1804.86 -371.172 -16.9187)
(1901.63 -371.722 -16.8449)
(1994.46 -363.281 -15.9937)
(2099.44 -354.437 -12.5993)
(2230.63 -342.649 -16.1659)
(2402.08 -328.917 -8.06093)
(2679.82 -282.804 -8.32313)
(3174.92 -164.1 -26.0794)
(3788.04 -35.5692 42.6042)
(4341.31 38.337 -11.7666)
(-4545.1 -374.079 -18.7962)
(-4360.74 -451.72 -29.8357)
(-4393.89 -480.034 -26.7244)
(-4275.77 -881.298 -30.1801)
(2151.8 -224.967 -29.0288)
(2196.03 -127.067 -20.6937)
(2164.24 -121.023 -20.7494)
(2136.81 -116.434 -19.5848)
(2132.95 -113.777 -17.8536)
(2137.76 -109.296 -14.746)
(2162.18 -100.549 -16.1144)
(2213.84 -89.023 -16.0671)
(2336.64 -69.3696 -4.89373)
(2598.15 -33.6509 -15.5597)
(3055.55 74.9918 15.9012)
(3932.59 293.045 33.6566)
(-4450.98 497.018 -54.9752)
(-4375.77 472.869 -55.663)
(-4426.58 557.066 -47.9045)
(-4561.45 261.35 -68.0295)
(2305.75 26.1346 -30.5865)
(2213.09 115.266 -22.6766)
(2182.47 108.809 -18.6933)
(2156.06 101.019 -16.874)
(2137.36 96.3528 -16.7666)
(2125.74 96.2676 -15.9529)
(2129.47 98.7385 -13.4363)
(2145.45 104.834 -13.7074)
(2190.88 116.499 -9.79673)
(2286.28 135.309 -11.5706)
(2503.32 191.865 -4.63957)
(3245.19 388.912 19.5312)
(-4020.76 1405.53 -40.8476)
(-3856.34 1495.99 -53.9683)
(-3721.67 1606.09 -37.4045)
(-4030.68 1349.77 -68.2859)
(1990.55 272.269 -25.1265)
(1586.24 339.219 -4.69225)
(1662.75 340.262 -16.0106)
(1717.62 333.152 -22.7693)
(1750.17 325.224 -14.9417)
(1779.37 314.521 -2.18212)
(1801.87 305.29 -0.889724)
(1836.04 299.242 -10.6559)
(1896.6 295.511 -12.7176)
(1983.26 298.134 -9.93747)
(2110.34 320.019 -1.76905)
(2620.32 459.565 18.4996)
(-3274.81 2045.31 -51.4139)
(-2613.66 2060.63 -59.7193)
(-1918.26 1894.41 -28.9659)
(-1843.74 1753.18 -18.2324)
(-332.315 964.375 -10.1212)
(-214.543 2021.24 -28.4804)
(32.2858 2187.28 -30.5166)
(270.092 1859.59 -23.538)
(188.372 218.208 -4.17486)
(408.1 215.005 -13.0897)
(673.251 297.85 -13.1448)
(920.582 363.028 0.562716)
(1100.68 395.056 8.65301)
(1227.6 406.03 -5.96517)
(1356.96 412.365 -18.6736)
(1464.08 415.592 -18.5551)
(1558.92 417.997 -6.52887)
(1658.19 419.101 -0.609642)
(1759.58 419.282 0.486656)
(2116.06 517.765 10.6047)
(-2390.59 2213.27 -37.0175)
(-1432.4 1847.97 -33.187)
(-752.65 1350.73 -24.555)
(-383.865 1043.53 -2.83306)
(-345.304 1598.99 -19.7853)
(-117.744 2084.66 -21.6686)
(118.4 2099.51 -21.3678)
(334.036 1510.13 -8.03009)
(222.474 454.787 -4.05016)
(136.715 144.495 -9.20305)
(213.604 152.293 8.03163)
(356.907 214.884 9.4253)
(541.018 288.976 -5.26762)
(735.872 353.219 -19.2929)
(920.204 405.585 -16.0081)
(1081.67 440.393 -2.17353)
(1202.88 452.337 11.9177)
(1316.26 469.526 3.43962)
(1437.17 472.298 -5.7692)
(1732.06 552.355 -0.98175)
(-1710.43 2165.97 -31.0947)
(-849.744 1608.23 -22.4288)
(-466.49 1227.23 -7.54761)
(-408.154 1210.06 -21.0059)
(-358.597 1715.38 -19.2185)
(-112.22 2050.61 -21.3892)
(110.958 2070.15 -17.5626)
(332.882 1588.41 -14.9053)
(299.368 704.5 -13.4066)
(160.682 239.77 9.16273)
(117.225 122.521 8.17937)
(152.317 122.479 -4.08418)
(253.889 176.289 -10.9239)
(406.244 260.097 -7.49876)
(570.648 332.61 5.3416)
(724.061 389.072 9.35001)
(864.693 429.317 1.37388)
(1010.43 464.505 -8.00128)
(1147.43 487.917 -13.216)
(1413.84 560.465 -1.32658)
(-1282.9 2100.8 2.40048)
(-630.548 1564.08 7.53997)
(-402.131 1388.58 6.26843)
(-437.316 1408.57 -20.0433)
(-358.687 1806.29 -19.611)
(-107.743 2022.32 -20.4156)
(103.806 2046.5 -17.7682)
(326.576 1643.74 -18.9421)
(361.822 933.739 -1.59687)
(225.867 386.775 10.8481)
(128.147 168.072 -1.89247)
(131.231 135.012 -9.22922)
(163.438 138.782 -2.11941)
(227.234 177.384 6.17867)
(331.401 239.207 10.326)
(456.32 305.683 2.99555)
(607.63 371.701 -11.427)
(765.407 433.114 -9.37126)
(893.673 472.237 -11.0973)
(1135.62 544.152 -6.0373)
(-1043.81 2108.82 3.82569)
(-565.741 1688.93 11.1552)
(-393.77 1591.55 9.79652)
(-466.339 1643.4 -9.83707)
(-350.064 1892.63 -18.6501)
(-105.753 2018.54 -19.4482)
(97.84 2025.71 -18.6105)
(316.417 1674.73 -12.1362)
(390.648 1100.71 9.64946)
(300.031 572.562 -0.443801)
(187.062 276.242 -10.2758)
(139.907 172.645 -2.34095)
(148.489 152.247 7.00442)
(163.793 147.139 6.12192)
(210.373 170.835 5.62169)
(296.463 226.419 -0.444462)
(423.492 302.242 -6.1637)
(560.089 375.64 -2.88987)
(676.168 425.541 -2.8218)
(905.026 510.611 0.77934)
(-926.024 2243.68 -8.82083)
(-524.94 1883.71 0.227914)
(-411.848 1874.21 2.36871)
(-477.829 1887.57 5.1947)
(-341.555 1992.98 -14.0918)
(-102.039 2024.95 -17.3451)
(96.6496 2025.04 -17.3332)
(304.93 1706.19 -2.72686)
(400.244 1221.81 0.0890674)
(361.445 764.494 -13.0841)
(271.182 431.271 -7.96134)
(186.095 242.17 3.33511)
(147.425 168.326 5.27866)
(159.115 162.209 1.332)
(186.816 169.532 -0.926648)
(230.955 197.416 -1.84093)
(309.069 250.735 -2.66693)
(412.324 313.718 3.54571)
(517.808 374.7 7.75453)
(726.233 471.457 8.51208)
(-844.509 2384.15 -11.5081)
(-501.635 2118.15 -3.9749)
(-410.051 2221.83 -0.305974)
(-475.337 2159.48 12.1554)
(-329.972 2118.9 -14.3405)
(-93.3025 2052.04 -19.3635)
(98.1533 2031.79 -15.0235)
(295.777 1730.97 -2.6232)
(406.136 1345.51 -8.79491)
(410.056 942.147 -11.2049)
(342.597 595.186 4.79314)
(251.324 351.604 9.33491)
(179.075 222.365 4.5637)
(167.654 190.955 -1.52238)
(189.888 192.548 -2.49219)
(222.168 209.41 1.41157)
(262.3 230.847 4.76283)
(329.739 272.508 11.1627)
(411.747 330.623 10.5342)
(595.737 434.79 7.78332)
(-787.089 2570.78 2.69585)
(-489.701 2371.72 11.5119)
(-437.303 2623.77 11.2009)
(-436.947 2534.25 3.78849)
(-316.913 2286.22 -1.04771)
(-82.8865 2104.35 -17.3268)
(103.092 2053.07 -14.2627)
(289.389 1768.27 -12.1338)
(407.995 1447.29 -10.0598)
(442.597 1096.5 2.60761)
(400.304 753.747 13.218)
(321.482 484.643 5.94599)
(241.164 317.734 0.324979)
(203.709 240.427 -2.75598)
(208.565 222.725 0.00983613)
(221.867 221.701 8.84956)
(249.519 235.666 12.1351)
(293.254 261.611 12.46)
(353.955 305.414 11.2733)
(510.622 407.38 11.3979)
(-744.648 2782.92 9.65149)
(-511.219 2651.77 18.8117)
(-425.251 3031.18 29.8219)
(-385.876 3032.52 7.52494)
(-274.742 2550.82 -0.26574)
(-63.9803 2222.63 -6.14879)
(113.482 2104.26 -9.02753)
(286.499 1830.2 -12.6791)
(409.217 1538.35 -0.289175)
(453.86 1217.93 19.8329)
(443.04 902.963 10.5019)
(392.342 645.744 -4.98906)
(322.843 453.353 -3.32091)
(265.828 327.557 -2.54998)
(237.349 269.013 4.20028)
(236.127 250.469 12.3381)
(253.721 254.892 11.4321)
(293.636 277.942 8.49688)
(339.55 312.119 9.78718)
(456.783 389.172 11.8411)
(-738.823 3027.45 1.54347)
(-546.904 2903.28 13.186)
(-417.299 3276.38 16.9742)
(-342.133 3525.46 74.8366)
(-170.383 3021.6 -6.69771)
(-28.1042 2472.08 -14.4622)
(132.217 2205.32 -9.89296)
(290.074 1917.39 -9.60165)
(409.479 1635.63 4.7378)
(471.413 1336.48 14.0235)
(479.53 1054.24 2.15067)
(455.751 811.982 -1.57569)
(398.815 598.989 1.69448)
(335.132 440.348 5.97061)
(290.06 348.094 12.3899)
(267.087 298.908 12.0377)
(280.734 298.291 7.78558)
(306.925 306.655 4.43865)
(337.671 325.036 5.37672)
(429.512 387.274 7.8216)
(-717.963 3247.87 -5.77468)
(-571.324 3141.84 -0.41778)
(-470.099 3524.88 0.272978)
(-261.34 3858.39 31.6105)
(-40.7105 3612.23 76.5086)
(74.9639 2919.26 26.4167)
(186.567 2423.27 1.15855)
(312.176 2045.05 0.766939)
(409.486 1738.91 5.96628)
(472.513 1458.2 4.06386)
(501.795 1194.81 -2.46614)
(495.51 946.909 -1.84836)
(452.875 723.946 5.00144)
(400.796 552.662 13.1651)
(354.449 438.066 12.5945)
(319.617 368.847 10.599)
(317.688 346.168 8.97937)
(330.02 341.575 4.94684)
(347.217 346.725 7.19903)
(420.846 395.715 11.5188)
(-679.787 3592.34 -17.6233)
(-566.681 3479.57 -15.0787)
(-494.145 3745.88 -17.603)
(-251.77 4087.16 -49.1132)
(25.1489 4165.93 6.81335)
(279.447 3767.1 45.9945)
(373.687 3144.93 30.2232)
(450.407 2548.49 24.4767)
(509.405 2099.47 17.1343)
(552.634 1754.98 8.36072)
(572.403 1462.41 9.56184)
(565.279 1192.85 4.78454)
(537.101 958.235 10.6951)
(498.192 768.616 15.6773)
(460.234 629.831 11.0987)
(428.643 536.195 12.2962)
(404.678 473.362 12.911)
(397.627 439.193 8.13772)
(405.221 429.513 11.8603)
(451.305 450.495 16.6577)
(-4299.34 -4300.22 109.377)
(-3173.2 -4344.42 185.748)
(-2587.35 -4588.64 296.289)
(-2251 -4342.96 120.594)
(-1393.3 -4703.97 38.4245)
(-393.482 -4734.28 -1.88324)
(509.985 -4641.01 -28.3187)
(1443.35 -4191.02 -20.5997)
(2103.03 -3419.3 -11.5869)
(2272.71 -2497.66 14.076)
(2220.8 -1781.88 6.0782)
(2154.38 -1335.81 31.0074)
(2126.19 -1069.82 32.3192)
(2263.99 -948.508 18.8106)
(2399.82 -863.534 7.90378)
(2587.98 -808.075 17.2426)
(2796.47 -762.776 22.5293)
(3047.99 -755.615 16.9933)
(3278.5 -735.51 9.49998)
(3641.97 -705.271 -2.68073)
(-4279.17 -3137.78 188.121)
(-3453 -3455.82 226.321)
(-2717.75 -3013.07 426.446)
(-2364.49 -3007.75 84.0392)
(-1460.54 -4152.12 12.4837)
(-448.872 -4593.56 -0.252345)
(491.913 -4566.77 -23.8667)
(1540.9 -3999.64 -17.9842)
(2128.69 -2722.74 -4.16285)
(1907.09 -1490.64 32.2406)
(1652.24 -877.683 15.5243)
(1593.53 -636.834 34.1588)
(1708.14 -558.98 39.0128)
(1897.24 -522.703 23.6017)
(2128.77 -505.039 11.5311)
(2375.32 -500.606 23.2188)
(2650.09 -508.855 29.8423)
(2922.57 -544.666 26.8572)
(3175.31 -571.256 16.8903)
(3524.35 -575.089 3.65851)
(-4537.51 -2528.07 261.523)
(-2998.62 -2651.25 384.093)
(-2436.49 -2420.21 84.6524)
(-1941.1 -2489.11 21.9108)
(-1528.5 -3896.94 18.5481)
(-478.72 -4587.49 19.0219)
(569.307 -4600.25 -13.5295)
(1641.68 -3850.16 6.36777)
(1947.58 -1998.79 19.504)
(1385.13 -775.234 24.5679)
(1229.46 -469.467 19.8023)
(1406.77 -402.693 20.4987)
(1624.59 -379.47 24.8553)
(1913.41 -398.483 17.1952)
(2259.34 -398.52 8.57392)
(2653.28 -417.302 13.4138)
(3071.17 -403.874 21.7461)
(3333.41 -399.783 16.1551)
(3606.62 -463.887 6.79582)
(3841.16 -492.08 -2.66223)
(-4250.25 -2151.34 110.89)
(-2890.47 -2334.04 40.1898)
(-2390.56 -1927.02 -40.1057)
(-1911.85 -1935.08 27.8377)
(-1773.49 -3314.71 15.2681)
(-886.223 -4460.79 25.5245)
(260.077 -4721.64 -18.7871)
(1381.1 -4180.87 -14.3478)
(1795.23 -1961.13 17.3053)
(1061.11 -385.551 14.5246)
(1230.86 -409.621 6.33534)
(1437.54 -442.725 -1.21339)
(1680.79 -472.209 1.35311)
(1949.4 -485.066 13.136)
(2249.8 -480.982 20.294)
(2664.91 -439.295 9.19623)
(3201.02 -383.051 -2.25229)
(3732.21 -341.085 41.2202)
(4119.04 -246.614 27.3465)
(4285.14 -225.598 -49.5085)
(-4569.7 -1354.47 5.44598)
(-3963.62 -1421.78 -36.9295)
(-3683.68 -1507.41 -21.4397)
(-2974.86 -1732.63 -15.4723)
(876.551 -310.438 -1.55886)
(1677.43 -352.297 -10.4092)
(1799.34 -366.921 -9.3666)
(1891.35 -366.469 -10.8321)
(1980.22 -357.008 -13.2873)
(2084.94 -349.082 -10.859)
(2223.45 -340.611 -13.1724)
(2407.34 -333.626 -3.18238)
(2673.21 -301.163 2.43537)
(3159.72 -186.601 -19.0689)
(3835.23 -50.1474 47.8274)
(4478.65 22.3997 -3.35102)
(-4583.8 -394.256 -20.7103)
(-4428.27 -452.761 -28.818)
(-4441.45 -478.337 -11.6128)
(-4311.8 -872.544 7.19878)
(2126.68 -221.4 -13.0121)
(2214.64 -127.121 -11.8751)
(2179.74 -121.285 -10.362)
(2147.49 -115.583 -10.2092)
(2145.44 -112.714 -9.50276)
(2152.63 -109.094 -7.24017)
(2178.16 -102.727 -8.11244)
(2228.92 -93.0593 -9.76343)
(2341.94 -76.8683 2.12799)
(2579.61 -50.149 -6.7672)
(3016.71 40.9226 19.3349)
(3970.21 266.992 40.7369)
(-4507.67 479.961 -43.9532)
(-4439.95 469.2 -38.7008)
(-4482.12 554.559 -21.6927)
(-4612.76 262.546 -31.1998)
(2292.71 26.3724 -15.8946)
(2237.54 111.539 -12.7078)
(2202.56 105.034 -8.86069)
(2174.32 97.5496 -6.92268)
(2155.54 92.2538 -9.7796)
(2155.57 90.9698 -10.7185)
(2161.96 92.5032 -8.5187)
(2179.11 97.377 -8.61343)
(2222.8 107.65 -5.66898)
(2304 121.969 -7.14061)
(2489.66 165.535 -2.03346)
(3211.38 342.09 19.9855)
(-4069.06 1387.7 -30.6434)
(-3904.03 1483.88 -28.0968)
(-3767.11 1587.29 -8.67364)
(-4073.5 1340.72 -39.8073)
(1973.17 267.722 -10.0991)
(1600.71 332.487 2.05127)
(1671.26 333.569 -3.76725)
(1727.9 326.297 -14.5806)
(1762.27 316.768 -12.0142)
(1792.09 307.571 0.222001)
(1823.14 297.343 6.95409)
(1858.64 293.076 -0.82696)
(1921.13 289.184 -8.29313)
(2006.82 288.85 -8.37261)
(2117.95 302.145 -0.197183)
(2582.48 417.522 18.2629)
(-3319.13 2028.95 -37.4755)
(-2664.99 2054.21 -33.794)
(-1980.32 1891.86 -10.4156)
(-1928.58 1742.55 -28.8929)
(-297.94 848.52 -7.23565)
(-206.413 2024 -11.7084)
(31.5151 2186.7 -11.5904)
(260.831 1865.8 -9.85502)
(196.414 189.414 -1.38414)
(408.206 205.262 -5.41301)
(673.289 286.932 -11.5198)
(908.168 347.843 2.53274)
(1095.78 381.432 15.957)
(1226.93 396.119 7.68833)
(1354.1 402.279 -10.7816)
(1471.11 406.335 -16.4494)
(1573.03 409.421 -2.46652)
(1679.38 411.344 6.96833)
(1775.71 408.046 6.66786)
(2095.39 485.576 13.2284)
(-2417.21 2189.73 -18.3199)
(-1452.24 1833.46 -1.48771)
(-766.412 1338.43 -6.09325)
(-376.182 995.431 1.96157)
(-331.363 1588.04 -9.258)
(-115.05 2111.89 -11.0841)
(114.845 2121.95 -8.88766)
(324.717 1512.56 1.7858)
(208.999 418.295 -2.90439)
(126.923 129.682 -9.40398)
(200.69 137.412 7.40697)
(341.593 198.942 15.2603)
(520.3 271.124 4.66323)
(716.393 334.794 -15.1691)
(899.767 386.572 -15.4995)
(1067.17 424.33 0.468452)
(1207.61 441.707 22.5303)
(1327.77 460.699 17.4874)
(1448.59 466.566 -0.76898)
(1725.88 527.733 -0.5907)
(-1714.25 2126.69 -25.62)
(-842.895 1560.9 -11.9717)
(-454.744 1158.51 1.73316)
(-391.547 1155.17 -4.90433)
(-346.976 1708.99 -9.22651)
(-110.117 2080.33 -10.9031)
(108.687 2093.2 -7.18512)
(325.357 1588.75 -4.33002)
(282.336 668.452 -12.1736)
(145.794 213.814 8.09155)
(108.442 110.308 10.6337)
(139.823 110.207 0.606734)
(230.852 157.664 -9.8541)
(375.354 234.464 -10.1589)
(542.207 308.266 7.55881)
(709.633 371.028 20.6496)
(860.456 417.758 13.0428)
(1012.01 453.597 -2.06317)
(1150.43 480.859 -8.74129)
(1411.43 541.95 2.31079)
(-1284.7 2058.77 -4.97596)
(-618.917 1509.37 3.47902)
(-397.194 1326.06 6.99552)
(-427.133 1348.89 -7.57484)
(-347.703 1798.2 -12.1471)
(-105.153 2050.89 -11.099)
(102.612 2069.2 -8.13398)
(319.639 1649.52 -13.074)
(340.646 896.398 1.34409)
(207.783 358.376 15.1682)
(117.454 150.918 0.753506)
(114.335 116.178 -7.83612)
(140.929 118.936 -4.21785)
(207.077 157.35 6.88413)
(313.14 221.12 14.925)
(436.231 286.963 9.31856)
(584.26 350.663 -10.4939)
(747.647 414.997 -10.7517)
(888.855 461.803 -2.14704)
(1131.92 529.267 0.779726)
(-1041.04 2054.68 2.14782)
(-550.648 1630.34 12.7711)
(-378.181 1537.03 11.9818)
(-457.62 1575.08 -4.42979)
(-339.565 1881.47 -14.3233)
(-102.97 2049.5 -11.6586)
(97.3763 2052.57 -11.6567)
(310.399 1686.14 -9.21612)
(373.449 1079.84 13.6017)
(280.377 540.922 3.38327)
(169.274 249.921 -9.5422)
(123.08 149.571 -3.61653)
(128.161 130.39 8.09921)
(143.98 128.013 11.0331)
(187.104 151.832 6.28138)
(268.882 203.548 -3.42873)
(391.53 277.149 -8.60351)
(538.907 356.457 2.62765)
(667 412.826 8.8581)
(893.279 494.699 5.82326)
(-927.471 2194.3 -2.60883)
(-517.88 1822.67 3.89599)
(-402.518 1821.66 1.9919)
(-475.28 1829.83 4.20129)
(-330.655 1977.57 -11.8636)
(-99.9038 2056.21 -11.3097)
(95.0205 2056.16 -11.2103)
(301.401 1719.72 -0.409747)
(387.716 1209.82 4.08934)
(342.691 736.77 -14.9336)
(247.799 398.651 -9.13981)
(167.9 221.853 6.69451)
(131.164 149.457 10.8378)
(134.143 135.371 4.53283)
(155.469 139.68 -2.89077)
(193.407 162.95 -4.09033)
(273.039 219.703 0.431883)
(387.486 291.53 11.4733)
(494.606 354.415 11.7518)
(700.397 449.275 7.42765)
(-852.422 2337.75 -5.76417)
(-502.235 2066.02 -4.01991)
(-406.871 2170.46 -3.13136)
(-479.31 2107.61 11.453)
(-322.768 2104.2 -13.3908)
(-93.8703 2080.65 -13.3914)
(95.5304 2066.55 -9.32839)
(291.971 1752.81 2.39274)
(395.783 1336.75 -10.849)
(391.668 915.811 -12.1402)
(320.054 566.458 8.89711)
(234.29 332.59 15.0845)
(161.805 198.584 5.95361)
(140.488 158.973 -2.61606)
(157.974 159.946 -3.47885)
(188.711 176.683 2.87153)
(231.724 203.185 10.6805)
(297.898 246.28 13.4377)
(377.883 302.102 9.25098)
(562.865 405.679 5.15201)
(-801.343 2529.97 8.2196)
(-499.186 2326.45 13.2411)
(-436.054 2581.78 6.32778)
(-449.672 2487.27 -0.376736)
(-318.227 2276.22 -3.12493)
(-84.936 2127.3 -14.8994)
(99.1272 2088.38 -9.79456)
(287.1 1789.22 -6.39467)
(400.889 1449.85 -13.8831)
(426.384 1078.09 3.82457)
(381.812 733.723 21.1365)
(301.542 459.774 9.62284)
(217.976 287.627 -2.83652)
(173.282 205.314 -3.80756)
(177.877 191.316 2.24844)
(194.365 193.891 12.706)
(222.123 209.614 14.9933)
(260.648 230.946 10.1469)
(318.592 271.975 7.38699)
(477.387 376.204 9.08162)
(-758.452 2740.76 17.6139)
(-513.554 2617.01 28.755)
(-436.532 3037.23 27.804)
(-395.501 3012.02 -10.1923)
(-293.247 2522.67 -1.95117)
(-70.4318 2226.95 -5.23467)
(107.541 2134.98 -7.68148)
(283.285 1849.21 -11.8358)
(402.853 1547.13 -0.863405)
(442.522 1215.09 23.4424)
(429.115 888.99 13.4833)
(367.747 615.235 -9.15784)
(296.387 419.298 -6.77774)
(237.463 293.847 0.36387)
(211.365 239.149 9.54505)
(211.518 222.346 14.8382)
(224.457 224.067 9.97197)