/*--------------------------------*- C++ -*----------------------------------*\
  =========                 |
  \\      /  F ield         | OpenFOAM: The Open Source CFD Toolbox
   \\    /   O peration     | Website:  https://openfoam.org
    \\  /    A nd           | Version:  9
     \\/     M anipulation  |
\*---------------------------------------------------------------------------*/
FoamFile
{
    format      ascii;
    class       volScalarField;
    location    "0.0065";
    object      T;
}
// * * * * * * * * * * * * * * * * * * * * * * * * * * * * * * * * * * * * * //

dimensions      [0 0 0 1 0 0 0];

internalField   nonuniform List<scalar> 
9720
(
1160.35
1154.02
1152.06
1113.33
1086.04
1079.49
1075.68
1058.6
1035.16
1014.91
1000.45
992.924
993.791
997.97
1005.01
1012.95
1021.31
1029.09
1035.31
1042.83
1153.78
1150.55
1130.95
1065.55
1058.1
1072.67
1073.41
1052.42
1012.75
975.614
955.864
957.358
962.997
973.271
986.667
999.757
1010.79
1020.5
1028.53
1036.81
1151.36
1134.77
1050.49
1018.49
1049.87
1074.63
1076.18
1051.79
997.241
953.149
949.79
956.819
966.646
977.561
991.254
1006.89
1022
1032.47
1041.93
1045.99
1113.2
1065.26
1017.37
994.124
1026.36
1072.99
1082.24
1066.83
988.575
907.173
909.328
917.701
929.165
942.256
957.751
978.103
1002.91
1028.05
1048.98
1052.66
1084.44
1054.49
1045.88
1025.2
896.946
898.107
903.268
907.76
913.296
920.61
929.672
941.337
958.113
985.957
1020.69
1048.29
1076.11
1068.52
1071.15
1069.77
919.019
920.15
918.629
917.642
918.006
919.062
921.035
924.556
932.113
947.352
972.151
1022.02
1071.96
1069.01
1072.27
1078.82
925.813
919.041
917.524
916.27
915.201
914.635
914.927
916.198
919.302
925.746
938.166
985.845
1054.74
1047.77
1046.93
1062.77
907.713
881.373
884.308
886.302
887.736
889.405
891.313
893.928
897.981
904.346
912.907
950.328
1031.25
1007.73
991.674
979.718
884.207
914.481
922.284
902.663
832.687
829.41
837.891
846.687
853.14
857.562
862.919
869.053
875.26
882.363
889.944
918.826
1011.72
970.72
946.417
901.714
893.805
916.171
914.956
875.492
826.557
828.94
823.672
825.419
829.996
835.952
843.013
850.745
857.43
863.097
869.149
892.268
996.715
952.677
947.83
904.98
899.019
914.398
913.294
879.849
834.777
826.227
806.822
805.975
813.711
825.072
832.505
836.392
839.545
844.034
849.8
872.178
989.272
954.298
955.891
914.378
903.755
913.518
912.048
882.745
843.613
827.26
809.04
799.698
804.776
814.476
820.167
821.743
825.579
832.872
839.038
858.082
990.54
960.175
964.419
925.994
909.718
914.064
911.209
884.801
850.837
830.131
816.987
806.972
800.619
801.543
806.772
816.339
826.137
834.793
836.719
847.403
995.541
970.623
973.748
938.825
917.467
915.441
911.307
886.922
856.149
835.344
825.866
817.906
804.003
802.131
807.314
818.928
831.409
836.565
836.707
844.365
1003.32
984.489
986.771
953.746
926.792
917.816
911.954
889.202
862.229
842.505
831.838
822.08
810.142
808.936
813.952
825.156
832.978
836.3
837.897
846.161
1011.67
998.516
1002.92
973.034
938.547
921.722
913.706
892.188
868.954
850.684
836.335
823.411
818.844
820.927
826.259
830.876
832.686
836.149
840.309
850.678
1020.38
1010.25
1019.53
997.551
954.939
929.522
917.407
896.679
875.466
857.899
840.946
827.28
827.516
832.189
833.84
833.274
833.708
837.645
843.831
855.442
1028.41
1020.12
1031.07
1023.55
981.654
944.666
924.513
903.487
882.803
864.187
846.987
835.29
835.462
836.447
836.83
837.011
838.258
843.36
849.7
859.116
1034.62
1028.19
1040.68
1045.18
1015.85
969.45
937.427
912.382
890.698
870.781
853.546
842.444
837.995
837.062
838.472
841.149
844.737
850.306
854.136
860.981
1041.62
1036
1044.76
1050.21
1044
1018.32
984.382
949.933
920.17
894.853
876.136
862.067
850.451
846.358
847.908
852.061
856.959
860.694
862.281
866.911
1157.78
1150.97
1148.21
1106.68
1079.47
1075.8
1072.68
1055.5
1031.73
1011.08
996.771
988.888
989.515
993.47
1000.66
1008.77
1017.2
1025.11
1031.65
1039.68
1151.06
1149.12
1112.57
1055.01
1054.4
1070.3
1071.14
1049.83
1009.88
972.194
952.403
953.603
958.327
968.087
981.626
995.212
1006.47
1016.19
1024.64
1033.72
1149.38
1119.37
1035.84
1010.6
1049.51
1073.14
1074.36
1049.46
994.757
949.547
945.318
952.571
962.587
973.044
986.101
1001.48
1017.09
1027.85
1037.84
1043.4
1107.8
1055.1
1009.64
987.011
1030.21
1070.91
1079.46
1064.26
987.296
903.551
904.219
910.847
921.591
934.388
949.681
969.814
995.14
1020.79
1042.74
1049.8
1078.44
1049.73
1042.47
1018.05
898.154
893.165
897.322
900.749
905.423
912.141
920.785
932.154
948.334
975.304
1010.23
1042.29
1072.38
1065.91
1069.19
1067.15
913.027
914.911
912.981
910.973
910.948
911.421
912.774
915.71
922.405
936.416
959.792
1012.42
1068.82
1066.82
1070.61
1076.26
919.938
913.742
911.637
909.613
908.161
906.958
906.946
907.666
910.147
915.741
926.688
973.743
1051.52
1045.73
1045.6
1060.51
901.837
875.242
877.405
879.32
880.531
881.5
882.63
884.542
888.148
894.112
901.892
937.178
1027.75
1005.3
989.938
980.191
886.234
908.53
916.312
896.301
845.361
831.493
835.26
840.601
844.718
847.671
852.424
858.656
864.792
871.458
878.563
905.618
1007.23
967.896
945.327
899.661
888.926
910.919
909.539
869.629
829.039
833.66
825.442
821.039
822.694
827.284
833.65
840.65
846.795
852.086
858.036
879.872
992.676
948.003
941.399
900.671
893.557
908.991
907.507
873.114
833.09
827.835
808.65
804.349
810.722
820.173
825.236
827.464
829.982
834.426
839.906
860.404
985.27
949.42
948.676
907.315
897.128
906.999
905.627
875.865
838.225
823.211
807.885
800.131
805.181
812.943
815.533
815.537
818.504
824.777
829.62
846.609
986.272
954.8
958.278
917.438
901.775
907.082
904.183
877.502
842.875
824.187
814.434
807.246
800.177
799.395
802.772
810.871
819.347
826.138
828.076
838.241
990.848
965.056
968.321
929.482
908.386
907.782
903.579
878.933
846.784
828.144
821.646
815.057
801.423
798.321
802.727
812.863
822.878
828.889
829.689
837.563
998.518
979.215
981.435
944.032
916.854
909.401
903.849
880.561
852.318
834.181
825.394
817.431
806.088
804.373
808.19
817.304
824.871
830.209
831.776
839.573
1006.79
993.612
997.668
963.23
928.042
912.532
905.016
882.984
859.003
841.228
828.344
817.927
814.031
815.396
818.837
823.068
825.874
829.699
834.171
844.581
1015.33
1005.17
1014.28
988.685
943.701
919.182
907.941
886.907
865.346
847.945
832.224
821.365
821.935
825.154
826.86
826.86
827.238
831.326
837.643
849.405
1023.13
1014.54
1025.42
1015.75
970.054
932.918
913.945
893.035
872.102
854.003
838.227
828.645
828.257
830.026
831.779
831.326
832.321
836.781
842.849
853.385
1029.48
1022.69
1035.06
1038.02
1005.17
956.616
925.302
900.981
879.399
860.464
844.531
834.496
830.389
831.216
833.085
835.661
838.941
843.522
847.821
855.931
1036.95
1031.22
1040.34
1046.14
1037.55
1008.57
972.094
936.687
907.099
883.053
865.234
851.824
841.885
839.764
841.297
845.753
850.508
854.464
856.841
862.396
1158.71
1152.46
1150.44
1103.91
1075.51
1074.67
1072.08
1054.78
1031.12
1010.32
996.079
988.813
989.551
993.417
1000.42
1008.32
1016.33
1024.05
1030.67
1038.87
1152.02
1153.72
1094.82
1044.84
1053.02
1070.44
1070.82
1048.99
1009.56
972.667
953.198
954.778
959.788
969.246
982.049
995.1
1005.89
1015.3
1023.69
1032.92
1152.16
1101.33
1023.26
1004.84
1049.88
1073.21
1073.84
1048.27
994.128
951.214
946.864
954.211
965.697
976.474
988.288
1002.24
1017.45
1027.67
1037.94
1044.01
1104.52
1043.98
1002.02
980.051
1029.75
1070.83
1078.94
1063.5
984.536
904.102
903.973
908.973
919.166
932.052
947.721
968.186
994.274
1020.33
1043.7
1051.65
1073.39
1046.79
1042.26
1015.79
890.919
889.923
893.904
896.688
900.778
907.266
916.239
928.339
944.25
970.375
1005.71
1042.76
1070.71
1065.5
1068.83
1066.87
909.809
912.29
910.053
907.752
907.756
908.408
909.792
912.486
918.387
930.952
952.233
1008.47
1068.11
1066.88
1070.39
1075.65
916.745
910.917
908.431
906.193
904.788
904.163
904.243
904.88
907.027
911.586
920.621
966.075
1050.81
1045.64
1045.73
1060.08
897.794
872.082
873.392
875.106
876.597
877.73
879.163
881.138
884.616
890.041
896.682
928.4
1026.88
1005.48
990.584
981.282
888.222
905.38
912.616
892.764
854.431
833.094
834.733
837.765
840.866
843.414
847.532
853.775
860.326
867.104
873.682
897.599
1005.62
968.572
948.557
897.927
886.454
908.846
907.045
866.981
831.815
836.738
829.096
820.804
820.931
824.616
830.226
836.402
842.977
848.655
854.373
873.765
990.753
946.392
938.771
897.961
890.569
906.71
904.71
869.296
832.131
829.632
815.647
808.32
813.189
819.722
824.475
826.909
829.476
834.147
839.119
856.267
984.101
947.98
945.469
902.653
893.128
904.462
902.685
871.723
834.419
822.255
812.33
806.542
808.8
815.714
819.19
819.132
821.486
826.821
830.336
843.015
985.043
953.881
957.604
912.221
896.778
904.469
901.12
873.619
837.844
822.473
817.188
811.689
808.292
806.326
808.82
815.521
822.249
829.028
830.543
837.342
989.561
964.538
969.411
924.381
902.638
905.167
901.13
875.247
841.227
825.669
822.87
819.833
810.082
803.733
807.747
816.134
825.733
833.275
832.782
838.154
997.296
978.583
982.558
939.376
911.001
906.639
901.439
877.111
846.294
830.623
825.904
822.008
813.248
809.527
812.143
820.477
829.27
834.813
835.269
841.318
1005.81
993.112
998.236
958.812
922.541
909.294
902.412
879.49
853.24
836.491
827.672
821.504
819.179
819.626
822.789
827.996
830.898
834.446
838.522
848.191
1014.29
1004.81
1015.12
985.291
937.696
914.741
904.788
883.111
860.097
843.105
830.407
823.725
824.931
828.953
831.648
832.017
832.257
836.27
843.212
855.481
1022.27
1014.3
1026.14
1014.3
963.184
926.664
909.454
888.368
866.771
849.127
835.742
829.212
831.048
834.481
836.276
836.223
837.498
842.549
849.607
860.464
1028.92
1022.67
1036.01
1039.3
999.914
948.158
918.593
894.889
873.362
855.216
841.311
833.146
832.396
833.985
836.288
839.992
844.538
850.405
855.17
863.054
1036.63
1031.43
1041.93
1048.62
1038.46
1004.55
964.041
927.092
898.109
875.643
859.498
846.815
839.83
840.062
842.493
848.873
856.279
861.294
863.644
869.525
1160.96
1154.57
1150.63
1100.25
1072.34
1074.2
1072.27
1054.61
1030.55
1009.29
994.986
988.836
989.883
994.171
1001.52
1009.74
1017.73
1025.34
1031.84
1039.73
1153.71
1155.34
1082.56
1037.61
1052.17
1070.64
1071.26
1049.09
1008.83
971.959
952.33
954.628
960.692
970.96
983.886
997.065
1007.79
1017.02
1025.19
1033.94
1152.44
1085.87
1016.23
1002.55
1049.96
1073.36
1074.08
1048.47
993.004
952.1
946.813
954.268
967.512
980.168
992.267
1005.44
1020.33
1030.27
1040.05
1045.81
1099.98
1033.99
998.464
978.314
1024.24
1071.23
1079.15
1063.5
981.138
905.438
903.054
907.292
916.753
929.244
944.837
965.335
992.362
1020.31
1046.34
1054.2
1069.18
1046.33
1044.4
1020.74
880.86
887.674
892.045
894.476
897.721
903.073
911.02
922.485
937.837
963.131
999.758
1042.71
1069.7
1065.99
1069.31
1067.2
907.849
910.028
907.988
905.774
905.386
905.789
906.656
908.407
912.859
923.662
942.772
1002.45
1067.85
1067.13
1070.43
1075.68
914.654
908.427
906.18
904.022
902.421
901.706
901.324
901.57
902.891
906.111
913.012
955.673
1050.37
1045.41
1045.38
1059.89
895.487
869.867
870.508
871.709
873.095
874.319
875.707
877.452
880.203
884.379
889.682
917.361
1026.52
1005.19
989.755
979.012
885.11
906.297
912.457
892.157
863.175
837.233
835.826
836.951
838.923
841.164
844.329
849.573
855.716
862.008
867.783
888.029
1005.37
969.385
950.627
901.36
887.129
909.344
906.926
866.338
833.302
844.032
833.761
821.003
820.588
823.064
827.84
833.131
839.28
845.414
850.304
866.671
989.998
946.737
940.052
899.675
891.435
907.045
904.674
868.39
832.301
834.072
823.942
811.181
814.359
818.573
822.676
825.64
829.147
834.159
838.427
852.429
983.796
948.397
946.338
903.479
893.622
904.64
902.527
870.459
833.802
823.861
816.357
812.387
812.782
815.515
819.995
822.109
824.319
828.06
830.203
840.166
984.88
954.386
959.693
912.469
896.579
904.243
901.148
872.723
836.501
822.501
819.064
815.95
811.198
810.386
814.788
820.367
824.948
828.928
829.769
836.008
989.285
965.009
972.902
924.29
901.587
904.749
900.728
874.58
839.507
823.779
822.73
821.586
814.835
809.478
811.883
818.354
825.955
832.059
831.851
837.173
996.894
978.541
985.627
938.99
909.113
905.872
900.929
876.464
843.517
827.45
825.244
824.412
820.28
813.976
814.457
819.628
827.24
833.761
835.109
841.097
1005.69
993.065
999.627
958.215
920.122
907.861
901.53
878.534
849.431
832.317
826.217
823.663
823.597
821.998
822.331
825.273
829.417
835.344
839.773
848.844
1014.05
1004.85
1016.02
984.465
934.809
912.341
903.197
881.301
856.005
838.458
828.35
824.39
825.689
828.985
830.759
831.352
832.977
838.977
845.811
857.687
1021.92
1014.47
1027.47
1013.51
958.407
922.736
906.635
885.312
862.572
844.913
832.874
827.703
829.085
833.475
836.172
837.896
840.572
846.296
853.389
864.179
1028.76
1022.99
1037.69
1041.79
994.648
941.231
913.574
890.587
868.63
850.381
837.762
830.28
830.583
832.973
836.794
842.059
848.181
854.694
859.377
868.041
1036.82
1032.01
1044.37
1052.18
1039.57
1000.06
955.488
918.271
889.865
868.435
854.169
841.875
837.77
838.838
842.879
850.971
860.512
866.284
869.328
877.039
1163.28
1156.6
1149.95
1097.45
1070.87
1074.3
1072.68
1054.76
1030.19
1008.45
993.686
988.576
989.927
994.702
1002.44
1011.36
1019.75
1027.37
1033.73
1041.1
1155.83
1156.46
1075.28
1033.14
1053.28
1071.63
1072.15
1049.47
1008.1
970.98
950.107
952.768
959.942
971.459
985.031
999.047
1010.36
1019.6
1027.56
1035.62
1152.39
1078.19
1013.27
1001.21
1052.32
1074.23
1074.64
1048.8
991.554
951.712
943.999
951.52
966.016
980.199
993.411
1007.18
1022.68
1032.97
1042.81
1048.02
1097.55
1030.23
996.716
976.234
1025.87
1071.91
1079.67
1064.17
980.541
904.503
901.544
905.281
914.367
926.566
941.954
962.372
990.341
1019.85
1048.88
1056.81
1067.42
1045.8
1043.94
1018.78
888.338
885.389
890.25
892.771
895.892
900.871
908.164
918.843
933.685
958.482
995.899
1043.12
1069.26
1065.99
1069.33
1067.41
905.005
907.297
905.512
903.548
903.235
903.606
904.362
905.709
909.388
919.317
937.11
998.414
1067.83
1067.35
1070.44
1075.56
911.166
905.472
903.494
901.563
900.201
899.554
899.195
899.367
900.375
903.024
908.864
949.168
1050.24
1045.26
1045.07
1059.79
892.235
866.115
867.318
868.725
870.305
871.748
873.144
874.898
877.407
881.037
885.782
910.846
1026.31
1004.62
988.577
977.337
889.102
906.43
912.047
890.878
864.161
837.384
833.535
834.255
836.151
838.465
841.93
846.826
852.701
858.708
864.146
882.415
1005.11
968.821
950.042
903.149
886.849
909.036
906.407
865.668
834.44
846.263
837.202
822.884
819.809
821.18
824.66
829.902
836.129
842.506
847.285
862.553
989.931
947.612
942.301
901.289
891.571
906.889
904.341
867.459
833.293
836.803
830.937
812.943
811.724
814.635
820.893
824.986
828.076
832.524
836.511
849.731
984.148
949.625
948.76
904.838
893.911
904.572
902.358
869.311
834.06
827.427
819.088
810.932
811.488
815.16
821.466
823.818
824.45
826.295
828.223
837.887
985.339
955.74
962.479
913.566
896.827
904.037
900.973
871.636
836.272
822.919
818.66
814.427
813.365
815.545
820.252
822.817
823.72
826.858
828.406
835.286
989.623
966.365
976.128
925.22
901.693
904.537
900.349
873.83
839.112
823.226
820.679
821.408
819.763
814.517
814.028
817.292
823.449
830.918
830.934
836.388
996.97
979.592
988.598
939.744
908.95
905.636
900.539
875.97
842.812
825.243
824.324
825.594
824.603
816.528
813.617
816.74
824.375
833.209
834.529
840.4
1005.55
993.364
1001.48
958.944
919.491
907.344
901.114
878.171
847.999
829.821
825.769
824.886
825.032
821.211
818.664
821.307
827.599
835.23
839.487
848.633
1013.85
1004.9
1016.85
985.257
933.832
911.317
902.565
880.74
854.386
836.311
827.906
824.498
824.729
826.62
828.111
829.831
833.046
839.058
846.327
858.638
1021.64
1014.56
1028.12
1013.87
956.756
921.091
905.546
884.309
861.177
843.444
832.236
826.133
827.089
832.826
836.113
837.626
840.243
846.908
855.2
866.381
1028.44
1023.17
1038.43
1043.09
991.943
937.91
911.404
888.949
867.039
848.943
836.759
828.62
829.163
832.564
836.862
841.913
848.399
856.566
861.565
870.73
1036.31
1031.93
1045.19
1053.58
1039.21
996.539
950.161
913.44
885.826
865.469
852.08
840.083
837.216
838.4
842.756
851.606
862.577
869.28
872.459
880.763
1163.26
1156.39
1149.34
1096.92
1070.8
1074.41
1072.65
1054.72
1030.1
1008.39
993.184
988.248
989.767
994.803
1002.77
1011.81
1020.24
1027.91
1034.23
1041.57
1156.1
1156.43
1074.24
1032.39
1054.17
1072.07
1072.28
1049.38
1007.94
971.253
949.595
952.088
959.444
971.234
984.984
999.278
1010.78
1020.14
1028.06
1036.03
1152.95
1077.63
1012.4
1000.59
1053.79
1074.69
1074.66
1048.67
991.339
952.342
943.712
950.823
965.538
980.073
993.297
1007.18
1023.09
1033.58
1043.57
1048.44
1097.49
1029.71
996.028
974.613
1030.22
1072.33
1079.73
1064.21
980.137
904.068
901.337
905.089
914.239
926.63
942.143
962.47
990.362
1020.67
1050.16
1057.28
1067.15
1045.17
1043.15
1014.36
888.981
884.668
889.463
892.107
895.459
900.714
908.179
918.888
933.696
958.486
996.397
1043.64
1069.1
1065.73
1069.13
1067.26
903.432
906.639
904.735
902.709
902.629
903.073
903.98
905.448
909.239
919.167
937
998.644
1067.73
1067.2
1070.42
1075.5
909.053
904.462
902.442
900.583
899.343
898.784
898.746
899.008
900.121
902.772
908.543
948.786
1050.17
1045.23
1045.24
1059.8
889.604
864.715
865.936
867.534
869.334
870.898
872.44
874.262
876.871
880.516
885.195
910.116
1026.3
1004.76
988.982
978.54
895.938
906.197
911.639
890.535
877.301
836.925
831.696
832.533
834.684
837.321
840.779
845.694
851.743
857.917
863.414
881.626
1005.07
968.567
949.751
902.669
886.555
908.87
906.228
865.066
836.403
845.823
836.652
822.591
818.535
819.626
823.106
828.478
834.759
841.351
846.185
861.416
990.043
948.168
943.658
901.107
891.188
906.822
904.244
867.122
833.428
836.958
831.151
812.648
811.466
814.347
819.661
823.238
826.252
830.815
834.846
848.318
984.354
950.251
950.149
904.864
893.603
904.595
902.377
869.344
834.099
827.259
819.274
810.882
811.782
814.862
819.735
821.712
822.261
824.37
826.419
836.2
985.574
956.375
963.538
913.76
896.682
904.246
901.104
871.7
836.074
822.947
818.93
814.876
812.93
814.412
818.044
820.544
822.007
825.075
826.586
833.546
989.889
966.972
976.964
925.449
901.672
904.738
900.569
873.534
838.745
823.519
821.065
820.838
818.131
811.873
812.447
816.437
822.293
829.058
829.27
834.977
997.22
980.123
989.322
939.929
909.071
905.809
900.741
875.359
842.65
826.137
824.287
825.295
823.559
814.889
813.096
816.255
823.265
831.835
833.415
839.502
1005.81
993.857
1002.1
959.424
919.669
907.503
901.306
877.665
848.283
830.484
826.117
825.037
824.752
821.261
818.361
820.615
826.816
834.796
839.228
848.171
1013.92
1005.1
1017.31
986.039
933.909
911.409
902.771
880.649
854.718
836.511
828.44
825.068
825.581
827.1
827.461
829.122
832.665
839.688
846.809
858.681
1021.48
1014.55
1028.16
1014.31
957.042
921.229
905.791
884.527
860.99
843.414
832.795
827.12
827.961
832.701
835.953
837.799
840.974
847.85
855.771
866.819
1028.05
1022.92
1038.15
1042.81
991.892
938.012
911.632
889.165
866.687
848.843
837.361
829.512
829.829
833.026
837.326
842.362
848.713
856.738
862.191
871.402
1035.69
1031.39
1044.69
1053.21
1038.65
995.686
949.481
912.845
885.36
865.3
852.148
840.279
837.851
839.286
843.568
851.959
862.547
869.257
872.779
881.439
1160.99
1154.13
1149.35
1099.04
1072.06
1074.39
1072.33
1054.47
1030.05
1008.62
993.925
988.29
989.647
994.337
1001.97
1010.45
1018.6
1026.3
1032.83
1040.58
1154.27
1155.47
1080.37
1035.57
1054.09
1071.62
1071.72
1048.99
1007.93
970.986
950.398
952.966
959.822
970.738
984.075
997.664
1008.59
1017.96
1026.18
1034.77
1153.38
1085.56
1015.02
1001.48
1053.16
1074.32
1074.23
1048.32
991.607
951.242
944.921
952.551
966.494
979.75
992.198
1005.85
1021.09
1031.17
1041.34
1046.83
1100.23
1033.48
997.178
976.209
1030.83
1072.64
1079.63
1064.11
979.773
903.894
902.194
906.49
916.207
929.179
945.131
965.665
992.931
1021.47
1048.21
1055.28
1068.79
1044.88
1042.29
1014.72
889.887
886.296
890.847
893.442
896.898
902.52
910.498
921.782
937.127
962.625
1000.26
1043.97
1069.13
1065.21
1068.88
1067.41
904.511
908.585
906.424
904.129
903.755
904.17
905.044
906.782
911.211
922.005
941.385
1002.87
1067.36
1066.6
1070.35
1075.78
910.552
906.674
904.344
902.17
900.664
899.942
899.721
900.006
901.315
904.377
911.085
954.423
1049.86
1044.79
1044.92
1059.99
890.735
867.054
868.057
869.388
870.98
872.523
874.202
875.969
878.439
882.29
887.437
915.314
1025.84
1004.17
988.62
977.135
889.192
905.91
911.867
891.126
868.113
834.973
832.63
834.031
836.512
838.771
841.741
846.871
853.089
859.503
865.41
885.806
1004.83
967.612
948.37
902.182
886.69
909.043
906.904
866.582
835.408
842.39
833.948
822.06
819.528
821.057
825.04
830.259
836.649
842.856
847.645
863.938
990.241
947.681
942.624
901.3
891.248
906.833
904.597
867.973
832.757
834.336
827.038
811.339
813.539
817.484
821.508
824.09
826.711
830.794
834.901
849.197
984.175
949.749
949.635
905.315
893.624
904.522
902.482
869.698
834.126
824.216
816.038
811.065
811.902
815.565
820.2
820.489
821.136
824.681
826.905
836.842
985.403
955.834
962.615
914.174
896.726
904.078
901.054
871.79
836.782
822.075
818.18
814.304
810.99
811.339
814.206
817.729
821.924
826.01
827.241
833.608
989.908
966.368
975.249
925.766
901.849
904.526
900.319
873.596
839.417
823.525
821.752
820.207
814.385
807.531
810.176
817.312
824.438
830.239
829.97
834.966
997.463
979.719
987.579
940.359
909.386
905.472
900.416
875.463
842.884
827.318
825.042
824.382
819.195
812.048
813.304
819.315
826.96
833.077
833.758
839.278
1006.06
993.886
1001.22
959.838
920.238
907.198
900.872
877.43
848.563
832.362
826.881
824.206
822.953
821.184
821.884
825.691
830.054
835.242
839.425
848.083
1014.19
1005.31
1017.2
986.338
934.683
911.467
902.397
880.155
855.17
838.68
829.308
825.051
826.176
829.173
831.112
832.044
833.497
839.802
847.057
858.341
1021.8
1014.68
1027.94
1015
958.721
921.901
905.714
884.199
861.801
845.064
833.84
828.843
830.417
835.107
837.15
838.222
841.392
848.341
855.333
865.473
1028.23
1022.75
1037.79
1042.72
994.841
940.348
912.53
889.397
867.807
850.29
838.523
831.745
832.251
834.853
838.052
843.004
849.442
856.387
861.481
869.525
1035.74
1031.09
1043.54
1051.36
1038.96
999.057
954.148
916.806
888.653
867.668
854.216
842.97
839.45
840.624
844.728
852.741
862.24
867.996
871.073
878.541
1158.63
1151.99
1149.2
1103.1
1075.31
1074.96
1072.25
1054.82
1030.62
1009.53
995.103
988.546
989.636
993.963
1001.16
1009.13
1017.18
1024.91
1031.5
1039.62
1151.95
1153.23
1092.26
1043.99
1054.18
1071.11
1071.18
1049.1
1008.66
971.252
951.001
953.07
959.282
969.663
982.716
995.698
1006.45
1015.86
1024.24
1033.45
1152.62
1100.7
1022.65
1004.94
1051.58
1073.64
1073.84
1048.33
992.664
949.788
944.873
952.746
965.093
976.659
988.952
1003.29
1018.18
1028.18
1038.52
1044.34
1104.37
1043.1
1001.65
979.241
1030.73
1071.56
1078.8
1063.49
980.543
902.659
902.51
907.869
918.594
932.156
948.314
969.211
995.818
1022.28
1045.3
1052.27
1072.95
1045.85
1041.27
1015.5
888.785
887.829
892.161
895.173
899.441
906.095
915.123
927.283
943.519
970.728
1007.11
1043.98
1070.02
1064.82
1068.65
1067.32
906.688
909.936
907.816
905.679
905.7
906.311
907.635
910.334
916.36
929.264
951.573
1009.6
1067.46
1066.17
1070.16
1075.68
913.624
908.434
906.11
903.994
902.67
902.058
902.144
902.769
904.845
909.286
918.471
965.637
1050.06
1044.75
1045.02
1059.93
893.955
868.952
870.232
872.051
873.924
875.433
876.956
878.837
882.113
887.369
894.036
926.782
1026.01
1004.2
989.273
979.64
893.079
906.204
913.02
892.791
862.103
832.74
833.063
835.704
838.789
840.968
844.608
850.708
857.576
864.593
871.307
895.732
1005.16
967.227
947.037
900.727
887.311
909.693
908
868.31
832.273
837.247
831.054
821.467
820.529
822.922
827.908
834.286
841.055
846.712
852.31
871.76
990.757
947.295
941.536
900.407
891.568
907.559
905.738
870.103
833.015
831.59
819.384
807.853
812.186
819.276
824.314
825.998
827.848
831.75
836.532
854.125
984.081
949.185
949.053
905.181
894.256
905.235
903.719
872.254
836.059
823.386
811.549
805.089
808.132
816.674
819.778
818.627
820.131
825.232
828.356
840.643
985.284
955.167
960.743
914.547
898.009
905.218
902.294
874.245
839.563
823.063
816.14
810.585
808.472
807.593
809.224
814.867
821.221
827.884
828.943
835.228
990.109
965.887
972.221
926.54
903.959
905.9
901.914
875.826
842.342
825.831
822.88
819.914
810.316
803.052
807.082
815.855
825.638
832.24
831.263
836.215
997.994
980.05
985.153
941.402
912.328
907.28
902.148
877.488
846.59
831.038
826.996
822.953
812.958
808.495
811.647
821.002
829.99
834.223
833.913
839.55
1006.44
994.6
1000.73
960.974
923.819
909.773
902.998
879.581
853.107
837.174
828.839
822.26
818.784
819.305
823.183
829.604
831.905
834.278
837.737
847.284
1014.72
1006.08
1017.54
987.633
938.737
915.122
905.267
883.024
859.95
843.686
831.095
824.171
825.492
829.907
832.965
833.377
833.138
836.601
843.599
856.047
1022.44
1015.24
1027.95
1016.61
964.41
927.141
909.753
888.258
866.629
849.319
835.792
830.106
832.628
836.454
837.586
836.928
838.086
843.827
851.641
861.918
1028.74
1023.05
1037.55
1042.22
1000.96
948.283
918.65
894.849
873.188
855.065
841.373
834.478
834.096
835.74
837.575
840.876
845.897
852.813
857.739
864.736
1036.01
1031.14
1042.42
1049.41
1039.48
1004.84
963.723
926.779
897.559
875.056
859.607
847.767
841.188
841.573
844.128
850.873
858.983
864.039
866.108
871.345
1157.53
1150.42
1147.53
1106.67
1079.73
1076.57
1073.18
1056.08
1032.29
1011.4
997.061
989.409
990.102
994.101
1001.17
1009
1017.2
1024.89
1031.42
1039.69
1150.82
1148.42
1108.08
1055.2
1055.76
1071.3
1071.67
1050.43
1010.57
972.683
952.241
953.594
958.729
968.671
981.972
994.846
1005.75
1015.41
1023.89
1033.29
1149.35
1119.67
1035.19
1011.81
1051.17
1073.87
1074.67
1050.01
995.44
950.164
944.961
952.467
962.864
973.26
986.091
1001.09
1015.94
1026.61
1036.88
1042.67
1107.04
1053.93
1008.73
984.116
1031.58
1071.25
1079.09
1064.23
985.898
902.424
903.005
909.775
921.112
934.56
950.536
971.594
997.039
1022.05
1042.87
1049.41
1077.63
1048.61
1041.47
1015.98
894.606
890.531
894.883
898.569
903.626
910.786
919.93
931.965
949.161
977.289
1012.1
1042.76
1071.33
1064.97
1068.79
1067.17
907.168
912.185
910.515
908.824
908.88
909.45
910.922
914.096
921.365
936.116
960.885
1013.78
1067.95
1066.09
1070.29
1075.74
914.037
910.775
908.938
907.115
905.832
904.783
904.819
905.586
908.161
914.049
925.74
974.574
1050.63
1045.02
1045.26
1060
894.985
871.709
874.283
876.457
877.938
879.096
880.331
882.34
886.061
892.238
900.354
937.144
1026.61
1004.53
989.938
979.174
887.088
906.608
914.054
894.34
858.695
830.372
833.46
838.46
842.478
845.412
850.151
856.475
862.821
869.724
877.063
905.12
1006.09
966.584
944.467
900.38
889.388
911.772
910.372
870.46
829.909
833.866
825.149
819.835
821.356
825.731
832.066
839.136
845.366
850.731
856.78
879.197
991.487
947.326
942.004
901.191
893.888
909.851
908.423
873.722
833.384
827.424
807.605
803.045
809.765
819.755
824.622
826.428
828.609
832.862
838.562
859.798
984.677
949.039
949.664
907.785
897.414
907.768
906.579
876.527
838.65
822.34
806.156
799.622
805.115
813.577
815.478
815.002
817.816
824.23
829.037
845.843
985.983
954.943
959.382
917.852
902.043
907.805
905.266
878.313
843.297
823.495
813.128
806.79
800.524
799.65
802.727
810.634
819.063
825.945
827.65
837.343
991.024
965.688
969.675
929.898
908.601
908.442
904.488
879.582
846.901
827.752
821.67
815.29
801.26
797.694
802.341
812.666
823.126
828.857
829.259
836.869
999.096
980.422
983.013
944.456
917.046
909.919
904.645
880.893
852.16
834.18
825.885
817.492
805.159
803.502
807.771
817.726
825.284
830.149
831.392
838.964
1007.71
995.402
999.734
963.627
928.209
912.833
905.62
882.979
858.77
841.328
828.409
817.526
813.141
814.771
818.945
823.758
826.319
829.784
834.1
844.418
1016.51
1007.38
1017.05
989.458
943.5
919.13
908.336
886.687
865.067
847.747
831.543
820.647
821.489
825.153
827.095
827.295
827.595
831.605
838.197
850.053
1024.4
1016.89
1028.32
1017.85
969.987
932.63
913.955
892.63
871.566
853.248
836.967
827.872
828.366
830.235
831.93
831.514
832.614
837.483
844
854.418
1030.52
1024.67
1038.08
1041.47
1005.84
955.904
924.804
900.357
878.55
859.308
843.15
833.739
830.449
831.416
833.294
835.917
839.642
844.704
849.184
856.991
1037.45
1032.29
1042.08
1048
1039.23
1008.85
971.305
935.487
905.573
881.43
863.977
851.058
841.725
840.23
841.853
846.579
851.908
855.945
858.209
863.506
1159.88
1153.05
1151.5
1113.04
1086.14
1080.65
1076.75
1059.9
1036.52
1015.98
1001.38
993.508
994.365
998.564
1005.48
1013.1
1021.1
1028.63
1034.81
1042.57
1153.79
1149.86
1125.01
1065.08
1059.66
1074.19
1074.53
1053.59
1014.45
977.342
956.878
958.097
963.388
973.455
986.501
999.064
1009.76
1019.4
1027.57
1036.23
1151.61
1136.32
1049.24
1019.05
1052.61
1075.94
1077.15
1052.71
999.038
954.844
950.24
957.447
967.312
977.518
990.48
1005.66
1020.33
1030.96
1040.87
1045.52
1112.64
1064.03
1014.69
988.682
1032.97
1072.14
1081.01
1066.06
988.565
905.829
908.046
916.694
928.867
942.687
958.975
980.111
1004.56
1028.73
1048.69
1052.31
1083.51
1052.68
1043.36
1017.52
896.413
896.251
901.283
905.91
911.91
919.854
929.697
942.292
960.367
989.059
1023.01
1048.65
1074.53
1066.85
1069.96
1067.4
911.948
918.155
916.629
915.898
916.329
917.467
919.589
923.531
932.081
948.452
974.761
1023.8
1070.58
1067.73
1071.35
1076.36
918.815
916.861
915.239
914.008
913.004
912.469
912.801
914.187
917.602
924.775
938.491
987.811
1053.32
1046.62
1046.09
1060.82
900.243
878.775
881.797
883.827
885.332
887.011
888.897
891.613
895.941
902.794
912.046
951.414
1029.54
1006.06
990.291
979.123
886.545
910.505
918.313
898.319
839.719
827.48
835.495
843.904
850.327
854.996
860.635
866.934
873.269
880.698
888.697
919.128
1010.02
968.819
945.163
902.741
894.287
916.735
915.546
875.961
826.418
828.444
822.102
823.34
827.604
833.814
841.19
848.978
855.619
861.432
867.775
892.101
995.073
950.739
946.428
905.666
899.603
914.941
913.822
880.128
834.856
825.643
805.737
804.897
812.468
823.941
831.114
834.703
837.722
842.324
848.487
872.021
988.276
952.391
954.462
914.607
904.141
913.748
912.538
883.011
843.681
826.567
807.916
799.058
804.489
814.287
819.341
820.459
824.061
831.468
838.033
857.962
989.779
958.764
963.128
925.67
909.764
914.175
911.596
885.055
850.817
829.54
816.07
806.309
800.138
801.047
806.094
815.264
824.702
833.424
835.777
847.347
995.198
969.949
973.06
938.052
917.141
915.397
911.624
887.078
855.955
834.963
825.399
817.313
803.227
801.264
806.417
817.77
830.057