/*--------------------------------*- C++ -*----------------------------------*\
  =========                 |
  \\      /  F ield         | OpenFOAM: The Open Source CFD Toolbox
   \\    /   O peration     | Website:  https://openfoam.org
    \\  /    A nd           | Version:  9
     \\/     M anipulation  |
\*---------------------------------------------------------------------------*/
FoamFile
{
    format      ascii;
    class       volVectorField;
    location    "0.0065";
    object      U;
}
// * * * * * * * * * * * * * * * * * * * * * * * * * * * * * * * * * * * * * //

dimensions      [0 1 -1 0 0 0 0];

internalField   nonuniform List<vector> 
9720
(
(-665.715 -668.272 -1.28282)
(-525.974 -715.272 2.82906)
(-441.326 -767.513 -2.92801)
(-460.068 -939.401 -26.9576)
(-328.772 -1133.11 -31.7933)
(-93.7094 -1149.51 -27.491)
(130.904 -1146.51 -31.5153)
(410.37 -1159.95 -29.0798)
(712.832 -1134.43 -33.3224)
(952.89 -1023.53 -28.5079)
(1126.3 -883.082 -30.9406)
(1243.75 -752.281 -13.1859)
(1324.99 -649.841 -17.3068)
(1385.64 -566.197 -30.491)
(1402.97 -488.535 -30.4399)
(1432.52 -432.569 -20.7664)
(1454.42 -385.344 -16.0285)
(1489.91 -359.598 -20.6679)
(1518.79 -331.18 -22.4397)
(1598.76 -296.811 -26.5654)
(-712.722 -524.03 5.21701)
(-580.601 -579.444 8.46897)
(-543.744 -646.698 -2.09134)
(-722.362 -879.004 -29.6215)
(-430.428 -1174.03 -31.2085)
(-120.842 -1154.31 -25.9092)
(125.44 -1142.64 -28.3369)
(461.408 -1164.81 -27.1898)
(874.406 -1096.84 -30.7249)
(1158.61 -888.711 -17.9222)
(1345.31 -705.449 -22.9131)
(1446.2 -576.005 -1.8364)
(1503.49 -493.144 -8.60164)
(1537.06 -416.146 -27.6085)
(1516.82 -349.917 -31.82)
(1500.56 -308.88 -19.0218)
(1510.82 -291.958 -12.4675)
(1529.48 -285.68 -14.4089)
(1550.47 -276.436 -18.1784)
(1618.13 -256.472 -23.1364)
(-765.605 -435.36 4.73008)
(-645.075 -534.984 4.07951)
(-852.031 -844.834 -17.3547)
(-881.263 -1005.74 -38.8769)
(-479.911 -1151.51 -22.7908)
(-125.823 -1132.21 -20.078)
(145.698 -1126.67 -22.0158)
(500.283 -1136.73 -18.1835)
(982.507 -986.65 -23.6824)
(1232.51 -682.439 -20.606)
(1422.74 -540.764 -20.534)
(1544.04 -445.086 -21.5389)
(1627.95 -396.35 -25.6415)
(1696.2 -361.427 -36.4127)
(1715.28 -307.13 -41.1002)
(1688.12 -271.434 -39.5137)
(1644.42 -220.265 -29.3298)
(1608.86 -202.833 -20.4479)
(1608.94 -214.431 -21.0597)
(1644.57 -211.765 -23.1248)
(-934.646 -441.732 -14.7874)
(-878.686 -708.67 -14.3749)
(-1009.18 -873.698 -12.0177)
(-1025.23 -993.389 -41.4318)
(-673.254 -1096.35 -31.7864)
(-234.522 -1112.03 -17.692)
(67.6099 -1106.49 -27.9357)
(384.441 -1104.26 -27.6739)
(976.208 -1014.07 -41.542)
(1757.63 -656.542 -33.577)
(1942.38 -662.321 -58.4871)
(2023.82 -628.287 -68.4886)
(2051.93 -577.315 -57.5801)
(2055.18 -513.446 -47.3112)
(2043.55 -439.075 -50.177)
(2014.6 -333.345 -57.7061)
(1938.71 -242.627 -52.8595)
(1833.48 -176.198 -34.3)
(1727.24 -109.567 -37.7822)
(1716.92 -100.113 -45.1587)
(-1124.49 -322.517 -31.7842)
(-1171.6 -431.868 -28.6966)
(-1152.72 -481.119 -18.7889)
(-1091.26 -649.894 -26.4272)
(1923.8 -689.193 -78.025)
(2293.56 -496.776 -54.5091)
(2312.85 -483.571 -54.446)
(2322.34 -460.675 -58.0743)
(2325.33 -428.699 -60.7084)
(2318.4 -394.26 -61.3478)
(2299.48 -354.238 -67.8378)
(2262.71 -308.317 -62.6994)
(2217.26 -227.93 -60.6886)
(2125.42 -102.394 -70.8485)
(1975.15 -27.4791 -58.451)
(1843.17 9.64248 -52.8748)
(-1147.26 -92.1033 -29.4012)
(-1155 -119.83 -27.6406)
(-1133.05 -125.706 -22.4258)
(-1112.56 -234.73 -21.234)
(2307.86 -247.698 -64.6416)
(2340.18 -138.348 -50.3046)
(2343.77 -134.621 -54.4669)
(2343.62 -131.124 -58.6051)
(2341.97 -127.437 -62.2738)
(2340.27 -121.279 -63.2178)
(2340.44 -109.596 -67.1185)
(2336.04 -93.5468 -69.1684)
(2326.39 -65.9878 -62.9576)
(2294.75 -24.5465 -71.3486)
(2225.64 66.1437 -66.2983)
(2028.64 151.475 -52.0135)
(-1147.07 131.944 -37.3249)
(-1146.34 126.114 -33.9666)
(-1128.9 145.722 -26.7564)
(-1107 67.3906 -32.8958)
(2325.13 28.1736 -61.7925)
(2373.05 126.903 -50.8581)
(2377.9 119.444 -51.7376)
(2380.23 113.291 -55.9878)
(2384.75 110.452 -62.9159)
(2389.66 110.955 -64.6333)
(2394.98 114.673 -64.0564)
(2395.44 121.065 -66.6703)
(2391.35 132.589 -64.8908)
(2372.98 146.972 -67.4313)
(2350.94 192.836 -69.8357)
(2197.75 275.672 -60.2695)
(-1162.31 412.797 -33.9945)
(-1171.26 464.906 -32.1412)
(-1141.25 506.119 -23.0347)
(-1105.37 384.83 -33.4615)
(2360.28 332.792 -61.8353)
(2407.12 524.55 -38.7124)
(2421.12 506.928 -60.0971)
(2422.12 480.61 -70.3261)
(2430.28 460.53 -60.7755)
(2444.09 439.032 -49.136)
(2444.29 421.981 -54.2371)
(2448.11 404.841 -68.9881)
(2450.28 387.127 -69.4296)
(2436.19 372.676 -65.1503)
(2419.41 377.357 -62.3804)
(2323.15 421.37 -55.6062)
(-1133.61 717.364 -40.0365)
(-1097.25 883.424 -40.0569)
(-980.376 992.647 -37.9433)
(-1004.42 1000.77 -56.5622)
(-702.173 1969.93 -82.2832)
(-247.551 2253.7 -65.8649)
(35.6065 2271.84 -65.0762)
(346.658 2306.13 -63.2061)
(1688.72 1891.78 -121.178)
(2217.56 1185.89 -112.471)
(2306.21 1040.41 -68.0713)
(2366.49 948.724 -36.1814)
(2375.3 865.596 -32.1442)
(2400.62 804.897 -67.7279)
(2441.51 754.349 -84.8004)
(2446.84 705.024 -81.9124)
(2462.88 668.362 -68.5255)
(2473.18 630.736 -61.3245)
(2459.41 594.063 -63.2388)
(2394.45 599.892 -59.56)
(-1019.13 955.285 -42.4332)
(-882.486 1161.87 -38.7429)
(-679.324 1236.33 -42.9433)
(-661.464 1757.59 -47.3029)
(-499.828 2245.85 -57.7985)
(-133.858 2287.06 -52.9504)
(136.385 2321.28 -52.2834)
(533.279 2346.28 -41.4821)
(1139.6 2272.63 -67.7324)
(1658.5 1742.8 -117.499)
(1994.13 1432.87 34.265)
(2153.34 1312.24 -15.0403)
(2227.07 1207.46 -89.3541)
(2265.25 1107.5 -107.297)
(2326.42 1041.13 -94.0146)
(2366.52 976.597 -66.6449)
(2380.43 905.848 -46.1419)
(2419.92 872.369 -57.6252)
(2453.55 815.174 -67.1203)
(2429.1 789.51 -65.4492)
(-878.585 1126.53 -46.0381)
(-702.187 1344.52 -45.4857)
(-539.316 1425.87 -43.2719)
(-666.96 1930.61 -74.2213)
(-485.782 2267.9 -58.9146)
(-130.133 2292.64 -56.4336)
(127.186 2328.95 -52.9037)
(510.807 2364.19 -56.5038)
(995.514 2279.88 -77.941)
(1417.09 2100.04 30.7533)
(1674.45 1743.73 26.3026)
(1966.4 1586.45 -117.571)
(2124.72 1489.1 -124.589)
(2130.15 1385.41 -92.4988)
(2163.28 1283.94 -56.7042)
(2226.73 1216.06 -49.195)
(2280.3 1146.34 -58.0609)
(2324.53 1081.97 -69.1206)
(2396.69 1029.81 -78.6119)
(2402.08 964.073 -67.2015)
(-749.767 1242.64 -28.6828)
(-579.355 1445.82 -25.763)
(-448.292 1540.19 -40.8607)
(-630.033 1998.45 -80.2465)
(-460.777 2280.04 -63.1075)
(-126.252 2295.32 -60.2672)
(121.083 2333.57 -58.9233)
(482.456 2365.09 -62.4956)
(922.794 2328.89 -49.2671)
(1271.81 2133.73 -19.7816)
(1535.95 2012.43 -91.1057)
(1808.9 1870.43 -130.126)
(2021.63 1724.09 -66.0758)
(2015.77 1588.17 -29.866)
(2049.75 1488.68 -9.38023)
(2123.96 1431.79 -36.8082)
(2214.53 1371.47 -77.1587)
(2248.25 1284.55 -79.9161)
(2308.43 1229.9 -94.9033)
(2353.77 1140.22 -82.4272)
(-650.946 1327.69 -32.4746)
(-503.584 1506.99 -29.545)
(-406.344 1623.48 -42.1847)
(-577.491 2025.48 -69.6515)
(-427.612 2283.61 -65.3881)
(-122.905 2293.76 -63.9612)
(116.162 2338.77 -65.7621)
(458.345 2374.32 -55.1045)
(846.557 2339.96 -36.2843)
(1174.54 2200.19 -76.4789)
(1435.84 2080.42 -127.405)
(1653.81 2025.46 -78.94)
(1841.98 1880.67 -36.4628)
(1952.74 1747.94 -12.4029)
(2054.83 1659.34 7.27977)
(2083.13 1606.02 -34.0609)
(2135.21 1547.4 -90.0359)
(2149.35 1449.86 -99.254)
(2204.75 1405.09 -89.6803)
(2294.71 1310.04 -64.4228)
(-567.871 1385.66 -46.2339)
(-427.959 1541.12 -44.4917)
(-375.664 1694.82 -48.0799)
(-513.926 2031.12 -56.8683)
(-391.822 2276.59 -66.5937)
(-116.452 2291.19 -65.2595)
(114.426 2344.22 -66.3974)
(434.412 2387.62 -48.5557)
(789.762 2366.57 -57.3007)
(1082.08 2243.92 -92.0972)
(1340.14 2097.49 -95.7755)
(1539.38 1975.63 -58.6323)
(1695.28 1950.74 -37.127)
(1870.03 1917.73 -19.0872)
(2015.66 1833.77 -40.9152)
(2014.22 1737.98 -79.5221)
(2028.65 1654.75 -111.481)
(2048.76 1575.02 -78.7853)
(2117.11 1546.61 -31.1162)
(2223.19 1454.73 -28.1809)
(-491.495 1400.68 -46.4168)
(-358.224 1520.24 -47.9162)
(-319.912 1717.86 -49.6361)
(-442.217 2021.07 -56.7258)
(-350.057 2257.8 -71.8464)
(-104.132 2290.06 -69.8974)
(117.001 2349.96 -65.9159)
(416.065 2385.8 -55.9856)
(740.367 2406.07 -67.3772)
(1020.31 2305.58 -82.1594)
(1253.19 2144.11 -57.8297)
(1453.12 2008.72 -27.2303)
(1610.79 2001.79 -24.0382)
(1771.47 1993.98 -63.3678)
(1911.7 1919.22 -109.493)
(1926.37 1815.48 -105.599)
(1964.57 1732.6 -79.5898)
(2016.11 1679.49 -12.3394)
(2074.93 1673.44 -3.29675)
(2158.87 1587.18 -31.2547)
(-433.626 1427.95 -36.2858)
(-310.036 1495.79 -35.2681)
(-284.322 1691.28 -45.5873)
(-339.798 1997.64 -63.8966)
(-302.566 2223.58 -62.85)
(-88.1234 2283.92 -70.0881)
(122.479 2350.64 -67.9506)
(398.686 2390.62 -70.9662)
(691.037 2408.26 -67.5107)
(959.338 2345.42 -54.532)
(1193.68 2215.45 -37.2194)
(1400.33 2090.29 -36.4561)
(1547.88 2021.26 -54.0102)
(1674.46 1959.32 -98.325)
(1784.7 1904.06 -117.277)
(1827.98 1831.23 -61.1192)
(1899.61 1797.41 -10.7122)
(1981.43 1773.03 16.4276)
(2011.5 1744.39 -4.32977)
(2089.31 1673.51 -27.7772)
(-385.93 1450.02 -31.3631)
(-292.644 1504.61 -29.0837)
(-232.14 1646.14 -37.682)
(-245.73 1928.1 -56.0196)
(-223.623 2182.06 -64.0693)
(-59.5169 2275 -64.6169)
(133.1 2346.99 -65.4287)
(380.988 2393.92 -71.249)
(651.988 2420.13 -58.7389)
(890.568 2359.22 -29.4938)
(1128.21 2272.3 -41.675)
(1343.54 2186.31 -68.4388)
(1499.46 2087.49 -91.2484)
(1607.12 1977.01 -112.021)
(1694.75 1923.31 -79.6816)
(1773.16 1884.59 -9.06604)
(1868.26 1879.47 12.4669)
(1944.94 1847.34 -13.0787)
(1955.92 1789.82 -35.5406)
(2023.25 1724.12 -37.821)
(-360.814 1486.37 -35.3734)
(-288.048 1523.92 -30.5846)
(-207.484 1605.51 -32.9241)
(-181.402 1821.9 -29.5895)
(-107.074 2094.05 -71.03)
(-17.1554 2245.64 -73.7062)
(147.731 2330.54 -68.8157)
(368.051 2381.08 -68.0722)
(613.55 2426.54 -55.4519)
(854.775 2396.24 -39.4003)
(1064.07 2311.66 -54.7005)
(1258.34 2224.38 -68.2914)
(1414.93 2118.03 -89.2984)
(1541.77 2005.7 -69.9862)
(1653.67 1974.01 -9.04979)
(1741.94 1947.17 13.3703)
(1827.53 1931.11 -14.7807)
(1879.48 1879.1 -67.5564)
(1885.86 1814.31 -75.7916)
(1959.89 1777.83 -52.8256)
(-333.179 1516.61 -36.5462)
(-280.252 1546.5 -33.7293)
(-216.803 1604.55 -33.8263)
(-117.071 1716.79 -37.7326)
(-27.2707 1946.32 -46.5618)
(69.7187 2177.12 -62.1684)
(191.555 2307.54 -69.0615)
(373.319 2365.76 -64.1791)
(578.131 2410.89 -60.1108)
(796.363 2423.72 -54.7885)
(1009.22 2378.43 -62.3021)
(1205.8 2288.35 -74.31)
(1379.47 2181.68 -66.9536)
(1522.9 2082.39 -14.3772)
(1650.65 2036.11 0.724636)
(1718.74 1978.3 -9.64628)
(1768.94 1934.81 -37.0654)
(1806.91 1877.71 -74.7011)
(1828.03 1828.72 -57.4996)
(1909.56 1799.35 -23.1901)
(-299.02 1597.51 -39.5707)
(-260.446 1615.76 -37.6915)
(-215.438 1639.97 -35.6988)
(-106.731 1708.88 -49.27)
(7.24354 1820.78 -46.8234)
(150.08 1989.29 -47.8469)
(268.472 2158.64 -57.0876)
(416.093 2271.81 -54.5721)
(585.599 2344.89 -56.8734)
(770.894 2393.97 -56.5644)
(944.187 2376.89 -52.5372)
(1118 2332.59 -61.0987)
(1288.54 2274.7 -41.1164)
(1433.83 2196.63 -11.1989)
(1563.27 2129.13 -23.5316)
(1652.5 2062.55 -25.6081)
(1709.01 1999.7 -32.8247)
(1770.55 1947.16 -50.5031)
(1799.27 1906.58 -23.0909)
(1869.85 1867.58 1.0567)
(-667.844 -671.965 14.881)
(-521.325 -721.151 26.5314)
(-438.341 -777.991 39.661)
(-479.924 -958.038 21.0455)
(-339.247 -1159.4 2.50321)
(-96.3687 -1168.6 -4.18089)
(130.318 -1163.99 -7.80427)
(411.995 -1178.4 -5.45258)
(718.038 -1152.16 -7.51069)
(956.763 -1036.59 -0.0627126)
(1131.32 -894.779 -2.0148)
(1250.31 -762.464 14.5572)
(1331.45 -657.456 14.5639)
(1392.47 -572.144 6.30726)
(1407.62 -494.272 4.87496)
(1436.5 -437.234 12.8648)
(1458.04 -388.922 16.016)
(1493.11 -362.858 11.2016)
(1520.93 -334.197 7.23725)
(1599.85 -300.446 0.990179)
(-714.363 -523.233 28.0957)
(-571.689 -577.848 40.6783)
(-567.201 -672.915 82.9797)
(-750.99 -928.138 21.3827)
(-427.446 -1204.83 -9.17026)
(-118.629 -1175.2 -7.2594)
(126.402 -1162.82 -7.38248)
(462.379 -1187.9 -7.33961)
(880.366 -1119.23 -7.11745)
(1165.71 -906.095 10.7261)
(1353.84 -715.191 5.00418)
(1456.12 -582.187 26.7755)
(1517.8 -499.324 22.1784)
(1551.72 -422.522 8.17291)
(1531.93 -355.414 5.97264)
(1509.08 -310.231 18.4279)
(1516.81 -290.872 22.8244)
(1533.94 -285.448 19.0165)
(1553.64 -277.517 12.1585)
(1619.66 -258.807 4.40802)
(-770.026 -435.133 40.5099)
(-656.239 -557.487 77.0681)
(-893.7 -898.34 41.9496)
(-881.724 -1067.7 -6.11549)
(-467.077 -1178.54 -9.26018)
(-124.543 -1161.4 -4.59653)
(145.248 -1154.81 -7.00134)
(501.643 -1165.81 -3.12396)
(989.994 -1013.72 5.18879)
(1246.64 -700.228 12.6488)
(1439.57 -549.249 14.6562)
(1565.59 -449.596 20.3535)
(1648.58 -396.898 15.8058)
(1714.39 -362.244 -0.522456)
(1733.9 -306.564 -3.94603)
(1706.84 -271.502 5.16347)
(1660.33 -220.539 15.8982)
(1617.4 -198.442 14.0665)
(1614 -209.14 8.7924)
(1647.52 -209.839 2.37509)
(-948.631 -460.483 28.5854)
(-913.734 -748.726 27.5354)
(-1052.58 -895.622 3.50249)
(-1032.82 -1049.28 -3.33)
(-630.489 -1135.44 -13.744)
(-232.566 -1147.64 -1.59373)
(65.2769 -1143.5 -12.0698)
(382.714 -1138.89 -12.3504)
(974.024 -1058.43 3.76745)
(1796.76 -666.306 14.6916)
(1983.56 -673.153 -11.5881)
(2067.79 -639.268 -18.8608)
(2092.09 -588.473 -7.31159)
(2092.73 -522.661 6.38264)
(2077.32 -447.148 5.97287)
(2047.44 -340.712 -7.45557)
(1971.22 -241.373 -7.84064)
(1861.68 -172.011 22.7938)
(1745.24 -106.872 7.26445)
(1726.25 -95.2841 -19.2975)
(-1147.45 -332.574 2.92799)
(-1200.07 -435.605 -6.98363)
(-1175.45 -488.374 -9.53552)
(-1140.9 -677.345 -6.79279)
(1977.73 -681.985 -9.91869)
(2345.06 -498.41 -24.292)
(2360.89 -485.519 -22.1309)
(2369.23 -463.128 -20.987)
(2370.86 -431.841 -19.0121)
(2362.03 -398.77 -14.1752)
(2341.54 -359.686 -16.9697)
(2301.82 -315.189 -7.7245)
(2255.13 -237.986 -7.00411)
(2167.16 -112.012 -17.8014)
(2013.35 -18.9051 22.6443)
(1865.87 16.4771 -5.05723)
(-1165.24 -95.9036 -4.81884)
(-1174.13 -121.626 -8.03327)
(-1159.44 -126.669 -7.05191)
(-1142.58 -235.501 -8.06475)
(2379.87 -248.811 -32.1055)
(2393.37 -138.485 -22.5532)
(2393.35 -133.834 -22.946)
(2390.4 -130.252 -21.909)
(2385.72 -127.26 -19.9693)
(2381.28 -121.747 -16.4258)
(2379.97 -110.677 -17.7375)
(2375 -95.5038 -17.2367)
(2364.72 -70.203 -4.95252)
(2334.6 -30.2376 -13.9814)
(2271.15 55.7406 11.8192)
(2063.99 153.802 17.6644)
(-1164.61 130.046 -14.3844)
(-1165.43 125.943 -14.8251)
(-1155.59 145.426 -12.5058)
(-1142.51 65.4609 -17.0395)
(2398.69 27.1881 -31.8194)
(2429.91 126.559 -24.8983)
(2430.3 121.165 -20.816)
(2430.38 113.873 -19.021)
(2434.63 109.754 -19.0986)
(2435.99 110.318 -18.2812)
(2438.27 113.057 -15.3848)
(2437.98 119.128 -15.5764)
(2433.47 129.399 -10.8815)
(2416.24 143.001 -12.2284)
(2396.94 183.711 -4.44241)
(2245.79 269.142 13.5163)
(-1180.46 412.65 -11.9924)
(-1193.13 462.853 -16.6975)
(-1167.62 503.888 -11.7352)
(-1138.09 381.116 -19.281)
(2430.62 332.463 -30.6815)
(2464.56 527.051 -7.29044)
(2477.68 507.027 -23.8574)
(2478.24 480.682 -32.8522)
(2478.68 460.598 -21.1612)
(2488.17 439.807 -3.05135)
(2488.09 421.556 -1.22856)
(2489.05 405.672 -14.4459)
(2491.32 388.174 -16.7054)
(2479.58 372.743 -12.4244)
(2463.8 373.618 -2.06535)
(2371.78 415.975 16.7449)
(-1153.27 720.287 -18.1062)
(-1121.73 884.378 -25.6303)
(-1006.87 994.349 -15.2038)
(-1043.15 991.915 -10.3156)
(-701.477 2035.68 -21.3646)
(-247.804 2334.6 -32.8958)
(34.8356 2360.02 -32.9266)
(348.59 2400.05 -30.3789)
(1674.01 1939.15 -37.1009)
(2269.35 1195.6 -72.789)
(2359.98 1044.07 -46.0771)
(2418.4 953.685 1.47827)
(2433.29 873.355 19.1293)
(2452.68 811.228 -11.9181)
(2490.19 756.743 -34.2684)
(2494.88 708.195 -31.619)
(2506.51 672.075 -10.4974)
(2516.55 636.047 -0.925221)
(2504.47 596.779 0.692675)
(2442.88 597.73 12.2425)
(-1036.67 959.773 -16.0524)
(-906.551 1169.56 -21.0037)
(-695.043 1247.34 -22.6756)
(-661.19 1797.44 -4.87982)
(-501.332 2321.5 -28.7255)
(-133.6 2365.38 -24.5865)
(135.614 2404.74 -24.4744)
(538.718 2435.47 -12.9505)
(1148.16 2347.1 -20.9024)
(1700.7 1797.48 -114.483)
(2026.58 1444.89 76.2006)
(2194.16 1321.04 57.9441)
(2283.65 1219.78 -22.2348)
(2328.57 1117.72 -61.0499)
(2380.12 1049.05 -41.4052)
(2420.18 985.352 -4.86314)
(2428.39 913.186 24.0596)
(2456.26 876.182 6.41866)
(2492.97 819.269 -10.0075)
(2473.46 788.788 -1.40198)
(-892.945 1130.76 -16.2333)
(-715.207 1353.61 -18.8777)
(-548.203 1442.2 -8.86969)
(-666.332 1975.48 -34.2932)
(-487.985 2334.32 -26.1529)
(-129.325 2363.18 -24.6494)
(128.769 2402.45 -20.3818)
(512.134 2443.74 -22.9315)
(1004.37 2363.59 -44.9788)
(1436.95 2144.23 81.9408)
(1688.99 1765.29 117.849)
(1963.35 1578.75 -52.6449)
(2156.99 1497.72 -92.8072)
(2189.27 1401.68 -40.4113)
(2224.9 1296.81 20.8264)
(2279.3 1224.78 29.4333)
(2329.22 1156.45 3.70082)
(2367.46 1088.35 -18.7472)
(2439.28 1037.24 -28.0952)
(2447.41 970.187 -2.29636)
(-762.463 1248.57 1.42667)
(-586.929 1455.89 7.01838)
(-452.803 1563.55 7.05831)
(-637.097 2052.06 -29.1998)
(-464.978 2341.56 -25.4223)
(-125.699 2359.35 -23.8179)
(121.843 2402.09 -20.8556)
(484.88 2440.52 -28.1241)
(929.992 2399.99 -4.10445)
(1288.76 2206.87 61.8974)
(1549.93 2032.82 -22.8892)
(1809.02 1861.13 -127.225)
(2040.74 1732.88 -26.4637)
(2057.67 1606.27 55.9496)
(2083.15 1503.63 64.9083)
(2147.45 1438.55 14.0972)
(2250.64 1376.76 -42.3249)
(2296.49 1299.49 -28.117)
(2357.42 1245.71 -29.2735)
(2395.85 1148.01 -12.7371)
(-660.904 1335.24 2.4223)
(-510.368 1523.62 10.0634)
(-407.58 1647.37 10.1401)
(-589.269 2076.61 -12.4302)
(-433.283 2342.55 -23.0837)
(-123.28 2353.08 -22.6715)
(116.084 2403.43 -22.0806)
(461.004 2440 -17.6818)
(853.868 2405.9 21.0915)
(1190.22 2271.34 -1.76055)
(1455.44 2149.31 -79.9509)
(1674.01 2065.73 -28.0099)
(1864.31 1911.49 87.9418)
(1953.52 1754.88 73.0146)
(2055.28 1669.01 54.9222)
(2109.6 1611.18 -3.16276)
(2187.33 1561.08 -31.8355)
(2203.22 1477.65 -11.3678)
(2243 1411.61 -9.36053)
(2323.86 1311.11 2.00113)
(-575.115 1393.45 -5.47825)
(-434.062 1557.6 0.188457)
(-377.695 1718.79 2.17228)
(-526.468 2079.71 5.72347)
(-399.886 2333.35 -16.4984)
(-118.208 2345.81 -20.0936)
(114.717 2403.6 -20.5734)
(437.756 2449.4 -3.91467)
(793.433 2422.09 0.176565)
(1093.96 2313.83 -39.6008)
(1365.57 2171.72 -40.0904)
(1569.34 2042.23 28.1251)
(1718.11 1961.69 61.5184)
(1866.06 1902.35 15.6215)
(2028.82 1841.13 -10.0634)
(2063.74 1764.04 -16.4499)
(2081.21 1688.4 -17.9586)
(2083.59 1585.31 17.9175)
(2132.74 1543.3 31.9391)
(2242.52 1455.8 26.2843)
(-497.824 1405.41 -6.78383)
(-363.485 1534.82 -2.88022)
(-321.351 1741.22 -0.239787)
(-454.55 2065.04 11.6239)
(-360.126 2312.53 -15.651)
(-106.49 2342.09 -22.1004)
(116.173 2404.8 -17.7816)
(418.138 2447.05 -3.7084)
(742.637 2460.33 -16.0819)
(1028.9 2364.01 -28.115)
(1271.11 2208.27 17.7836)
(1469.54 2055.89 54.583)
(1628.95 2022.74 41.5136)
(1774.95 2021.63 -16.1174)
(1939.59 1966.76 -25.4561)
(1978.6 1864.98 12.5713)
(1994.14 1755.01 36.2094)
(2027.86 1675.89 68.6494)
(2082.37 1672.1 53.2758)
(2182.75 1593.05 28.5176)
(-438.206 1431.26 1.50089)
(-310.434 1503.49 7.29768)
(-285.571 1713.4 7.31449)
(-351.573 2039.09 3.04827)
(-315.278 2274.42 -1.0423)
(-91.9645 2334.82 -19.2244)
(120.697 2403.68 -16.6984)
(400.338 2446.21 -16.7859)
(694.883 2464.98 -17.1335)
(968.61 2399.66 5.70668)
(1203.96 2266.99 39.7547)
(1408.41 2123.22 26.0494)
(1561.71 2057.56 2.10448)
(1706.02 2013.52 -23.0807)
(1833.29 1957.75 0.0864595)
(1867.6 1866.2 74.4923)
(1914.36 1808.07 93.1025)
(1991.4 1776.52 84.6124)
(2039.38 1759.71 64.9537)
(2118.4 1690.08 47.2862)
(-388.839 1453.18 5.0398)
(-291.124 1510.1 10.7127)
(-233.643 1665.4 16.3849)
(-250.198 1966.25 4.87908)
(-240.159 2229.74 -0.23229)
(-66.9084 2324.35 -6.43019)
(129.379 2399.02 -10.2921)
(383.096 2447.28 -16.954)
(657.872 2473.11 -0.464888)
(897.216 2407.67 39.2068)
(1138.59 2320.57 26.9893)
(1351.94 2225.11 -17.1914)
(1521.02 2135.9 -15.646)
(1640.76 2021.76 -15.7391)
(1717.32 1946.42 30.3908)
(1787.1 1895.65 93.3797)
(1873.5 1882.15 84.4157)
(1970.72 1865.39 57.0261)
(1987.61 1827.04 57.2909)
(2048.6 1745.37 53.1053)
(-363.505 1489.52 0.759394)
(-287.802 1527.81 6.93898)
(-205.9 1616.6 8.37525)
(-179.718 1851.89 39.3108)
(-120.859 2143.33 -4.75094)
(-26.0989 2295.69 -13.4302)
(142.849 2382.66 -10.6885)
(368.345 2434.76 -12.1925)
(620.666 2479.2 7.1813)
(859.503 2436.74 25.5683)
(1070.92 2354.39 4.80302)
(1273.11 2268.21 -4.40157)
(1439.86 2162.56 6.11767)
(1550.65 2037.49 27.626)
(1652.68 1983.34 70.5942)
(1747.66 1955.88 78.7681)
(1841.1 1956.24 51.059)
(1918.23 1916.54 27.7408)
(1920.58 1848.71 30.5812)
(1984.58 1789.42 36.1401)
(-335.753 1518.86 -2.70051)
(-281.727 1549.28 -0.206012)
(-214.828 1610.81 0.124747)
(-117.561 1735.66 14.2197)
(-22.3792 1985.7 42.058)
(57.2807 2230.64 20.1853)
(181.831 2361.76 1.12915)
(369.202 2418.62 0.907037)
(580.507 2465.16 8.45809)
(800.162 2469.35 6.8818)
(1016.88 2421.26 -4.99761)
(1219.95 2331.29 -4.55067)
(1386.53 2216.45 15.3125)
(1521.64 2098.21 49.9821)
(1652.9 2042.83 58.7321)
(1735 2002.25 57.5357)
(1802.27 1963.84 50.9407)
(1842.36 1906.86 27.616)
(1847.24 1844.62 38.2999)
(1921.38 1806.64 52.5892)
(-302.518 1598.66 -7.84272)
(-263.326 1616.89 -7.00678)
(-216.778 1643.29 -7.72229)
(-105.963 1720.16 -20.6703)
(11.1402 1845.38 3.0181)
(150.544 2029.41 24.7782)
(262.638 2210.34 21.2417)
(410.837 2324.6 22.3264)
(582.498 2400.71 19.5929)
(769.759 2444.5 11.6456)
(948.784 2424.02 15.8492)
(1124.87 2373.71 9.52097)
(1291.4 2303.98 25.7152)
(1437 2217.02 45.2201)
(1572.26 2151.64 37.9154)
(1668.99 2087.77 47.8772)
(1728.24 2021.57 55.1384)
(1780.75 1966.9 36.4444)
(1806.76 1915.07 52.8815)
(1878.29 1874.91 69.3277)
(-678.883 -679.022 17.2711)
(-530.82 -726.744 31.0723)
(-451.595 -800.901 51.7143)
(-515.697 -994.958 27.6278)
(-354.53 -1196.94 9.77726)
(-99.3079 -1194.85 -0.475297)
(130.736 -1189.73 -7.25955)
(415.549 -1206.62 -5.93078)
(725.797 -1180.07 -3.99886)
(964.512 -1059.98 5.97368)
(1142.55 -916.733 3.12709)
(1260.86 -781.788 18.1472)
(1341.2 -674.842 20.387)
(1408.67 -590.167 11.7041)
(1423.8 -512.331 4.68928)
(1448.49 -452.277 9.65062)
(1467.25 -400.212 11.8206)
(1501.18 -372.151 8.36943)
(1528.08 -342.815 4.42786)
(1605.96 -310.997 -1.1821)
(-720.032 -527.978 31.6541)
(-579.651 -580.126 37.9923)
(-651.119 -721.872 102.168)
(-788.632 -1003.18 28.0297)
(-432.812 -1230.43 3.6994)
(-116.998 -1197.3 -0.0657734)
(127.913 -1187.51 -6.2061)
(467.744 -1214.1 -5.45913)
(892.126 -1141.09 -1.74463)
(1175 -918.415 19.8641)
(1370.07 -727.794 12.8731)
(1470.42 -587.634 31.5198)
(1534.79 -502.252 35.0536)
(1575.94 -434.183 19.6047)
(1566.16 -371.564 8.48359)
(1536.37 -323.793 15.018)
(1534.05 -294.56 17.2747)
(1546.19 -288.158 14.2089)
(1563.18 -281.225 8.31497)
(1626.35 -265.382 1.68826)
(-790.351 -440.343 45.5525)
(-702.311 -620.953 89.9591)
(-954.053 -947.679 33.1472)
(-874.472 -1121.35 9.87088)
(-466.655 -1189.74 5.66278)
(-123.346 -1182.01 4.90116)
(145.953 -1179.37 -3.46855)
(507.385 -1189.95 1.96805)
(1003.83 -1030.23 10.0529)
(1258.31 -704.252 22.3184)
(1454.89 -555.546 23.4331)
(1603.28 -458.944 23.3622)
(1688.06 -394.294 25.8263)
(1752.76 -365.026 15.7515)
(1777.75 -313.573 6.74635)
(1755.44 -276.091 8.87475)
(1706.72 -224.442 12.0848)
(1649.08 -197.778 7.99215)
(1636.78 -210.525 3.08413)
(1663.19 -213.066 -1.15272)
(-978.435 -495.251 25.5276)
(-978.008 -789.739 13.5985)
(-1105.9 -891.46 -18.5533)
(-1061.21 -1074.11 15.4519)
(-629.83 -1177.17 5.42223)
(-232.219 -1168.87 6.68822)
(64.3004 -1167.36 -4.64485)
(384.357 -1163.52 -3.99296)
(988.894 -1080.28 9.53256)
(1844.13 -670.058 25.2426)
(2032.74 -676.477 10.4626)
(2133.49 -657.057 -1.80082)
(2161.8 -607.345 1.74034)
(2167.08 -539.23 14.6028)
(2152.63 -460.206 19.4174)
(2126.03 -350.464 7.33662)
(2049.5 -245.254 -1.44206)
(1939.28 -177.229 21.4182)
(1815.77 -108.713 12.055)
(1765.85 -92.9659 -20.4018)
(-1187.07 -351.85 1.4147)
(-1231.2 -441.642 -11.4712)
(-1191.22 -487.462 -6.9331)
(-1177.17 -685.612 -6.12248)
(2000.49 -708.49 -3.55767)
(2404.82 -505.067 -14.9231)
(2426.86 -494.886 -12.6332)
(2442.19 -473.201 -13.9869)
(2449.48 -441.609 -16.436)
(2444.05 -409.209 -12.7294)
(2426.17 -371.665 -14.3733)
(2387.05 -330.814 -3.15556)
(2339.09 -263.521 2.13097)
(2264.15 -133.712 -13.6641)
(2121.95 -27.7454 26.4618)
(1948.15 9.74352 -1.45764)
(-1193.07 -102.617 -5.39048)
(-1198.03 -122.49 -7.79644)
(-1181.6 -127.257 -3.08947)
(-1160.94 -234.929 1.93825)
(2406.26 -250.505 -14.7227)
(2457.71 -141.074 -13.1785)
(2464.58 -137.133 -11.716)
(2465.13 -132.679 -11.7193)
(2462.54 -129.373 -10.9073)
(2459.55 -124.648 -8.27245)
(2459.44 -115.993 -9.16004)
(2457.33 -102.596 -10.764)
(2451.13 -80.452 2.2272)
(2426.56 -47.1737 -6.3657)
(2380.23 32.2886 15.2556)
(2173.28 146.15 22.2992)
(-1190.75 126.787 -11.6107)
(-1188.45 125.592 -10.3592)
(-1178.4 145.8 -5.70325)
(-1167.39 66.4446 -7.89598)
(2432.87 27.9846 -16.8663)
(2501.53 124.699 -14.2071)
(2508.7 119.634 -10.0923)
(2512.94 112.742 -8.00081)
(2518.92 107.806 -11.4283)
(2523.21 106.485 -12.5465)
(2525.79 108.07 -9.95226)
(2527.21 112.932 -9.98936)
(2525.43 122.306 -6.44081)
(2512.16 132.989 -7.78576)
(2500.04 166.225 -2.04194)
(2366.79 252.12 14.7293)
(-1206.67 411.519 -9.08725)
(-1214.72 461.703 -8.74221)
(-1187.25 500.255 -2.73361)
(-1162.77 382.703 -11.3628)
(2474.26 335.711 -12.6638)
(2539.01 527.384 3.25369)
(2556.8 510.314 -5.76336)
(2567.07 484.766 -21.6618)
(2564.34 460.941 -17.4823)
(2570.62 441.185 0.318442)
(2575.66 420.075 9.82447)
(2576.72 406.307 -1.14646)
(2581.47 388.584 -11.1437)
(2574.7 370.587 -10.7418)
(2562.61 365.58 -0.238581)
(2488.94 402.399 17.6014)
(-1182.54 722.873 -13.3517)
(-1147.71 884.674 -14.5539)
(-1036.62 990.314 -5.45217)
(-1080.74 976.494 -16.1911)
(-699.15 1991.15 -16.9793)
(-243.964 2392.21 -13.8384)
(34.863 2419 -12.8217)
(344.065 2461.2 -12.9998)
(1883.64 1816.5 -13.2741)
(2345.22 1179.27 -31.0987)
(2442.18 1040.77 -41.7851)
(2492.19 954.551 6.95035)
(2531.34 881.139 36.8619)
(2548.5 822.793 15.9697)
(2580.29 766.56 -20.5448)
(2584.41 713.843 -28.898)
(2590.13 674.147 -4.06133)
(2609.14 639.079 10.8263)
(2605.72 598.778 9.7846)
(2559.05 593.024 16.1556)
(-1064.02 963.884 -8.06416)
(-927.009 1170.35 -0.94965)
(-712.561 1244.38 -5.66511)
(-684.175 1810.42 3.56757)
(-496.11 2377.58 -13.8609)
(-132.463 2431.52 -12.7617)
(133.803 2472.24 -10.3548)
(538.67 2509.17 2.96245)
(1184.32 2370.32 -16.4581)
(1755.27 1793.42 -130.051)
(2078.88 1423.41 76.7263)
(2263.11 1318.03 101.102)
(2376.89 1238.58 21.3031)
(2437.37 1139.06 -51.6094)
(2465.94 1059.46 -42.4786)
(2504.43 995.82 1.09937)
(2522.7 922.725 47.0658)
(2545.45 883.197 33.5247)
(2587.63 833.431 -1.37364)
(2577.65 788.184 -0.882227)
(-918.731 1139.78 -13.7307)
(-735.171 1361.41 -10.4417)
(-564.96 1439.3 2.15322)
(-678.19 2000.84 -8.49468)
(-486.95 2398.41 -12.9486)
(-129.022 2437.47 -12.7749)
(128.729 2479.18 -8.51003)
(516.928 2524.21 -6.87956)
(1024.71 2426.07 -44.1828)
(1470.13 2156.02 81.592)
(1751.55 1781.69 171.755)
(2003.87 1579.43 8.69535)
(2208.01 1507.99 -94.2506)
(2270.4 1418.2 -61.4481)
(2312.64 1314.82 32.24)
(2377.59 1243.11 69.1855)
(2432.62 1181.05 36.8736)
(2455.89 1100.76 -5.00678)
(2515.85 1051.58 -19.1161)
(2540.78 975.589 4.15977)
(-786.054 1259.68 -3.04459)
(-602.224 1468.66 3.38518)
(-477.479 1594.1 8.40951)
(-667.42 2107.72 -11.8361)
(-466.788 2414.06 -16.3074)
(-124.99 2437.8 -13.1929)
(123.165 2483.65 -9.76318)
(490.41 2530.79 -20.0589)
(937.13 2466.02 3.69765)
(1326.07 2287.16 96.8032)
(1609.36 2067.89 10.3245)
(1805.48 1834.59 -123.742)
(2024.01 1708.16 -60.5766)
(2126.22 1615.64 70.6847)
(2168.82 1531.48 103.371)
(2224.18 1463.11 47.5117)
(2316.93 1390.58 -41.6145)
(2361.67 1310.9 -33.9626)
(2427.29 1261.1 -5.86316)
(2482.47 1160.76 1.71006)
(-681.074 1344.23 1.40516)
(-520.368 1540.69 12.0688)
(-414.98 1686.59 13.1477)
(-622.798 2143.61 -6.02872)
(-437.161 2422.23 -18.4401)
(-122.326 2434.75 -13.8501)
(118.038 2488.09 -14.1301)
(465.265 2527.41 -13.8143)
(862.665 2494.42 31.4198)
(1230.41 2373.78 14.8471)
(1503.77 2220.21 -84.7698)
(1692.38 2056.64 -49.7282)
(1886.69 1919.5 119.231)
(2008.19 1785.48 153.886)
(2102.31 1705.99 70.5778)
(2145.39 1624.1 -27.3576)
(2226.27 1575.89 -48.9201)
(2267.46 1499.8 11.0559)
(2319.64 1435.7 30.806)
(2402.5 1330.51 15.6618)
(-595.479 1408.84 -1.67499)
(-449.143 1580.75 3.37888)
(-388.643 1758.86 1.92324)
(-559.548 2154.26 4.9462)
(-404.688 2420.35 -14.5198)
(-118.065 2429.99 -13.3656)
(115.107 2490.81 -13.5801)
(444.534 2536.41 -0.604333)
(804.153 2509.26 8.48161)
(1124.89 2418.47 -49.0201)
(1403.03 2257.15 -51.7494)
(1596.48 2109.5 63.655)
(1765.5 2011.74 145.881)
(1901.32 1918.74 64.2479)
(2064.03 1854.41 -38.3781)
(2108.12 1776.15 -44.5844)
(2134.82 1717.8 3.37678)
(2150.89 1618.25 63.6869)
(2187.46 1567.45 51.9739)
(2299.57 1475.08 24.3867)
(-518.318 1421.48 -3.50493)
(-381.28 1568.45 -3.05178)
(-334.849 1786.25 -2.57706)
(-486.83 2140.67 11.6327)
(-368.944 2405.23 -15.3065)
(-109.56 2428.42 -15.6297)
(115.302 2494.27 -11.2591)
(423.452 2542.15 3.47024)
(753.797 2545.94 -20.6628)
(1044.9 2443.21 -32.3877)
(1296.94 2295.43 36.0533)
(1509.77 2143.22 97.205)
(1689.03 2072.95 62.1478)
(1817.18 2056.27 -33.8381)
(1991.2 2016.05 -43.8495)
(2051.16 1920.43 31.2115)
(2068.21 1813.5 95.3269)
(2077.9 1717.85 93.7309)
(2125.01 1698.86 52.0226)
(2238.81 1613.6 20.4923)
(-457.299 1443.77 4.69065)
(-328.522 1531.08 8.71415)
(-297.753 1762.93 4.32083)
(-383.167 2119.41 -0.321018)
(-331.276 2369.55 -3.25306)
(-96.8408 2425.47 -16.9878)
(118.492 2496.36 -11.708)
(407.685 2540.72 -9.08051)
(706.275 2554.31 -24.4589)
(981.213 2480.95 8.80125)
(1229.07 2361.89 68.0395)
(1445.42 2203.89 46.1262)
(1601.09 2112.69 -20.835)
(1744.96 2067.52 -38.3424)
(1891.06 2033.94 23.9039)
(1948.33 1943.58 127.366)
(1989.03 1877.02 134.26)
(2047.97 1814.59 79.7263)
(2098.76 1791.67 48.6627)
(2182.1 1719.6 41.5114)
(-404.937 1463.29 9.40403)
(-300.208 1529.83 16.8093)
(-246.656 1716.14 15.7103)
(-269.043 2048.95 -6.93337)
(-270.125 2323.77 -1.79733)
(-76.5144 2419.27 -5.68674)
(125.692 2495.34 -8.97804)
(389.434 2542.12 -16.2707)
(666.885 2561.13 -1.42929)
(911.059 2501.62 48.2629)
(1169.84 2423.53 36.7576)
(1376.88 2303.5 -34.2879)
(1555.59 2200.69 -35.5731)
(1685.98 2086.31 2.58347)
(1781.95 2016.19 80.4711)
(1865.54 1961.04 130.87)