/*--------------------------------*- C++ -*----------------------------------*\
  =========                 |
  \\      /  F ield         | OpenFOAM: The Open Source CFD Toolbox
   \\    /   O peration     | Website:  https://openfoam.org
    \\  /    A nd           | Version:  9
     \\/     M anipulation  |
\*---------------------------------------------------------------------------*/
FoamFile
{
    format      ascii;
    class       volVectorField;
    location    "0.002";
    object      rhoU;
}
// * * * * * * * * * * * * * * * * * * * * * * * * * * * * * * * * * * * * * //

dimensions      [1 -2 -1 0 0 0 0];

internalField   nonuniform List<vector> 
62500
(
(0 0 0)
(-4.36449e-30 0 0)
(-3.66122e-42 0 0)
(1.72278e-94 0 0)
(0 0 0)
(0 0 0)
(0 0 0)
(0 0 0)
(0 0 0)
(0 0 0)
(0 0 0)
(0 0 0)
(0 0 0)
(0 0 0)
(0 0 0)
(0 0 0)
(0 0 0)
(0 0 0)
(0 0 0)
(0 0 0)
(0 0 0)
(0 0 0)
(0 0 0)
(0 0 0)
(0 0 0)
(0 0 0)
(0 0 0)
(0 0 0)
(0 0 0)
(0 0 0)
(0 0 0)
(0 0 0)
(0 0 0)
(0 0 0)
(0 0 0)
(0 0 0)
(0 0 0)
(0 0 0)
(0 0 0)
(0 0 0)
(0 0 0)
(0 0 0)
(0 0 0)
(0 0 0)
(0 0 0)
(0 0 0)
(0 0 0)
(0 0 0)
(0 0 0)
(0 0 0)
(0 0 0)
(-2.38216e-28 0 0)
(-4.8252e-38 0 0)
(-4.16369e-92 1.31279e-75 0)
(0 3.19089e-64 0)
(0 1.3472e-47 0)
(0 -2.01172e-22 0)
(0 0 0)
(0 1.09025e-48 0)
(0 -3.06925e-22 0)
(0 0 0)
(0 0 8.50573e-15)
(0 0 0)
(0 0 8.50573e-15)
(0 -4.87764e-29 0)
(0 0 0)
(0 0 8.50573e-15)
(0 0 0)
(0 0 1.02666e-14)
(0 -2.03532e-24 0)
(0 0 -2.21804e-14)
(0 1.85146e-36 2.06467e-14)
(0 3.02318e-40 0)
(0 -2.24426e-51 0)
(0 1.73337e-36 2.27486e-14)
(0 0 -2.04195e-14)
(0 0 0)
(0 -2.71724e-45 0)
(0 1.19425e-55 0)
(0 1.38227e-38 2.27486e-14)
(0 0 -2.04195e-14)
(0 0 0)
(0 3.71142e-40 0)
(0 -2.71503e-52 0)
(0 2.42496e-36 2.27486e-14)
(0 0 -2.04195e-14)
(0 0 0)
(0 3.91052e-40 0)
(0 -1.07957e-57 0)
(0 -1.82599e-14 2.64976e-14)
(0 -3.93182e-51 0)
(0 -1.76611e-73 0)
(0 5.38836e-51 0)
(0 -2.19883e-37 0)
(0 -2.37188e-50 0)
(0 -3.93337e-51 0)
(0 -3.99291e-66 0)
(0 -2.31489e-51 0)
(0 -2.19883e-37 0)
(0 -2.38822e-50 0)
(0 0 0)
(-1.82202e-27 0 0)
(-2.8413e-35 0 0)
(8.53597e-90 0 0)
(0 3.84378e-96 0)
(0 0 0)
(0 -9.20682e-26 0)
(0 0 0)
(0 0 0)
(0 -1.68963e-25 0)
(0 0 0)
(0 0 0)
(0 0 0)
(0 0 0)
(0 0 0)
(0 0 0)
(0 0 0)
(0 0 0)
(0 0 0)
(0 0 0)
(0 0 0)
(0 -7.79246e-53 0)
(0 3.30697e-52 0)
(0 0 0)
(0 -4.88575e-53 0)
(0 0 0)
(0 0 0)
(0 0 0)
(0 0 0)
(0 -4.88575e-53 0)
(0 0 0)
(0 0 0)
(0 0 0)
(0 0 0)
(0 -4.88575e-53 0)
(0 0 0)
(0 0 0)
(0 0 0)
(0 0 0)
(0 -8.43263e-15 0)
(0 0 0)
(0 0 0)
(0 0 0)
(0 0 0)
(0 0 0)
(0 0 0)
(0 0 0)
(0 0 0)
(0 0 0)
(0 0 0)
(0 0 0)
(-3.27336e-27 0 0)
(-1.30545e-33 0 0)
(-4.63741e-88 0 0)
(0 0 8.50573e-15)
(0 0 0)
(0 0 0)
(0 0 0)
(0 0 -1.03802e-14)
(0 0 0)
(0 0 0)
(0 0 0)
(0 0 0)
(0 0 0)
(0 0 0)
(0 0 -5.6801e-17)
(0 0 0)
(0 0 0)
(0 0 0)
(0 0 0)
(0 0 -1.53367e-15)
(0 -1.75534e-59 -3.2377e-15)
(0 0 0)
(0 0 -8.40791e-15)
(0 4.34132e-57 -1.61343e-14)
(0 0 -1.34643e-14)
(0 0 -7.15812e-15)
(0 0 0)
(0 0 -8.40791e-15)
(0 4.3555e-57 -1.61343e-14)
(0 0 -1.34643e-14)
(0 0 -7.15812e-15)
(0 0 0)
(0 0 -8.40791e-15)
(0 4.34131e-57 -1.61343e-14)
(0 0 -1.34643e-14)
(0 0 -7.04447e-15)
(0 0 0)
(0 0 -2.38569e-15)
(0 2.48417e-56 -2.10168e-15)
(0 0 0)
(0 0 0)
(0 0 0)
(0 0 0)
(0 0 0)
(0 0 0)
(0 0 0)
(0 0 0)
(0 0 0)
(0 0 0)
(0 0 0)
(-2.99325e-27 0 0)
(-7.08598e-33 0 0)
(-5.79717e-86 0 -8.50573e-15)
(0 0 0)
(0 0 0)
(0 0 0)
(0 0 0)
(0 0 0)
(0 0 0)
(0 0 0)
(0 0 0)
(0 0 0)
(0 0 0)
(0 0 0)
(0 0 -3.55854e-14)
(0 0 -7.95215e-16)
(0 0 0)
(0 0 0)
(0 0 0)
(0 0 -3.67215e-14)
(0 0 -4.17768e-14)
(0 0 -1.28372e-14)
(0 0 -5.13218e-14)
(0 0 -6.11512e-14)
(0 0 -6.11512e-14)
(0 0 -5.08105e-14)
(0 0 -1.31213e-14)
(0 0 -5.14354e-14)
(0 0 -6.11512e-14)
(0 0 -6.11512e-14)
(0 0 -5.08105e-14)
(0 0 -1.31213e-14)
(0 0 -5.14354e-14)
(0 0 -6.11512e-14)
(0 0 -6.11512e-14)
(0 0 -5.05265e-14)
(0 0 -1.23828e-14)
(0 0 -4.1152e-14)
(0 0 -3.79711e-14)
(0 0 -2.84005e-16)
(0 0 0)
(0 0 0)
(0 0 0)
(0 0 0)
(0 0 0)
(0 0 0)
(0 0 0)
(0 0 0)
(0 0 0)
(0 0 0)
(-1.63627e-27 0 0)
(-8.97489e-33 0 0)
(-1.54795e-84 0 0)
(0 0 0)
(0 0 0)
(0 0 2.67812e-14)
(0 0 5.05529e-15)
(0 0 2.72356e-14)
(0 0 2.72356e-14)
(0 0 0)
(0 0 0)
(0 0 0)
(0 0 0)
(0 0 2.5134e-14)
(0 0 -3.85391e-14)
(0 0 -1.47683e-15)
(0 0 0)
(0 0 0)
(0 0 2.72356e-14)
(0 0 0)
(0 0 -2.55609e-15)
(0 0 0)
(0 0 -7.49897e-15)
(0 0 -1.26122e-14)
(0 0 -1.25554e-14)
(0 0 -7.38536e-15)
(0 0 0)
(0 0 -7.55577e-15)
(0 0 -1.26122e-14)
(0 0 -1.25554e-14)
(0 0 -7.38536e-15)
(0 0 0)
(0 0 -7.55577e-15)
(0 0 -1.26122e-14)
(0 0 -1.25554e-14)
(0 0 -7.27168e-15)
(0 0 0)
(0 0 -2.38569e-15)
(0 0 -2.10168e-15)
(0 0 0)
(0 0 2.03059e-14)
(0 0 0)
(0 0 0)
(0 0 0)
(0 0 0)
(0 0 2.03059e-14)
(0 0 0)
(0 0 0)
(0 0 0)
(0 0 0)
(-2.38166e-27 0 0)
(-4.71279e-34 0 0)
(-4.93519e-83 0 0)
(0 0 0)
(0 0 -2.67812e-14)
(0 0 0)
(0 0 0)
(0 0 -2.01355e-14)
(0 0 0)
(0 0 0)
(0 0 0)
(0 0 0)
(0 0 0)
(0 0 2.64404e-14)
(0 0 -2.93941e-14)
(0 0 0)
(0 0 0)
(0 0 0)
(0 0 2.72356e-14)
(0 0 0)
(0 0 0)
(0 0 0)
(0 0 0)
(0 0 0)
(0 0 0)
(0 0 0)
(0 0 0)
(0 0 0)
(0 0 0)
(0 0 0)
(0 0 0)
(0 0 0)
(0 0 0)
(0 0 0)
(0 0 0)
(0 0 0)
(0 0 0)
(0 0 0)
(0 0 0)
(0 0 0)
(0 0 -2.57588e-14)
(0 0 0)
(0 0 0)
(0 0 0)
(0 0 0)
(0 0 -2.57588e-14)
(0 0 0)
(0 0 0)
(0 0 0)
(0 0 0)
(-1.99037e-27 0 0)
(-2.61466e-33 0 0)
(-2.42985e-81 0 0)
(0 0 0)
(0 0 -5.05529e-15)
(0 0 0)
(0 0 0)
(0 0 0)
(0 0 0)
(0 0 0)
(0 0 0)
(0 0 0)
(0 0 0)
(0 0 3.91927e-15)
(0 0 -3.46486e-15)
(0 0 0)
(0 0 0)
(0 0 0)
(0 0 5.1689e-15)
(0 0 0)
(0 0 0)
(0 0 0)
(0 0 0)
(0 0 0)
(0 0 0)
(0 0 0)
(0 0 0)
(0 0 0)
(0 0 0)
(0 0 0)
(0 0 0)
(0 0 0)
(0 0 0)
(0 0 0)
(0 0 0)
(0 0 0)
(0 0 0)
(0 0 0)
(0 0 0)
(0 0 0)
(0 0 -1.56627e-14)
(0 0 0)
(0 0 0)
(0 0 0)
(0 0 0)
(0 0 -1.56627e-14)
(0 0 0)
(0 0 0)
(0 0 0)
(0 0 0)
(-8.68613e-28 0 0)
(-3.62418e-33 0 0)
(-1.09442e-84 0 1.03802e-14)
(0 0 0)
(0 0 -2.72356e-14)
(0 0 2.01355e-14)
(0 0 0)
(0 0 0)
(0 0 2.55316e-14)
(0 0 0)
(0 0 0)
(0 0 0)
(0 0 0)
(0 0 2.64972e-14)
(0 0 -2.63268e-14)
(0 0 0)
(0 0 0)
(0 0 0)
(0 0 2.72356e-14)
(0 0 0)
(0 0 0)
(0 0 0)
(0 0 0)
(0 0 0)
(0 0 0)
(0 0 0)
(0 0 0)
(0 0 0)
(0 0 0)
(0 0 0)
(0 0 0)
(0 0 0)
(0 0 0)
(0 0 0)
(0 0 0)
(0 0 0)
(0 0 0)
(0 0 0)
(0 0 0)
(0 0 0)
(0 0 -2.72645e-15)
(0 0 0)
(0 0 2.60996e-14)
(0 0 0)
(0 0 0)
(0 0 -2.72645e-15)
(0 0 0)
(0 0 2.60996e-14)
(0 0 0)
(0 0 0)
(-7.37367e-26 0 0)
(-8.25669e-51 0 0)
(1.1508e-95 0 0)
(0 0 0)
(0 0 -2.72356e-14)
(0 0 0)
(0 0 0)
(0 0 -2.55316e-14)
(0 0 0)
(0 0 0)
(0 0 0)
(0 0 0)
(0 0 0)
(0 0 2.5702e-14)
(0 0 -2.5702e-14)
(0 0 0)
(0 0 0)
(0 0 0)
(0 0 2.72356e-14)
(0 0 0)
(0 0 0)
(0 0 0)
(0 0 0)
(0 0 0)
(0 0 0)
(0 0 0)
(0 0 0)
(0 0 0)
(0 0 0)
(0 0 0)
(0 0 0)
(0 0 0)
(0 0 0)
(0 0 0)
(0 0 0)
(0 0 0)
(0 0 0)
(0 0 0)
(0 0 0)
(0 0 0)
(0 0 -3.23477e-14)
(0 0 0)
(0 0 0)
(0 0 0)
(0 0 0)
(0 0 -3.23477e-14)
(0 0 0)
(0 0 0)
(0 0 0)
(0 0 0)
(-7.77606e-24 0 0)
(-2.20551e-49 0 0)
(-1.97108e-93 0 0)
(0 0 0)
(0 0 0)
(0 0 0)
(0 0 0)
(0 0 0)
(0 0 0)
(0 0 0)
(0 0 0)
(0 0 0)
(0 0 0)
(0 0 0)
(0 0 0)
(0 0 0)
(0 0 0)
(0 0 0)
(0 0 0)
(0 0 0)
(0 0 0)
(0 0 0)
(0 0 0)
(0 0 0)
(0 0 0)
(0 0 0)
(0 0 0)
(0 0 0)
(0 0 0)
(0 0 0)
(0 0 0)
(0 0 0)
(0 0 0)
(0 0 0)
(0 0 0)
(0 0 0)
(0 0 0)
(0 0 0)
(0 0 0)
(0 0 0)
(0 0 -1.64011e-14)
(0 0 0)
(0 0 0)
(0 0 0)
(0 0 0)
(0 0 -1.64011e-14)
(0 0 0)
(0 0 0)
(0 0 0)
(0 0 0)
(-7.33511e-23 0 -8.50573e-15)
(-5.89577e-48 0 0)
(3.47057e-91 0 0)
(0 0 0)
(0 0 0)
(0 0 0)
(0 0 0)
(0 0 0)
(0 0 0)
(0 0 0)
(0 0 0)
(0 0 0)
(0 0 0)
(0 0 0)
(0 0 0)
(0 0 0)
(0 0 0)
(0 0 0)
(0 0 0)
(0 0 -2.05899e-14)
(0 0 2.72356e-14)
(0 0 2.71788e-14)
(0 0 3.63527e-15)
(0 0 2.12147e-14)
(0 0 -2.40548e-14)
(0 0 0)
(0 0 2.71788e-14)
(0 0 3.63527e-15)
(0 0 2.11579e-14)
(0 0 -2.40548e-14)
(0 0 0)
(0 0 2.71788e-14)
(0 0 3.63527e-15)
(0 0 2.11579e-14)
(0 0 -2.40548e-14)
(0 0 0)
(0 0 2.71788e-14)
(0 0 5.1689e-15)
(0 0 2.72356e-14)
(0 0 2.71788e-14)
(0 0 9.08817e-16)
(0 0 2.71788e-14)
(0 0 5.1689e-15)
(0 0 2.71788e-14)
(0 0 2.71788e-14)
(0 0 9.08817e-16)
(0 0 2.71788e-14)
(0 0 5.1689e-15)
(0 0 2.71788e-14)
(0 0 0)
(-5.87501e-22 0 0)
(-1.16335e-46 0 0)
(-6.61883e-89 0 0)
(0 0 0)
(0 0 0)
(0 0 0)
(0 0 0)
(0 0 0)
(0 0 0)
(0 0 0)
(0 0 0)
(0 0 0)
(0 0 0)
(0 0 0)
(0 0 0)
(0 0 0)
(0 0 0)
(0 0 0)
(0 0 0)
(0 0 -5.6801e-16)
(0 0 6.70252e-15)
(0 0 6.87293e-15)
(0 0 0)
(0 0 3.01046e-15)
(0 0 -2.61285e-15)
(0 0 0)
(0 0 5.5665e-15)
(0 0 0)
(0 0 2.95365e-15)
(0 0 -2.66965e-15)
(0 0 0)
(0 0 5.5665e-15)
(0 0 0)
(0 0 2.95365e-15)
(0 0 -2.66965e-15)
(0 0 0)
(0 0 5.5665e-15)
(0 0 0)
(0 0 6.75932e-15)
(0 0 4.60088e-15)
(0 0 -9.01694e-15)
(0 0 2.61285e-15)
(0 0 0)
(0 0 6.75932e-15)
(0 0 4.60088e-15)
(0 0 -8.96014e-15)
(0 0 2.61285e-15)
(0 0 0)
(0 0 6.87293e-15)
(0 0 0)
(-3.9268e-21 0 -8.50573e-15)
(-1.25351e-44 0 0)
(4.60965e-87 0 0)
(0 0 0)
(0 0 0)
(0 0 0)
(0 0 0)
(0 0 0)
(0 0 0)
(0 0 0)
(0 0 0)
(0 0 0)
(0 0 0)
(0 0 0)
(0 0 0)
(0 0 0)
(0 0 0)
(0 0 0)
(0 0 0)
(0 0 -1.85451e-14)
(0 0 2.72356e-14)
(0 0 2.71788e-14)
(0 0 9.20177e-15)
(0 0 2.72356e-14)
(0 0 -2.11011e-14)
(0 0 0)
(0 0 2.72356e-14)
(0 0 9.03137e-15)
(0 0 2.72356e-14)
(0 0 -2.11011e-14)
(0 0 0)
(0 0 2.72356e-14)
(0 0 9.03137e-15)
(0 0 2.72356e-14)
(0 0 -2.11011e-14)
(0 0 0)
(0 0 2.72356e-14)
(0 0 9.14497e-15)
(0 0 2.72356e-14)
(0 0 2.71788e-14)
(0 0 0)
(0 0 2.60996e-14)
(0 0 0)
(0 0 2.71788e-14)
(0 0 2.71788e-14)
(0 0 0)
(0 0 2.60996e-14)
(0 0 0)
(0 0 2.71788e-14)
(0 0 0)
(-2.29174e-22 0 0)
(-5.98525e-42 0 0)
(-5.64871e-85 0 0)
(0 0 0)
(0 0 -2.53044e-14)
(0 0 -2.64404e-14)
(0 0 -3.86247e-15)
(0 0 -2.64972e-14)
(0 0 -2.5702e-14)
(0 0 0)
(0 0 0)
(0 0 0)
(0 0 0)
(0 0 0)
(0 0 8.50573e-15)
(0 0 0)
(0 0 0)
(0 0 0)
(0 0 0)
(0 0 6.8585e-15)
(0 0 1.79347e-14)
(0 0 6.19131e-15)
(0 0 1.62875e-14)
(0 0 2.00931e-14)
(0 0 8.61933e-15)
(0 0 8.78973e-15)
(0 0 3.57847e-15)
(0 0 1.54923e-14)
(0 0 2.00363e-14)
(0 0 8.61933e-15)
(0 0 8.78973e-15)
(0 0 3.57847e-15)
(0 0 1.54923e-14)
(0 0 2.00363e-14)
(0 0 8.61933e-15)
(0 0 8.78973e-15)
(0 0 3.57847e-15)
(0 0 1.60603e-14)
(0 0 2.19108e-14)
(0 0 0)
(0 0 -4.00583e-14)
(0 0 -1.93124e-15)
(0 0 -2.72924e-14)
(0 0 0)
(0 0 0)
(0 0 -3.62526e-14)
(0 0 -7.38414e-16)
(0 0 -2.70084e-14)
(0 0 0)
(0 0 0)
(-2.02673e-22 0 0)
(-1.50092e-40 0 0)
(-3.41272e-86 0 0)
(0 0 2.72356e-14)
(0 0 2.72356e-14)
(0 0 2.66108e-14)
(0 0 3.69207e-15)
(0 0 2.63836e-14)
(0 0 2.5702e-14)
(0 0 0)
(0 0 0)
(0 0 0)
(0 0 0)
(0 0 -8.50573e-15)
(0 0 0)
(0 0 0)
(0 0 0)
(0 0 0)
(0 0 -1.48106e-14)
(0 0 -2.13428e-14)
(0 0 -6.8585e-15)
(0 0 0)
(0 0 -8.50573e-15)
(0 0 -8.56253e-15)
(0 0 -1.92979e-14)
(0 0 -1.11754e-14)
(0 0 0)
(0 0 -8.50573e-15)
(0 0 -8.56253e-15)
(0 0 -1.92979e-14)
(0 0 -1.11754e-14)
(0 0 0)
(0 0 -8.50573e-15)
(0 0 -8.56253e-15)
(0 0 -1.92979e-14)
(0 0 -1.11754e-14)
(0 0 0)
(0 0 -8.50573e-15)
(0 0 -7.82412e-15)
(0 0 3.01046e-15)
(0 0 2.59292e-14)
(0 0 4.71449e-15)
(0 0 0)
(0 0 0)
(0 0 4.71449e-15)
(0 0 2.55884e-14)
(0 0 4.65769e-15)
(0 0 0)
(0 0 0)
(0 0 0)
(-4.99036e-22 0 -8.50573e-15)
(2.85748e-39 0 0)
(9.71025e-86 0 0)
(0 0 0)
(0 0 0)
(0 0 0)
(0 0 0)
(0 0 0)
(0 0 0)
(0 0 0)
(0 0 0)
(0 0 0)
(0 0 0)
(0 0 0)
(0 0 0)
(0 0 0)
(0 0 0)
(0 0 0)
(0 0 -2.04484e-15)
(0 0 -2.72356e-14)
(0 0 2.56452e-14)
(0 0 2.71788e-14)
(0 0 8.52016e-16)
(0 0 1.84315e-14)
(0 0 -2.72356e-14)
(0 0 0)
(0 0 2.71788e-14)
(0 0 8.52016e-16)
(0 0 1.84315e-14)
(0 0 -2.72356e-14)
(0 0 0)
(0 0 2.71788e-14)
(0 0 8.52016e-16)
(0 0 1.84315e-14)
(0 0 -2.72356e-14)
(0 0 0)
(0 0 2.71788e-14)
(0 0 3.01046e-15)
(0 0 2.72356e-14)
(0 0 2.71788e-14)
(0 0 9.14497e-15)
(0 0 2.71788e-14)
(0 0 6.47532e-15)
(0 0 2.71788e-14)
(0 0 2.71788e-14)
(0 0 9.03137e-15)
(0 0 2.71788e-14)
(0 0 6.47532e-15)
(0 0 2.71788e-14)
(0 0 0)
(-4.7412e-21 0 0)
(5.06758e-38 0 0)
(0 0 0)
(0 0 0)
(0 0 0)
(0 0 0)
(0 0 0)
(0 0 0)
(0 0 0)
(0 0 0)
(0 0 0)
(0 0 0)
(0 0 0)
(0 0 0)
(0 0 0)
(0 0 0)
(0 0 0)
(0 0 0)
(0 0 0)
(0 0 -1.59043e-15)
(0 0 6.13451e-15)
(0 0 6.81613e-15)
(0 0 0)
(0 0 2.04484e-15)
(0 0 -3.63527e-15)
(0 0 0)
(0 0 5.6801e-15)
(0 0 0)
(0 0 2.04484e-15)
(0 0 -3.63527e-15)
(0 0 0)
(0 0 5.6801e-15)
(0 0 0)
(0 0 2.04484e-15)
(0 0 -3.63527e-15)
(0 0 0)
(0 0 5.6801e-15)
(0 0 0)
(0 0 6.75932e-15)
(0 0 4.37368e-15)
(0 0 -9.98256e-15)
(0 0 2.32884e-15)
(0 0 0)
(0 0 6.75932e-15)
(0 0 4.37368e-15)
(0 0 -9.98256e-15)
(0 0 2.32884e-15)
(0 0 0)
(0 0 6.87293e-15)
(0 0 0)
(-4.00775e-20 0 -1.02666e-14)
(1.24785e-36 0 0)
(0 0 0)
(0 0 0)
(0 0 -1.07922e-15)
(0 0 -2.04484e-15)
(0 0 0)
(0 0 -2.15844e-15)
(0 0 -1.42003e-15)
(0 0 0)
(0 0 0)
(0 0 0)
(0 0 0)
(0 0 0)
(0 0 0)
(0 0 0)
(0 0 0)
(0 0 0)
(0 0 0)
(0 0 -1.84883e-14)
(0 0 2.72356e-14)
(0 0 2.71788e-14)
(0 0 1.0281e-14)
(0 0 2.72356e-14)
(0 0 -2.07603e-14)
(0 0 0)
(0 0 2.72356e-14)
(0 0 1.01106e-14)
(0 0 2.72356e-14)
(0 0 -2.07603e-14)
(0 0 0)
(0 0 2.72356e-14)
(0 0 1.01106e-14)
(0 0 2.72356e-14)
(0 0 -2.07603e-14)
(0 0 0)
(0 0 2.72356e-14)
(0 0 1.01674e-14)
(0 0 2.72356e-14)
(0 0 2.71788e-14)
(0 0 0)
(0 0 2.5986e-14)
(0 0 0)
(0 0 2.71788e-14)
(0 0 2.71788e-14)
(0 0 0)
(0 0 2.5986e-14)
(0 0 0)
(0 0 2.71788e-14)
(0 0 0)
(-6.55836e-19 0 0)
(-1.51725e-33 0 0)
(0 0 0)
(0 0 0)
(0 0 -3.61534e-14)
(0 0 -4.05271e-14)
(0 0 -1.18146e-14)
(0 0 -4.06975e-14)
(0 0 -3.73462e-14)
(0 0 -1.13602e-16)
(0 0 0)
(0 0 0)
(0 0 0)
(0 0 0)
(0 0 1.48106e-14)
(0 0 2.04484e-15)
(0 0 0)
(0 0 0)
(0 0 0)
(0 0 9.13054e-15)
(0 0 2.08884e-14)
(0 0 8.00895e-15)
(0 0 2.04339e-14)
(0 0 2.43532e-14)
(0 0 1.2709e-14)
(0 0 1.31066e-14)
(0 0 5.73691e-15)
(0 0 1.98091e-14)
(0 0 2.42964e-14)
(0 0 1.2709e-14)
(0 0 1.31066e-14)
(0 0 5.73691e-15)
(0 0 1.98091e-14)
(0 0 2.42964e-14)
(0 0 1.2709e-14)
(0 0 1.31066e-14)
(0 0 5.73691e-15)
(0 0 2.00363e-14)
(0 0 2.5262e-14)
(0 0 0)
(0 0 -4.23871e-14)
(0 0 -2.44244e-15)
(0 0 -2.72356e-14)
(0 0 0)
(0 0 0)
(0 0 -3.80702e-14)
(0 0 -1.30642e-15)
(0 0 -2.69516e-14)
(0 0 0)
(0 0 0)
(-5.53431e-18 0 2.21804e-14)
(-7.43733e-29 0 0)
(0 0 0)
(0 0 2.72356e-14)
(0 0 0)
(0 0 -2.15844e-15)
(0 0 0)
(0 0 -2.27204e-15)
(0 0 -1.87443e-15)
(0 0 0)
(0 0 2.26348e-14)
(0 0 1.47683e-15)
(0 0 2.14419e-14)
(0 0 -6.8585e-15)
(0 0 2.13428e-14)
(0 0 2.72356e-14)
(0 0 2.66965e-15)
(0 0 2.12148e-14)
(0 0 -9.30094e-15)
(0 0 0)
(0 0 0)
(0 0 0)
(0 0 0)
(0 0 0)
(0 0 0)
(0 0 0)
(0 0 0)
(0 0 0)
(0 0 0)
(0 0 0)
(0 0 0)
(0 0 0)
(0 0 0)
(0 0 0)
(0 0 0)
(0 0 0)
(0 0 0)
(0 0 0)
(0 0 0)
(0 0 0)
(0 0 1.86587e-14)
(0 0 0)
(0 0 -4.43048e-15)
(0 0 0)
(0 0 0)
(0 0 1.88859e-14)
(0 0 0)
(0 0 -4.37368e-15)
(0 0 0)
(0 0 0)
(-3.27931e-17 0 -2.03627e-14)
(-3.38838e-24 0 0)
(0 0 0)
(0 0 2.72356e-14)
(0 0 0)
(0 0 0)
(0 0 0)
(0 0 0)
(0 0 0)
(0 0 0)
(0 0 -2.72356e-14)
(0 0 -9.82658e-15)
(0 0 -2.72356e-14)
(0 0 -2.00931e-14)
(0 0 6.8585e-15)
(0 0 -2.72356e-14)
(0 0 -9.20181e-15)
(0 0 -2.72356e-14)
(0 0 -2.32172e-14)
(0 0 0)
(0 0 0)
(0 0 0)
(0 0 0)
(0 0 0)
(0 0 0)
(0 0 0)
(0 0 0)
(0 0 0)
(0 0 0)
(0 0 0)
(0 0 0)
(0 0 0)
(0 0 0)
(0 0 0)
(0 0 0)
(0 0 0)
(0 0 0)
(0 0 0)
(0 0 0)
(0 0 0)
(0 0 0)
(0 0 0)
(0 0 -2.08739e-14)
(0 0 0)
(0 0 0)
(0 0 0)
(0 0 0)
(0 0 -2.08739e-14)
(0 0 0)
(0 0 0)
(-1.80375e-16 0 0)
(-2.61211e-20 0 0)
(0 0 0)
(0 0 5.1689e-15)
(0 0 0)
(0 0 0)
(0 0 0)
(0 0 0)
(0 0 0)
(0 0 -2.55605e-15)
(0 0 -4.40488e-14)
(0 0 -2.0278e-14)
(0 0 -5.20009e-14)
(0 0 -1.44843e-14)
(0 0 -1.70446e-16)
(0 0 -4.09816e-14)
(0 0 -1.89149e-14)
(0 0 -5.26828e-14)
(0 0 -1.6586e-14)
(0 0 0)
(0 0 0)
(0 0 0)
(0 0 0)
(0 0 0)
(0 0 0)
(0 0 0)
(0 0 0)
(0 0 0)
(0 0 0)
(0 0 0)
(0 0 0)
(0 0 0)
(0 0 0)
(0 0 0)
(0 0 0)
(0 0 0)
(0 0 0)
(0 0 0)
(0 0 0)
(0 0 0)
(0 0 0)
(0 0 0)
(0 0 2.36004e-14)
(0 0 0)
(0 0 0)
(0 0 0)
(0 0 0)
(0 0 2.36004e-14)
(0 0 0)
(0 0 0)
(-2.62231e-15 0 0)
(-9.64224e-18 0 0)
(0 0 0)
(0 0 2.72356e-14)
(0 0 0)
(0 0 0)
(0 0 0)
(0 0 0)
(0 0 0)
(0 0 0)
(0 0 -9.20177e-15)
(0 0 -3.74887e-15)
(0 0 -1.72675e-14)
(0 0 -1.99795e-14)
(0 0 8.50573e-15)
(0 0 -4.60093e-15)
(0 0 -1.30651e-15)
(0 0 -1.79492e-14)
(0 0 -2.45237e-14)
(0 0 0)
(0 0 0)
(0 0 0)
(0 0 0)
(0 0 0)
(0 0 0)
(0 0 0)
(0 0 0)
(0 0 0)
(0 0 0)
(0 0 0)
(0 0 0)
(0 0 0)
(0 0 0)
(0 0 0)
(0 0 0)
(0 0 0)
(0 0 0)
(0 0 0)
(0 0 0)
(0 0 0)
(0 0 2.7122e-14)
(0 0 0)
(0 0 0)
(0 0 0)
(0 0 0)
(0 0 2.7122e-14)
(0 0 0)
(0 0 0)
(0 0 0)
(0 0 0)
(-7.61896e-15 0 -2.05332e-14)
(-2.69117e-16 0 0)
(0 0 0)
(0 0 2.72356e-14)
(0 0 0)
(0 0 0)
(0 0 0)
(0 0 0)
(0 0 0)
(0 0 0)
(0 0 -2.28052e-14)
(0 0 -4.31688e-15)
(0 0 -2.72356e-14)
(0 0 -2.04339e-14)
(0 0 8.56253e-15)
(0 0 -1.84315e-14)
(0 0 -2.32884e-15)
(0 0 -2.72356e-14)
(0 0 -2.47508e-14)
(0 0 0)
(0 0 0)
(0 0 0)
(0 0 0)
(0 0 0)
(0 0 0)
(0 0 0)
(0 0 0)
(0 0 0)
(0 0 0)
(0 0 0)
(0 0 0)
(0 0 0)
(0 0 0)
(0 0 0)
(0 0 0)
(0 0 0)
(0 0 0)
(0 0 0)
(0 0 0)
(0 0 0)
(0 0 6.47532e-15)
(0 0 0)
(0 0 -3.01325e-14)
(0 0 0)
(0 0 0)
(0 0 6.47532e-15)
(0 0 0)
(0 0 -3.01325e-14)
(0 0 0)
(0 0 0)
(-1.17787e-14 0 2.04764e-14)
(-9.78673e-16 0 0)
(0 0 0)
(0 0 2.72356e-14)
(0 0 0)
(0 0 0)
(0 0 0)
(0 0 0)
(0 0 0)
(0 0 0)
(0 0 2.42252e-14)
(0 0 2.61285e-15)
(0 0 2.11011e-14)
(0 0 -8.61933e-15)
(0 0 1.92979e-14)
(0 0 2.72356e-14)
(0 0 3.69207e-15)
(0 0 2.07603e-14)
(0 0 -1.30498e-14)
(0 0 0)
(0 0 0)
(0 0 0)
(0 0 0)
(0 0 0)
(0 0 0)
(0 0 0)
(0 0 0)
(0 0 0)
(0 0 0)
(0 0 0)
(0 0 0)
(0 0 0)
(0 0 0)
(0 0 0)
(0 0 0)
(0 0 0)
(0 0 0)
(0 0 0)
(0 0 0)
(0 0 0)
(0 0 2.71788e-14)
(0 0 0)
(0 0 0)
(0 0 0)
(0 0 0)
(0 0 2.71788e-14)
(0 0 0)
(0 0 0)
(0 0 0)
(0 0 0)
(-2.31623e-18 0 0)
(-3.53903e-24 0 0)
(0 0 0)
(0 0 2.72356e-14)
(0 0 0)
(0 0 0)
(0 0 0)
(0 0 0)
(0 0 0)
(0 0 0)
(0 0 0)
(0 0 0)
(0 0 0)
(0 0 -9.64175e-15)
(0 0 1.11754e-14)
(0 0 0)
(0 0 0)
(0 0 0)
(0 0 -1.41858e-14)
(0 0 0)
(0 0 0)
(0 0 0)
(0 0 0)
(0 0 0)
(0 0 0)
(0 0 0)
(0 0 0)
(0 0 0)
(0 0 0)
(0 0 0)
(0 0 0)
(0 0 0)
(0 0 0)
(0 0 0)
(0 0 0)
(0 0 0)
(0 0 0)
(0 0 0)
(0 0 0)
(0 0 0)
(0 0 2.71788e-14)
(0 0 0)
(0 0 0)
(0 0 0)
(0 0 0)
(0 0 2.71788e-14)
(0 0 0)
(0 0 0)
(0 0 0)
(0 0 0)
(-1.764e-16 0 0)
(-2.61029e-20 0 0)
(0 0 0)
(0 0 5.1689e-15)
(0 0 0)
(0 0 0)
(0 0 0)
(0 0 0)
(0 0 0)
(0 0 0)
(0 0 -3.26317e-14)
(0 0 -9.54258e-15)
(0 0 -3.7403e-14)
(0 0 -6.92973e-15)
(0 0 0)
(0 0 -3.21773e-14)
(0 0 -9.99698e-15)
(0 0 -3.90503e-14)
(0 0 -9.71298e-15)
(0 0 0)
(0 0 0)
(0 0 0)
(0 0 0)
(0 0 0)
(0 0 0)
(0 0 0)
(0 0 0)
(0 0 0)
(0 0 0)
(0 0 0)
(0 0 0)
(0 0 0)
(0 0 0)
(0 0 0)
(0 0 0)
(0 0 0)
(0 0 0)
(0 0 0)
(0 0 0)
(0 0 0)
(0 0 5.1689e-15)
(0 0 0)
(0 0 2.72356e-14)
(0 0 0)
(0 0 0)
(0 0 5.1689e-15)
(0 0 0)
(0 0 2.72356e-14)
(0 0 0)
(0 0 0)
(-2.62232e-15 0 0)
(-9.63868e-18 0 0)
(0 0 0)
(0 0 2.72356e-14)
(0 0 0)
(0 0 0)
(0 0 0)
(0 0 0)
(0 0 0)
(0 0 0)
(0 0 -5.05529e-15)
(0 0 0)
(0 0 -1.19282e-14)
(0 0 -1.70259e-14)
(0 0 8.50573e-15)
(0 0 -2.04484e-15)
(0 0 0)
(0 0 -1.35186e-14)
(0 0 -2.17404e-14)
(0 0 0)
(0 0 0)
(0 0 0)
(0 0 0)
(0 0 0)
(0 0 0)
(0 0 0)
(0 0 0)
(0 0 0)
(0 0 0)
(0 0 0)
(0 0 0)
(0 0 0)
(0 0 0)
(0 0 0)
(0 0 0)
(0 0 0)
(0 0 0)
(0 0 0)
(0 0 0)
(0 0 0)
(0 0 2.71788e-14)
(0 0 0)
(0 0 0)
(0 0 0)
(0 0 0)
(0 0 2.71788e-14)
(0 0 0)
(0 0 0)
(0 0 0)
(0 0 0)
(-7.61877e-15 0 -2.05332e-14)
(-2.69057e-16 0 0)
(0 0 0)
(0 0 2.72356e-14)
(0 0 0)
(0 0 0)
(0 0 0)
(0 0 0)
(0 0 0)
(0 0 0)
(0 0 -2.14419e-14)
(0 0 -3.01046e-15)
(0 0 -2.72356e-14)
(0 0 -2.02067e-14)
(0 0 8.56253e-15)
(0 0 -1.84315e-14)
(0 0 -2.04484e-15)
(0 0 -2.72356e-14)
(0 0 -2.45804e-14)
(0 0 0)
(0 0 0)
(0 0 0)
(0 0 0)
(0 0 0)
(0 0 0)
(0 0 0)
(0 0 0)
(0 0 0)
(0 0 0)
(0 0 0)
(0 0 0)
(0 0 0)
(0 0 0)
(0 0 0)
(0 0 0)
(0 0 0)
(0 0 0)
(0 0 0)
(0 0 0)
(0 0 0)
(0 0 6.47532e-15)
(0 0 0)
(0 0 -3.04165e-14)
(0 0 0)
(0 0 0)
(0 0 6.47532e-15)
(0 0 0)
(0 0 -3.04165e-14)
(0 0 0)
(0 0 0)
(-1.17788e-14 0 2.04764e-14)
(-9.78454e-16 0 0)
(0 0 0)
(0 0 2.72356e-14)
(0 0 0)
(0 0 0)
(0 0 0)
(0 0 0)
(0 0 0)
(0 0 0)
(0 0 2.4282e-14)
(0 0 2.66965e-15)
(0 0 2.11011e-14)
(0 0 -8.61933e-15)
(0 0 1.92979e-14)
(0 0 2.72356e-14)
(0 0 3.69207e-15)
(0 0 2.07603e-14)
(0 0 -1.30498e-14)
(0 0 0)
(0 0 0)
(0 0 0)
(0 0 0)
(0 0 0)
(0 0 0)
(0 0 0)
(0 0 0)
(0 0 0)
(0 0 0)
(0 0 0)
(0 0 0)
(0 0 0)
(0 0 0)
(0 0 0)
(0 0 0)
(0 0 0)
(0 0 0)
(0 0 0)
(0 0 0)
(0 0 0)
(0 0 2.71788e-14)
(0 0 0)
(0 0 0)
(0 0 0)
(0 0 0)
(0 0 2.71788e-14)
(0 0 0)
(0 0 0)
(0 0 0)
(0 0 0)
(-2.31545e-18 0 0)
(-3.54165e-24 0 0)
(0 0 0)
(0 0 2.72356e-14)
(0 0 0)
(0 0 0)
(0 0 0)
(0 0 0)
(0 0 0)
(0 0 0)
(0 0 0)
(0 0 0)
(0 0 0)
(0 0 -9.64175e-15)
(0 0 1.11754e-14)
(0 0 0)
(0 0 0)
(0 0 0)
(0 0 -1.41858e-14)
(0 0 0)
(0 0 0)
(0 0 0)
(0 0 0)
(0 0 0)
(0 0 0)
(0 0 0)
(0 0 0)
(0 0 0)
(0 0 0)
(0 0 0)
(0 0 0)
(0 0 0)
(0 0 0)
(0 0 0)
(0 0 0)
(0 0 0)
(0 0 0)
(0 0 0)
(0 0 0)
(0 0 0)
(0 0 2.71788e-14)
(0 0 0)
(0 0 0)
(0 0 0)
(0 0 0)
(0 0 2.71788e-14)
(0 0 0)
(0 0 0)
(0 0 0)
(0 0 0)
(-1.76397e-16 0 0)
(-2.61149e-20 0 0)
(0 0 0)
(0 0 5.1689e-15)
(0 0 0)
(0 0 0)
(0 0 0)
(0 0 0)
(0 0 0)
(0 0 0)
(0 0 -3.26317e-14)
(0 0 -9.54258e-15)
(0 0 -3.7403e-14)
(0 0 -6.92973e-15)
(0 0 0)
(0 0 -3.21773e-14)
(0 0 -9.99698e-15)
(0 0 -3.90503e-14)
(0 0 -9.71298e-15)
(0 0 0)
(0 0 0)
(0 0 0)
(0 0 0)
(0 0 0)
(0 0 0)
(0 0 0)
(0 0 0)
(0 0 0)
(0 0 0)
(0 0 0)
(0 0 0)
(0 0 0)
(0 0 0)
(0 0 0)
(0 0 0)
(0 0 0)
(0 0 0)
(0 0 0)
(0 0 0)
(0 0 0)
(0 0 5.1689e-15)
(0 0 0)
(0 0 2.72356e-14)
(0 0 0)
(0 0 0)
(0 0 5.1689e-15)
(0 0 0)
(0 0 2.72356e-14)
(0 0 0)
(0 0 0)
(-2.62232e-15 0 0)
(-9.64136e-18 0 0)
(0 0 0)
(0 0 2.72356e-14)
(0 0 0)
(0 0 0)
(0 0 0)
(0 0 0)
(0 0 0)
(0 0 0)
(0 0 -5.05529e-15)
(0 0 0)
(0 0 -1.19282e-14)
(0 0 -1.70259e-14)
(0 0 8.50573e-15)
(0 0 -2.04484e-15)
(0 0 0)
(0 0 -1.35186e-14)
(0 0 -2.17404e-14)
(0 0 0)
(0 0 0)
(0 0 0)
(0 0 0)
(0 0 0)
(0 0 0)
(0 0 0)
(0 0 0)
(0 0 0)
(0 0 0)
(0 0 0)
(0 0 0)
(0 0 0)
(0 0 0)
(0 0 0)
(0 0 0)
(0 0 0)
(0 0 0)
(0 0 0)
(0 0 0)
(0 0 0)
(0 0 2.71788e-14)
(0 0 0)
(0 0 0)
(0 0 0)
(0 0 0)
(0 0 2.71788e-14)
(0 0 0)
(0 0 0)
(0 0 0)
(0 0 0)
(-7.61875e-15 0 -2.05332e-14)
(-2.69112e-16 0 0)
(0 0 0)
(0 0 2.72356e-14)
(0 0 0)
(0 0 0)
(0 0 0)
(0 0 0)
(0 0 0)
(0 0 0)
(0 0 -2.14419e-14)
(0 0 -3.01046e-15)
(0 0 -2.72356e-14)
(0 0 -2.02067e-14)
(0 0 8.56253e-15)
(0 0 -1.84315e-14)
(0 0 -2.04484e-15)
(0 0 -2.72356e-14)
(0 0 -2.45804e-14)
(0 0 0)
(0 0 0)
(0 0 0)
(0 0 0)
(0 0 0)
(0 0 0)
(0 0 0)
(0 0 0)
(0 0 0)
(0 0 0)
(0 0 0)
(0 0 0)
(0 0 0)
(0 0 0)
(0 0 0)
(0 0 0)
(0 0 0)
(0 0 0)
(0 0 0)
(0 0 0)
(0 0 0)
(0 0 6.47532e-15)
(0 0 0)
(0 0 -3.04165e-14)
(0 0 0)
(0 0 0)
(0 0 6.47532e-15)
(0 0 0)
(0 0 -3.04165e-14)
(0 0 0)
(0 0 0)
(-1.17785e-14 0 2.04764e-14)
(-9.78673e-16 0 0)
(0 0 0)
(0 0 2.72356e-14)
(0 0 0)
(0 0 0)
(0 0 0)
(0 0 0)
(0 0 0)
(0 0 0)
(0 0 2.4282e-14)
(0 0 2.66965e-15)
(0 0 2.11011e-14)
(0 0 -8.61933e-15)
(0 0 1.92979e-14)
(0 0 2.72356e-14)
(0 0 3.69207e-15)
(0 0 2.07603e-14)
(0 0 -1.30498e-14)
(0 0 0)
(0 0 0)
(0 0 0)
(0 0 0)
(0 0 0)
(0 0 0)
(0 0 0)
(0 0 0)
(0 0 0)
(0 0 0)
(0 0 0)
(0 0 0)
(0 0 0)
(0 0 0)
(0 0 0)
(0 0 0)
(0 0 0)
(0 0 0)
(0 0 0)
(0 0 0)
(0 0 0)
(0 0 2.71788e-14)
(0 0 0)
(0 0 0)
(0 0 0)
(0 0 0)
(0 0 2.71788e-14)
(0 0 0)
(0 0 0)
(0 0 0)
(0 0 0)
(-6.13398e-20 0 0)
(0 0 0)
(0 0 0)
(0 0 2.72356e-14)
(0 0 0)
(0 0 0)
(0 0 0)
(0 0 0)
(0 0 0)
(0 0 0)
(0 0 0)
(0 0 0)
(0 0 0)
(0 0 -9.58495e-15)
(0 0 1.11754e-14)
(0 0 0)
(0 0 0)
(0 0 0)
(0 0 -1.41858e-14)
(0 0 0)
(0 0 0)
(0 0 0)
(0 0 0)
(0 0 0)
(0 0 0)
(0 0 0)
(0 0 0)
(0 0 0)
(0 0 0)
(0 0 0)
(0 0 0)
(0 0 0)
(0 0 0)
(0 0 0)
(0 0 0)
(0 0 0)
(0 0 0)
(0 0 0)
(0 0 0)
(0 0 0)
(0 0 2.71788e-14)
(0 0 0)
(0 0 0)
(0 0 0)
(0 0 0)
(0 0 2.71788e-14)
(0 0 0)
(0 0 0)
(0 0 0)
(0 0 0)
(-6.82046e-21 0 0)
(0 0 0)
(0 0 0)
(0 0 5.1689e-15)
(0 0 0)
(0 0 0)
(0 0 0)
(0 0 0)
(0 0 0)
(0 0 0)
(0 0 -3.26885e-14)
(0 0 -9.54258e-15)
(0 0 -3.71758e-14)
(0 0 -6.75932e-15)
(0 0 0)
(0 0 -3.24613e-14)
(0 0 -1.00538e-14)
(0 0 -3.89935e-14)
(0 0 -9.59938e-15)
(0 0 0)
(0 0 0)
(0 0 0)
(0 0 0)
(0 0 0)
(0 0 0)
(0 0 0)
(0 0 0)
(0 0 0)
(0 0 0)
(0 0 0)
(0 0 0)
(0 0 0)
(0 0 0)
(0 0 0)
(0 0 0)
(0 0 0)
(0 0 0)
(0 0 0)
(0 0 0)
(0 0 0)
(0 0 5.05529e-15)
(0 0 0)
(0 0 2.72356e-14)
(0 0 0)
(0 0 0)
(0 0 5.05529e-15)
(0 0 0)
(0 0 2.72356e-14)
(0 0 0)
(0 0 0)
(-2.04631e-20 0 0)
(0 0 0)
(0 0 0)
(0 0 2.72356e-14)
(0 0 0)
(0 0 0)
(0 0 0)
(0 0 0)
(0 0 0)
(0 0 0)
(0 0 -5.2825e-15)
(0 0 0)
(0 0 -1.13602e-14)
(0 0 -1.74803e-14)
(0 0 8.50573e-15)
(0 0 -3.06726e-15)
(0 0 0)
(0 0 -1.35186e-14)
(0 0 -2.21948e-14)
(0 0 0)
(0 0 0)
(0 0 0)
(0 0 0)
(0 0 0)
(0 0 0)
(0 0 0)
(0 0 0)
(0 0 0)
(0 0 0)
(0 0 0)
(0 0 0)
(0 0 0)
(0 0 0)
(0 0 0)
(0 0 0)
(0 0 0)
(0 0 0)
(0 0 0)
(0 0 0)
(0 0 0)
(0 0 2.67812e-14)
(0 0 0)
(0 0 0)
(0 0 0)
(0 0 0)
(0 0 2.67812e-14)
(0 0 0)
(0 0 0)
(0 0 0)
(0 0 0)
(-7.50054e-20 0 -2.55316e-14)
(0 0 0)
(0 0 0)
(0 0 2.72356e-14)
(0 0 0)
(0 0 0)
(0 0 0)
(0 0 0)
(0 0 0)
(0 0 0)
(0 0 -2.72356e-14)
(0 0 -8.40655e-15)
(0 0 -2.97349e-14)
(0 0 -2.23084e-14)
(0 0 7.82412e-15)
(0 0 -2.72356e-14)
(0 0 -9.82658e-15)
(0 0 -3.17229e-14)
(0 0 -2.63413e-14)
(0 0 0)
(0 0 0)
(0 0 0)
(0 0 0)
(0 0 0)
(0 0 0)
(0 0 0)
(0 0 0)
(0 0 0)
(0 0 0)
(0 0 0)
(0 0 0)
(0 0 0)
(0 0 0)
(0 0 0)
(0 0 0)
(0 0 0)
(0 0 0)
(0 0 0)
(0 0 0)
(0 0 0)
(0 0 0)
(0 0 0)
(0 0 -2.34868e-14)
(0 0 0)
(0 0 0)
(0 0 0)
(0 0 0)
(0 0 -2.34868e-14)
(0 0 0)
(0 0 0)
(-1.22935e-29 0 0)
(0 0 0)
(0 0 0)
(0 0 0)
(0 0 0)
(0 0 0)
(0 0 0)
(0 0 0)
(0 0 0)
(0 0 0)
(0 0 -3.78006e-14)
(0 0 -1.04514e-14)
(0 0 -3.68918e-14)
(0 0 -2.27204e-16)
(0 0 -1.13034e-14)
(0 0 -4.89904e-14)
(0 0 -1.41435e-14)
(0 0 -3.87095e-14)
(0 0 -9.65618e-16)
(0 0 0)
(0 0 0)
(0 0 0)
(0 0 0)
(0 0 0)
(0 0 -2.32884e-15)
(0 0 -2.38564e-15)
(0 0 0)
(0 0 0)
(0 0 0)
(0 0 -2.44244e-15)
(0 0 -2.44244e-15)
(0 0 0)
(0 0 0)
(0 0 0)
(0 0 -2.38564e-15)
(0 0 -2.27204e-15)
(0 0 0)
(0 0 0)
(0 0 0)
(0 0 0)
(0 0 0)
(0 0 0)
(0 0 2.07603e-14)
(0 0 0)
(0 0 0)
(0 0 0)
(0 0 0)
(0 0 2.07603e-14)
(0 0 0)
(0 0 0)
(-3.60002e-30 0 0)
(0 0 0)
(0 0 0)
(0 0 0)
(0 0 -2.03059e-14)
(0 0 2.57588e-14)
(0 0 1.51515e-14)
(0 0 7.95215e-16)
(0 0 2.72356e-14)
(0 0 1.51515e-14)
(0 0 -4.31688e-15)
(0 0 9.01694e-15)
(0 0 0)
(0 0 2.72212e-14)
(0 0 -3.70622e-14)
(0 0 -2.12436e-14)
(0 0 9.98256e-15)
(0 0 0)
(0 0 2.72212e-14)
(0 0 -1.95675e-14)
(0 0 0)
(0 0 0)
(0 0 -2.81445e-14)
(0 0 -1.06218e-14)
(0 0 -4.07543e-14)
(0 0 -4.09815e-14)
(0 0 -1.00538e-14)
(0 0 -3.09277e-14)
(0 0 -1.15874e-14)
(0 0 -4.11519e-14)
(0 0 -4.10951e-14)
(0 0 -1.01106e-14)
(0 0 -3.09277e-14)
(0 0 -1.15306e-14)
(0 0 -4.10383e-14)
(0 0 -4.05839e-14)
(0 0 -8.97457e-15)
(0 0 -2.77469e-14)
(0 0 0)
(0 0 0)
(0 0 0)
(0 0 0)
(0 0 3.40806e-15)
(0 0 0)
(0 0 0)
(0 0 0)
(0 0 0)
(0 0 3.29446e-15)
(0 0 0)
(0 0 0)
(-3.60544e-31 0 0)
(0 0 0)
(0 0 0)
(0 0 0)
(0 0 0)
(0 0 0)
(0 0 0)
(0 0 0)
(0 0 0)
(0 0 0)
(0 0 -3.00189e-14)
(0 0 -3.46486e-15)
(0 0 -2.67244e-14)
(0 0 0)
(0 0 -1.15307e-14)
(0 0 -4.2856e-14)
(0 0 -8.34988e-15)
(0 0 -2.85422e-14)
(0 0 0)
(0 0 0)
(0 0 0)
(0 0 0)
(0 0 0)
(0 0 0)
(0 0 -2.55605e-15)
(0 0 -3.29446e-15)
(0 0 -2.27204e-15)
(0 0 0)
(0 0 0)
(0 0 -2.66965e-15)
(0 0 -3.35126e-15)
(0 0 -2.32884e-15)
(0 0 0)
(0 0 0)
(0 0 -2.55605e-15)
(0 0 -3.06726e-15)
(0 0 -1.87443e-15)
(0 0 0)
(0 0 0)
(0 0 0)
(0 0 0)
(0 0 0)
(0 0 2.67244e-14)
(0 0 0)
(0 0 -1.53363e-15)
(0 0 0)
(0 0 0)
(0 0 2.63268e-14)
(0 0 0)
(0 0 0)
(-2.96236e-30 0 0)
(0 0 0)
(0 0 0)
(0 0 0)
(0 0 0)
(0 0 0)
(0 0 0)
(0 0 -2.5702e-14)
(0 0 0)
(0 0 0)
(0 0 -1.03378e-14)
(0 0 0)
(0 0 -1.47683e-15)
(0 0 2.71788e-14)
(0 0 0)
(0 0 -1.99372e-14)
(0 0 -5.85089e-15)
(0 0 -3.80588e-15)
(0 0 2.6554e-14)
(0 0 4.26008e-15)
(0 0 2.08739e-14)
(0 0 -2.343e-14)
(0 0 0)
(0 0 2.71788e-14)
(0 0 0)
(0 0 0)
(0 0 -2.96213e-14)
(0 0 0)
(0 0 2.71788e-14)
(0 0 0)
(0 0 0)
(0 0 -2.96213e-14)
(0 0 0)
(0 0 2.71788e-14)
(0 0 0)
(0 0 0)
(0 0 -2.92237e-14)
(0 0 0)
(0 0 2.36004e-14)
(0 0 -2.07603e-14)
(0 0 -3.29446e-15)
(0 0 -2.63268e-14)
(0 0 0)
(0 0 -3.5131e-14)
(0 0 -3.85959e-14)
(0 0 -8.06575e-15)
(0 0 -2.75197e-14)
(0 0 0)
(0 0 -3.3995e-14)
(0 0 0)
(-6.82637e-30 0 0)
(0 0 0)
(0 0 0)
(0 0 0)
(0 0 0)
(0 0 0)
(0 0 0)
(0 0 0)
(0 0 0)
(0 0 -3.57847e-15)
(0 0 -4.52984e-14)
(0 0 -1.70403e-14)
(0 0 -4.01863e-14)
(0 0 0)
(0 0 -8.40749e-15)
(0 0 -5.5127e-14)
(0 0 -2.32326e-14)
(0 0 -4.29699e-14)
(0 0 0)
(0 0 0)
(0 0 0)
(0 0 0)
(0 0 0)
(0 0 0)
(0 0 0)
(0 0 0)
(0 0 0)
(0 0 0)
(0 0 0)
(0 0 0)
(0 0 0)
(0 0 0)
(0 0 0)
(0 0 0)
(0 0 0)
(0 0 0)
(0 0 0)
(0 0 0)
(0 0 0)
(0 0 0)
(0 0 0)
(0 0 0)
(0 0 2.72356e-14)
(0 0 0)
(0 0 -1.53363e-15)
(0 0 0)
(0 0 0)
(0 0 2.72356e-14)
(0 0 0)
(0 0 0)
(-7.66704e-30 0 0)
(0 0 0)
(0 0 0)
(0 0 0)
(0 0 0)
(0 0 0)
(0 0 0)
(0 0 0)
(0 0 0)
(0 0 0)
(0 0 -4.14359e-14)
(0 0 -1.36323e-14)
(0 0 -3.89367e-14)
(0 0 0)
(0 0 -1.95984e-14)
(0 0 -5.97314e-14)
(0 0 -2.01093e-14)
(0 0 -4.12661e-14)
(0 0 0)
(0 0 0)
(0 0 0)
(0 0 0)
(0 0 0)
(0 0 0)
(0 0 -2.32884e-15)
(0 0 -2.38564e-15)
(0 0 0)
(0 0 0)
(0 0 0)
(0 0 -2.44244e-15)
(0 0 -2.44244e-15)
(0 0 0)
(0 0 0)
(0 0 0)
(0 0 -2.38564e-15)
(0 0 -2.27204e-15)
(0 0 0)
(0 0 0)
(0 0 0)
(0 0 0)
(0 0 0)
(0 0 0)
(0 0 2.72356e-14)
(0 0 0)
(0 0 0)
(0 0 0)
(0 0 0)
(0 0 2.72356e-14)
(0 0 0)
(0 0 0)
(-3.30538e-30 0 0)
(0 0 0)
(0 0 0)
(0 0 0)
(0 0 -2.03059e-14)
(0 0 2.57588e-14)
(0 0 1.51515e-14)
(0 0 7.95215e-16)
(0 0 2.72356e-14)
(0 0 1.51515e-14)
(0 0 -4.77129e-15)
(0 0 8.96014e-15)
(0 0 0)
(0 0 2.72212e-14)
(0 0 -3.93923e-14)
(0 0 -2.48808e-14)
(0 0 9.98256e-15)
(0 0 0)
(0 0 2.72212e-14)
(0 0 -1.95675e-14)
(0 0 0)
(0 0 0)
(0 0 -2.81445e-14)
(0 0 -1.06218e-14)
(0 0 -4.07543e-14)
(0 0 -4.09815e-14)
(0 0 -1.00538e-14)
(0 0 -3.09277e-14)
(0 0 -1.15874e-14)
(0 0 -4.11519e-14)
(0 0 -4.10951e-14)
(0 0 -1.01106e-14)
(0 0 -3.09277e-14)
(0 0 -1.15306e-14)
(0 0 -4.10383e-14)
(0 0 -4.05839e-14)
(0 0 -8.97457e-15)
(0 0 -2.77469e-14)
(0 0 0)
(0 0 0)
(0 0 0)
(0 0 0)
(0 0 5.11209e-15)
(0 0 0)
(0 0 0)
(0 0 0)
(0 0 0)
(0 0 5.05529e-15)
(0 0 0)
(0 0 0)
(-1.00908e-45 0 0)
(0 0 0)
(0 0 0)
(0 0 0)
(0 0 0)
(0 0 0)
(0 0 0)
(0 0 0)
(0 0 0)
(0 0 0)
(0 0 -3.01893e-14)
(0 0 -3.52166e-15)
(0 0 -2.67812e-14)
(0 0 0)
(0 0 -1.24399e-14)
(0 0 -4.43337e-14)
(0 0 -8.6909e-15)
(0 0 -2.8599e-14)
(0 0 0)
(0 0 0)
(0 0 0)
(0 0 0)
(0 0 0)
(0 0 0)
(0 0 -2.55605e-15)
(0 0 -3.29446e-15)
(0 0 -2.27204e-15)
(0 0 0)
(0 0 0)
(0 0 -2.66965e-15)
(0 0 -3.35126e-15)
(0 0 -2.32884e-15)
(0 0 0)
(0 0 0)
(0 0 -2.55605e-15)
(0 0 -3.06726e-15)
(0 0 -1.87443e-15)
(0 0 0)
(0 0 0)
(0 0 0)
(0 0 0)
(0 0 0)
(0 0 2.7122e-14)
(0 0 0)
(0 0 -1.42003e-15)
(0 0 0)
(0 0 0)
(0 0 2.67812e-14)
(0 0 0)
(0 0 0)
(-1.85165e-64 0 0)
(0 0 0)
(0 0 0)
(0 0 0)
(0 0 0)
(0 0 0)
(0 0 0)
(0 0 -2.5702e-14)
(0 0 0)
(0 0 0)
(0 0 -1.05082e-14)
(0 0 0)
(0 0 -1.53363e-15)
(0 0 2.71788e-14)
(0 0 0)
(0 0 -2.0392e-14)
(0 0 -5.73729e-15)
(0 0 -3.6922e-15)
(0 0 2.6554e-14)
(0 0 4.26008e-15)
(0 0 2.08739e-14)
(0 0 -2.343e-14)
(0 0 0)
(0 0 2.71788e-14)
(0 0 0)
(0 0 0)
(0 0 -2.96213e-14)
(0 0 0)
(0 0 2.71788e-14)
(0 0 0)
(0 0 0)
(0 0 -2.96213e-14)
(0 0 0)
(0 0 2.71788e-14)
(0 0 0)
(0 0 0)