/*--------------------------------*- C++ -*----------------------------------*\
  =========                 |
  \\      /  F ield         | OpenFOAM: The Open Source CFD Toolbox
   \\    /   O peration     | Website:  https://openfoam.org
    \\  /    A nd           | Version:  9
     \\/     M anipulation  |
\*---------------------------------------------------------------------------*/
FoamFile
{
    format      ascii;
    class       volScalarField;
    location    "0.0045";
    object      alpha.C4;
}
// * * * * * * * * * * * * * * * * * * * * * * * * * * * * * * * * * * * * * //

dimensions      [0 0 0 0 0 0 0];

internalField   nonuniform List<scalar> 
9720
(
0.999564
0.999777
0.999825
0.999864
0.999882
0.999892
0.999898
0.999904
0.999909
0.999906
0.999899
0.999886
0.999865
0.999834
0.999791
0.99973
0.999651
0.999547
0.99944
0.999148
0.999772
0.999892
0.999909
0.999919
0.999924
0.999927
0.999931
0.999934
0.999938
0.999937
0.999935
0.999931
0.999922
0.999906
0.999882
0.999846
0.999797
0.999731
0.999662
0.999476
0.999821
0.999907
0.999917
0.999923
0.999926
0.999929
0.999933
0.999935
0.99994
0.999939
0.999937
0.999934
0.999928
0.999918
0.999902
0.999877
0.999844
0.999798
0.999748
0.999612
0.999863
0.999918
0.99992
0.999865
0.999868
0.999871
0.999879
0.999885
0.999894
0.999926
0.999923
0.999919
0.999914
0.999906
0.999893
0.999873
0.999845
0.999804
0.999759
0.99963
0.999885
0.999925
0.999927
0.999866
0.999865
0.999767
0.999767
0.999767
0.999768
0.999771
0.999772
0.999771
0.999763
0.999739
0.999702
0.999577
0.999898
0.999932
0.999934
0.999879
0.999592
0.999389
0.999387
0.999385
0.999386
0.999393
0.999407
0.99943
0.999458
0.999465
0.999457
0.999365
0.999906
0.999937
0.999939
0.99989
0.999183
0.998734
0.998733
0.99873
0.998724
0.998726
0.998737
0.998761
0.998809
0.998864
0.998886
0.998835
0.999912
0.999941
0.999942
0.999897
0.998479
0.997753
0.997774
0.997784
0.99778
0.997768
0.997757
0.997761
0.997783
0.997831
0.997862
0.997823
0.999918
0.999947
0.999949
0.999912
0.999902
0.99971
0.999408
0.998897
0.997552
0.99687
0.996725
0.996674
0.996646
0.996605
0.996546
0.996475
0.996416
0.996411
0.996401
0.996309
0.999916
0.999948
0.99995
0.999944
0.999841
0.999585
0.999132
0.998497
0.997417
0.996599
0.996098
0.995782
0.995566
0.995387
0.995209
0.995024
0.994851
0.994722
0.994627
0.994379
0.999909
0.999947
0.999949
0.999943
0.999838
0.999573
0.999118
0.998487
0.997459
0.996455
0.995661
0.995032
0.994517
0.99409
0.993724
0.993399
0.993088
0.992779
0.992528
0.992017
0.999897
0.999943
0.999946
0.999939
0.999834
0.999563
0.999102
0.998467
0.997486
0.996376
0.995295
0.994325
0.993443
0.992699
0.992098
0.991599
0.991113
0.990567
0.990086
0.989199
0.999877
0.999935
0.999941
0.999934
0.99983
0.999555
0.999085
0.998436
0.99748
0.996322
0.995017
0.993667
0.992364
0.991269
0.990356
0.98957
0.988802
0.987937
0.987182
0.985867
0.999847
0.99992
0.999932
0.999926
0.999827
0.999552
0.999071
0.998398
0.997448
0.996256
0.994813
0.993177
0.9915
0.989981
0.988573
0.987251
0.985991
0.984709
0.983702
0.981994
0.999805
0.999897
0.999918
0.999913
0.999824
0.999554
0.999061
0.998359
0.997387
0.996156
0.994631
0.992839
0.990863
0.988828
0.986716
0.984589
0.982612
0.980823
0.979595
0.977472
0.999746
0.999863
0.999895
0.999894
0.999817
0.999559
0.99906
0.998323
0.997305
0.996024
0.994443
0.992561
0.99036
0.987818
0.984907
0.981822
0.978948
0.976456
0.974827
0.972012
0.999669
0.999816
0.999864
0.999867
0.999803
0.999563
0.999069
0.998299
0.997224
0.995877
0.994227
0.992248
0.989851
0.986901
0.983332
0.979379
0.975542
0.972016
0.969504
0.96538
0.999569
0.999753
0.999821
0.999829
0.999775
0.999556
0.999075
0.998282
0.997158
0.995737
0.993976
0.991846
0.989228
0.985959
0.981976
0.977411
0.972596
0.967655
0.963646
0.957226
0.999464
0.999687
0.999774
0.999786
0.999738
0.999533
0.999067
0.998255
0.99709
0.995604
0.993739
0.991454
0.98864
0.985188
0.981048
0.97618
0.970626
0.964327
0.958501
0.94911
0.999179
0.999508
0.999646
0.999664
0.999617
0.99943
0.998978
0.998135
0.996881
0.995252
0.993178
0.990603
0.987452
0.983687
0.979225
0.973816
0.967207
0.958961
0.950468
0.935488
0.999731
0.999872
0.999904
0.999929
0.999942
0.999947
0.999951
0.999954
0.999956
0.999955
0.99995
0.999941
0.999926
0.999905
0.999876
0.999836
0.999782
0.999711
0.999637
0.999423
0.999869
0.999951
0.999965
0.999974
0.999978
0.999979
0.99998
0.999981
0.999982
0.99998
0.999976
0.999971
0.999964
0.999953
0.999937
0.999914
0.999883
0.999842
0.999798
0.999671
0.999901
0.999964
0.999977
0.999987
0.999989
0.999989
0.99999
0.99999
0.99999
0.999984
0.999978
0.999973
0.999967
0.999959
0.999949
0.999932
0.99991
0.99988
0.999849
0.999757
0.999928
0.999973
0.999986
0.999997
0.999999
0.999999
0.999999
0.999999
0.999998
0.99997
0.999953
0.999943
0.999936
0.999931
0.999926
0.999916
0.999901
0.999876
0.999848
0.99976
0.999943
0.999978
0.999989
0.999999
0.999918
0.999706
0.999713
0.999721
0.999729
0.999741
0.999754
0.999768
0.999773
0.999767
0.99975
0.999675
0.99995
0.99998
0.99999
0.999999
0.999439
0.999178
0.999182
0.999188
0.999198
0.999218
0.999248
0.999293
0.99935
0.999397
0.999414
0.999374
0.999954
0.999982
0.999991
0.999999
0.998768
0.99831
0.998319
0.998326
0.99833
0.99834
0.998363
0.998409
0.99849
0.998587
0.998675
0.998668
0.999958
0.999983
0.999991
0.999999
0.997665
0.997098
0.997133
0.997152
0.997153
0.997146
0.997143
0.997155
0.997195
0.997278
0.997383
0.997384
0.999961
0.999985
0.999992
0.999999
0.999943
0.999609
0.999106
0.998251
0.996352
0.995795
0.995725
0.99573
0.995729
0.995708
0.995657
0.995584
0.995529
0.995551
0.995592
0.995552
0.99996
0.999984
0.999988
0.999976
0.999764
0.999335
0.9986
0.997597
0.996126
0.995222
0.994828
0.994566
0.994359
0.994192
0.994033
0.993855
0.993676
0.99356
0.993497
0.993304
0.999956
0.999982
0.999983
0.999964
0.99977
0.999339
0.998618
0.997657
0.996223
0.995044
0.994213
0.993538
0.993024
0.992625
0.992278
0.991952
0.991618
0.99129
0.991056
0.990597
0.999947
0.999978
0.999979
0.999956
0.999778
0.999344
0.998633
0.997696
0.996326
0.994955
0.993682
0.992624
0.991745
0.991004
0.99039
0.989876
0.989362
0.988785
0.988312
0.987463
0.999934
0.999971
0.999974
0.999951
0.999786
0.999353
0.998639
0.997694
0.996415
0.994942
0.993367
0.99188
0.990492
0.989343
0.988422
0.987629
0.986841
0.985927
0.985137
0.983817
0.999914
0.999961
0.999968
0.999946
0.999795
0.999368
0.998647
0.997684
0.996409
0.994908
0.993192
0.991346
0.989495
0.987897
0.986489
0.985156
0.983862
0.982475
0.981381
0.979656
0.999887
0.999947
0.999959
0.999941
0.999804
0.99939
0.998662
0.997667
0.996369
0.994834
0.993035
0.990989
0.988802
0.986663
0.984531
0.982392
0.980359
0.9784
0.977077
0.974967
0.999848
0.999926
0.999944
0.999932
0.999812
0.999424
0.998694
0.997669
0.996307
0.994718
0.992854
0.990695
0.988262
0.985573
0.982616
0.979519
0.976558
0.973889
0.972214
0.96945
0.999797
0.999897
0.999925
0.999917
0.999813
0.999465
0.998753
0.997687
0.996252
0.994588
0.992624
0.990344
0.987711
0.984587
0.980927
0.976916
0.972986
0.969389
0.966897
0.962812
0.999729
0.999859
0.999898
0.999894
0.999804
0.999493
0.998817
0.997734
0.996258
0.994489
0.992364
0.989898
0.987022
0.983531
0.979399
0.974757
0.969938
0.965079
0.961099
0.954657
0.999657
0.999818
0.999869
0.999869
0.999786
0.999498
0.998862
0.99777
0.996255
0.994417
0.992162
0.989525
0.986416
0.982706
0.978428
0.97353
0.968023
0.961787
0.955965
0.946566
0.999449
0.999697
0.999785
0.999789
0.999715
0.999453
0.998837
0.997733
0.996159
0.994182
0.991723
0.988798
0.985326
0.981306
0.976736
0.971323
0.96474
0.956473
0.947981
0.933125
0.999902
0.999963
0.999974
0.999984
0.999988
0.999989
0.99999
0.999991
0.999991
0.99999
0.999988
0.999984
0.999977
0.999968
0.999953
0.999932
0.999902
0.99986
0.999813
0.99966
0.999962
0.999994
0.999997
0.999998
0.999999
0.999999
0.999999
0.999999
0.999999
0.999998
0.999998
0.999996
0.999994
0.999989
0.999983
0.999974
0.999961
0.999942
0.99992
0.99984
0.999973
0.999997
0.999999
1
1
1
1
1
1
0.999998
0.999996
0.999994
0.999992
0.99999
0.999987
0.999981
0.999974
0.999962
0.999949
0.999897
0.999983
0.999998
1
1
1
1
1
1
1
0.99996
0.999941
0.999933
0.999932
0.999935
0.99994
0.999941
0.99994
0.999933
0.999923
0.999874
0.999988
0.999999
1
1
0.999904
0.999592
0.999594
0.999599
0.999613
0.999635
0.999665
0.9997
0.999733
0.999754
0.999758
0.999728
0.99999
0.999999
1
1
0.999355
0.998894
0.998876
0.998863
0.998866
0.998884
0.998923
0.998992
0.999081
0.999166
0.999253
0.999262
0.999991
0.999999
1
1
0.998564
0.997751
0.99774
0.997731
0.997717
0.997719
0.997734
0.99778
0.997873
0.997998
0.998146
0.998245
0.999991
0.999999
1
1
0.997249
0.996259
0.99629
0.996287
0.996271
0.996243
0.9962
0.996195
0.99622
0.996295
0.996425
0.996523
0.999992
0.999999
1
1
0.999903
0.999408
0.99868
0.997464
0.995145
0.994563
0.994567
0.994565
0.994551
0.994504
0.994421
0.994326
0.994217
0.99421
0.994247
0.994237
0.999991
0.999999
0.999999
0.999964
0.999643
0.999028
0.997989
0.99661
0.99479
0.993753
0.993354
0.993078
0.992849
0.992671
0.992512
0.992328
0.9921
0.991897
0.991793
0.991589
0.999989
0.999998
0.999997
0.999951
0.999652
0.999023
0.997996
0.99666
0.99484
0.993454
0.992508
0.991729
0.991205
0.990846
0.990517
0.990158
0.989753
0.989329
0.989035
0.988544
0.999985
0.999997
0.999996
0.999945
0.999664
0.999026
0.998006
0.996691
0.99491
0.993251
0.991766
0.990603
0.989774
0.989058
0.988373
0.987748
0.987156
0.986542
0.986053
0.985171
0.999979
0.999995
0.999994
0.999945
0.99968
0.999035
0.99801
0.996688
0.994967
0.993124
0.991304
0.98978
0.988422
0.987157
0.986048
0.985142
0.984346
0.983498
0.982737
0.981348
0.99997
0.999992
0.999992
0.999947
0.9997
0.999054
0.998017
0.996673
0.994954
0.993037
0.991049
0.989105
0.987129
0.98533
0.98379
0.982459
0.981241
0.979955
0.978856
0.976985
0.999957
0.999987
0.99999
0.999951
0.999724
0.999088
0.998035
0.996647
0.99491
0.992954
0.990833
0.988526
0.986057
0.98375
0.98165
0.979648
0.977716
0.975759
0.974316
0.972027
0.999936
0.999978
0.999986
0.999952
0.999751
0.999144
0.998077
0.996649
0.99485
0.992842
0.990594
0.988047
0.98527
0.982466
0.979641
0.976719
0.973801
0.970974
0.969123
0.966294
0.999908
0.999967
0.99998
0.999951
0.999777
0.999217
0.998159
0.996677
0.994798
0.992699
0.990306
0.987595
0.984634
0.981417
0.97785
0.973915
0.969906
0.966092
0.963551
0.959663
0.999867
0.999949
0.99997
0.999945
0.999794
0.99929
0.998267
0.996751
0.994812
0.992575
0.989993
0.987114
0.983966
0.980362
0.97616
0.971375
0.966387
0.961485
0.957744
0.951834
0.999821
0.999928
0.999959
0.999937
0.999798
0.999363
0.998394
0.996865
0.994866
0.992523
0.989791
0.986761
0.983391
0.979499
0.97501
0.969881
0.96428
0.958227
0.95288
0.944238
0.999672
0.999853
0.999912
0.999895
0.999771
0.999367
0.998469
0.996933
0.994852
0.992379
0.989443
0.986127
0.98235
0.978054
0.973212
0.96763
0.961114
0.953229
0.945342
0.931343
0.999954
0.999987
0.999991
0.999994
0.999996
0.999997
0.999997
0.999997
0.999997
0.999996
0.999995
0.999993
0.999989
0.999983
0.999974
0.999959
0.999936
0.999902
0.999862
0.999723
0.999987
1
1
1
1
1
1
1
1
1
1
1
0.999999
0.999997
0.999994
0.999989
0.999982
0.999969
0.999953
0.999885
0.99999
1
1
1
1
1
1
1
1
0.999998
0.999996
0.999995
0.999994
0.999994
0.999993
0.999992
0.99999
0.999985
0.999978
0.999937
0.999994
1
1
1
1
1
1
1
0.999999
0.99993
0.999907
0.999901
0.999905
0.999912
0.999923
0.999932
0.999937
0.999937
0.999934
0.999898
0.999996
1
1
1
0.999812
0.999354
0.999378
0.999405
0.999436
0.999473
0.999521
0.999576
0.99963
0.999676
0.999705
0.999689
0.999997
1
1
1
0.998917
0.998387
0.998386
0.99839
0.998404
0.998435
0.998493
0.998586
0.998708
0.998831
0.998964
0.999041
0.999997
1
1
1
0.997801
0.996913
0.996913
0.996915
0.996917
0.996924
0.996948
0.997004
0.997112
0.997264
0.997455
0.997675
0.999997
1
1
1
0.996084
0.995108
0.99515
0.995159
0.995153
0.995133
0.995093
0.995073
0.995094
0.995168
0.995306
0.995517
0.999997
1
1
0.999999
0.999846
0.999128
0.998127
0.996553
0.993812
0.993203
0.993213
0.993209
0.993187
0.993133
0.993043
0.992939
0.992828
0.992764
0.992793
0.992837
0.999996
1
0.999999
0.99995
0.999514
0.998711
0.997415
0.995739
0.993477
0.992286
0.991838
0.991543
0.991297
0.9911
0.990926
0.990738
0.990505
0.990248
0.990089
0.989869
0.999995
1
0.999997
0.999932
0.999525
0.998703
0.997421
0.995797
0.993571
0.991944
0.990921
0.990111
0.989534
0.98914
0.988804
0.988437
0.98802
0.987544
0.987174
0.98662
0.999993
1
0.999996
0.999925
0.99954
0.998704
0.997428
0.995834
0.993672
0.991715
0.990129
0.988896
0.988021
0.987296
0.986608
0.985946
0.985298
0.984625
0.984084
0.983149
0.999989
0.999999
0.999995
0.999927
0.999559
0.998712
0.997429
0.995829
0.99374
0.991557
0.989549
0.987948
0.986618
0.985391
0.984246
0.983242
0.982355
0.981485
0.980748
0.979362
0.999983
0.999997
0.999995
0.999932
0.999584
0.998733
0.997433
0.99581
0.993743
0.991479
0.989221
0.987174
0.985244
0.983475
0.981869
0.980455
0.979209
0.977989
0.976983
0.975115
0.999974
0.999994
0.999995
0.999939
0.999618
0.998774
0.997449
0.995773
0.993714
0.991418
0.989004
0.986538
0.984015
0.981673
0.979557
0.977602
0.975776
0.973968
0.972589
0.970204
0.999959
0.99999
0.999994
0.999946
0.999657
0.998842
0.997489
0.995763
0.993664
0.991336
0.988793
0.986026
0.983064
0.980166
0.977409
0.974689
0.972007
0.969327
0.967419
0.964411
0.999937
0.999983
0.999992
0.99995
0.9997
0.998934
0.997572
0.995781
0.993601
0.991215
0.988551
0.985582
0.982357
0.97902
0.975569
0.971913
0.968152
0.964354
0.961682
0.957746
0.999903
0.999971
0.999988
0.99995
0.999738
0.999033
0.997693
0.995843
0.9936
0.991075
0.988257
0.985133
0.981739
0.978053
0.973959
0.969346
0.964409
0.959375
0.955649
0.950122
0.999863
0.999955
0.999982
0.999948
0.999763
0.999145
0.997853
0.995962
0.993641
0.991003
0.988036
0.984785
0.981246
0.977329
0.972868
0.96771
0.962002
0.95591
0.950864
0.943058
0.999727
0.999891
0.999944
0.999917
0.999748
0.999209
0.998035
0.996134
0.993687
0.990875
0.987677
0.984155
0.98028
0.975964
0.971033
0.96529
0.958705
0.951077
0.943835
0.931014
0.999959
0.999989
0.999992
0.999995
0.999997
0.999997
0.999997
0.999997
0.999997
0.999997
0.999996
0.999993
0.99999
0.999984
0.999975
0.999961
0.99994
0.999906
0.999866
0.999727
0.999989
1
1
1
1
1
1
1
1
1
1
1
0.999999
0.999997
0.999994
0.99999
0.999983
0.999971
0.999956
0.999888
0.999992
1
1
1
1
1
1
1
1
0.999999
0.999996
0.999995
0.999994
0.999993
0.999993
0.999993
0.999991
0.999987
0.99998
0.999939
0.999995
1
1
1
1
1
1
1
0.999998
0.999927
0.999901
0.99989
0.999892
0.999898
0.999909
0.999921
0.999929
0.99993
0.999928
0.999894
0.999997
1
1
1
0.999742
0.999266
0.999286
0.999311
0.999341
0.99938
0.999432
0.999494
0.999556
0.999608
0.99965
0.99964
0.999997
1
1
1
0.998635
0.998056
0.998058
0.998068
0.998091
0.998132
0.998202
0.99831
0.998451
0.998595
0.998749
0.998871
0.999997
1
1
1
0.99721
0.996228
0.996244
0.996268
0.996292
0.996318
0.996362
0.996438
0.996567
0.996745
0.996972
0.997276
0.999997
1
1
1
0.995124
0.994033
0.994095
0.994147
0.994188
0.994197
0.99419
0.994197
0.994236
0.994334
0.994509
0.99482
0.999997
1
1
0.999999
0.999818
0.998976
0.997813
0.996058
0.992635
0.992067
0.992001
0.991974
0.99196
0.991931
0.991873
0.9918
0.991705
0.991681
0.991723
0.991848
0.999997
1
0.999999
0.999938
0.999406
0.998454
0.996993
0.995183
0.992558
0.991204
0.990605
0.990226
0.98995
0.989747
0.989577
0.989401
0.989197
0.988967
0.988812
0.988642
0.999996
1
0.999997
0.999915
0.999417
0.998443
0.996997
0.995248
0.992754
0.990923
0.989775
0.988909
0.988222
0.987719
0.987342
0.986988
0.986608
0.98616
0.985778
0.985227
0.999993
1
0.999995
0.999905
0.999434
0.998446
0.997004
0.99529
0.992919
0.99074
0.989087
0.987785
0.986725
0.985867
0.985154
0.984502
0.983853
0.983168
0.98259
0.981642
0.99999
0.999999
0.999994
0.999908
0.999458
0.998458
0.997011
0.995288
0.993024
0.990657
0.988544
0.986806
0.985353
0.984088
0.982922
0.981855
0.980874
0.979938
0.97919
0.977838
0.999984
0.999997
0.999994
0.999913
0.999489
0.998485
0.997021
0.995273
0.993074
0.990653
0.98824
0.986051
0.984098
0.982342
0.980669
0.979111
0.977718
0.976451
0.975487
0.973683
0.999975
0.999994
0.999994
0.999923
0.999532
0.998538
0.997044
0.995241
0.993054
0.990629
0.988073
0.985515
0.982991
0.980624
0.978391
0.976289
0.974374
0.972588
0.971258
0.968868
0.999961
0.99999
0.999994
0.999934
0.999582
0.99862
0.997093
0.995226
0.993015
0.99057
0.987918
0.985091
0.982083
0.979096
0.976224
0.97345
0.970801
0.968186
0.966248
0.963102
0.99994
0.999984
0.999992
0.999941
0.999634
0.998729
0.997184
0.995243
0.99296
0.990474
0.987731
0.984699
0.981371
0.977907
0.9744
0.97081
0.967156
0.963353
0.960524
0.9564
0.999907
0.999972
0.999989
0.999943
0.99968
0.998844
0.997316
0.995302
0.992945
0.990343
0.987477
0.984291
0.980776
0.976998
0.972918
0.968399
0.963489
0.958259
0.954336
0.94882
0.999867
0.999958
0.999983
0.999942
0.999716
0.998975
0.997496
0.995425
0.992976
0.990256
0.987247
0.983936
0.980317
0.976376
0.971948
0.966804
0.960977
0.954639
0.949539
0.942068
0.999733
0.999894
0.999946
0.999912
0.999708
0.999073
0.997735
0.995647
0.993049
0.990122
0.986856
0.983275
0.979381
0.975097
0.970164
0.964323
0.95757
0.949868
0.942854
0.930726
0.99996
0.999989
0.999992
0.999995
0.999997
0.999997
0.999997
0.999997
0.999997
0.999997
0.999996
0.999993
0.99999
0.999984
0.999975
0.999961
0.99994
0.999906
0.999866
0.999727
0.999989
1
1
1
1
1
1
1
1
1
1
1
0.999999
0.999997
0.999994
0.99999
0.999983
0.999971
0.999956
0.999888
0.999992
1
1
1
1
1
1
1
1
0.999999
0.999997
0.999995
0.999994
0.999994
0.999993
0.999993
0.999991
0.999986
0.99998
0.999939
0.999995
1
1
1
1
1
1
1
0.999998
0.999927
0.999901
0.99989
0.999892
0.999897
0.999908
0.999919
0.999927
0.999928
0.999926
0.999891
0.999997
1
1
1
0.999756
0.99925
0.99927
0.999296
0.999327
0.999365
0.999416
0.999479
0.999541
0.999593
0.999636
0.999627
0.999997
1
1
1
0.998535
0.997983
0.997986
0.997998
0.998021
0.998063
0.998135
0.998247
0.99839
0.998538
0.998697
0.998829
0.999997
1
1
1
0.996881
0.996043
0.996063
0.996091
0.996118
0.996148
0.996195
0.996278
0.996415
0.996603
0.996842
0.997171
0.999997
1
1
1
0.994506
0.993674
0.993748
0.993814
0.993862
0.993884
0.993886
0.9939
0.993953
0.994069
0.994264
0.994613
0.999997
1
1
0.999999
0.999751
0.998724
0.997423
0.995535
0.992009
0.991651
0.99155
0.991507
0.991499
0.991482
0.991437
0.991374
0.991294
0.991295
0.99135
0.991518
0.999997
1
0.999998
0.999925
0.999313
0.998285
0.99674
0.994888
0.99222
0.990834
0.990158
0.989711
0.989411
0.989209
0.989045
0.988875
0.988683
0.988469
0.988331
0.988202
0.999996
1
0.999996
0.9999
0.999338
0.998292
0.996767
0.994979
0.992456
0.990601
0.989377
0.988439
0.98769
0.987142
0.986746
0.986391
0.986021
0.98559
0.985221
0.984699
0.999993
1
0.999994
0.999892
0.999368
0.998307
0.996794
0.995034
0.992649
0.990437
0.988749
0.98739
0.986237
0.985293
0.984538
0.983875
0.983227
0.982547
0.981971
0.981037
0.99999
0.999999
0.999994
0.999896
0.999402
0.998332
0.996818
0.995062
0.992776
0.990416
0.988279
0.986476
0.984925
0.983568
0.982339
0.981228
0.980213
0.979259
0.978506
0.977166
0.999984
0.999997
0.999993
0.999904
0.999443
0.998373
0.996842
0.995057
0.992847
0.990426
0.98801
0.985774
0.983749
0.981908
0.980141
0.978489
0.977015
0.975698
0.974716
0.972908
0.999975
0.999994
0.999993
0.999916
0.999494
0.998439
0.996879
0.995036
0.992833
0.990408
0.987854
0.985275
0.982714
0.980278
0.977932
0.975679
0.973612
0.971727
0.970363
0.967967
0.999961
0.99999
0.999993
0.999928
0.999552
0.998534
0.996943
0.995034
0.992803
0.990354
0.987702
0.984869
0.981851
0.978815
0.975821
0.972843
0.969989
0.967236
0.965251
0.962095
0.99994
0.999984
0.999992
0.999936
0.999609
0.998654
0.997047
0.995056
0.992753
0.990261
0.987514
0.984483
0.98115
0.977643
0.974003
0.970192
0.966324
0.962367
0.959472
0.955316
0.999907
0.999972
0.999988
0.999939
0.999658
0.99878
0.997192
0.995125
0.992744
0.990129
0.987258
0.984073
0.98055
0.976722
0.972498
0.967776
0.962675
0.957296
0.953297
0.947694
0.999868
0.999958
0.999982
0.999938
0.999698
0.99892
0.997386
0.995259
0.992777
0.990041
0.987026
0.983714
0.980082
0.976077
0.971506
0.966188
0.960199
0.953725
0.948528
0.940919
0.999733
0.999894
0.999945
0.999908
0.999691
0.999028
0.997644
0.995502
0.992862
0.989911
0.986633
0.983043
0.979121
0.974752
0.969692
0.963718
0.956827
0.948981
0.941838
0.929575
0.999955
0.999987
0.999991
0.999994
0.999996
0.999997
0.999997
0.999997
0.999997
0.999996
0.999995
0.999993
0.999989
0.999983
0.999974
0.999958
0.999936
0.999901
0.99986
0.999719
0.999987
1
1
1
1
1
1
1
1
1
1
1
0.999999
0.999997
0.999994
0.999989
0.999981
0.999969
0.999952
0.999882
0.99999
1
1
1
1
1
1
1
1
0.999999
0.999997
0.999995
0.999994
0.999994
0.999994
0.999992
0.99999
0.999985
0.999977
0.999934
0.999994
1
1
1
1
1
1
1
0.999998
0.999933
0.999909
0.9999
0.999903
0.99991
0.999919
0.999928
0.999932
0.999932
0.999929
0.999892
0.999996
1
1
1
0.99975
0.999308
0.999329
0.999356
0.999386
0.999425
0.999475
0.999533
0.999588
0.999635
0.999672
0.999658
0.999997
1
1
1
0.998568
0.998162
0.998162
0.99817
0.99819
0.998229
0.998298
0.998403
0.998537
0.998673
0.998823
0.998932
0.999997
1
1
1
0.996998
0.996396
0.996402
0.996412
0.996424
0.996442
0.996481
0.996556
0.996687
0.996869
0.997096
0.997387
0.999997
1
1
1
0.994701
0.994187
0.994241
0.994277
0.994293
0.994287
0.99427
0.994277
0.994322
0.994435
0.99462
0.994932
0.999997
1
1
0.999999
0.99979
0.998792
0.997485
0.995574
0.992223
0.992038
0.992017
0.992004
0.99198
0.991934
0.991864
0.991788
0.991696
0.991697
0.991751
0.991892
0.999996
1
0.999999
0.999943
0.999422
0.998453
0.99695
0.995104
0.992546
0.991172
0.990556
0.990139
0.989842
0.989635
0.989468
0.989291
0.989077
0.988847
0.988717
0.988582
0.999995
1
0.999997
0.99992
0.999432
0.998449
0.996968
0.995191
0.992748
0.990932
0.9897
0.988737
0.988021
0.987519
0.987126
0.986745
0.986341
0.985889
0.985538
0.985039
0.999993
1
0.999995
0.999911
0.999449
0.998454
0.996989
0.995243
0.992918
0.990748
0.989007
0.98763
0.98653
0.9856
0.984794
0.984083
0.983425
0.982759
0.982213
0.981301
0.999989
0.999999
0.999995
0.999913
0.999472
0.99847
0.997007
0.995269
0.993025
0.990694
0.988554
0.986758
0.985178
0.983727
0.982406
0.981276
0.980304
0.979391
0.978642
0.977277
0.999983
0.999997
0.999994
0.999919
0.999505
0.998504
0.997028
0.995263
0.993078
0.990691
0.988305
0.986059
0.983923
0.98194
0.980092
0.978446
0.977012
0.975693
0.974665
0.972805
0.999974
0.999994
0.999994
0.999928
0.999549
0.998565
0.997064
0.995245
0.993062
0.990665
0.98813
0.985507
0.98283
0.980285
0.977885
0.9756
0.973482
0.971505
0.970075
0.967671
0.999959
0.999989
0.999993
0.999936
0.9996
0.998656
0.997129
0.995248
0.993027
0.990599
0.987943
0.985059
0.981981
0.978891
0.975824
0.972713
0.969686
0.966778
0.96477
0.961704
0.999936
0.999982
0.999991
0.999941
0.99965
0.998771
0.997239
0.995281
0.992982
0.990488
0.98772
0.984657
0.981316
0.977776
0.974005
0.969965
0.965862
0.961788
0.958963
0.954925
0.999903
0.99997
0.999987
0.999942
0.999695
0.998889
0.997388
0.995365
0.992986
0.990347
0.98744
0.984236
0.980712
0.976815
0.972409
0.967447
0.962179
0.956841
0.952942
0.947274
0.999863
0.999954
0.99998
0.99994
0.999727
0.999022
0.997578
0.995508
0.993032
0.990272
0.987218
0.983884
0.980211
0.976086
0.97133
0.965848
0.959815
0.95343
0.948214
0.940219
0.999726
0.999889
0.999941
0.999908
0.999714
0.999109
0.99781
0.995735
0.993118
0.990161
0.986854
0.98322
0.979199
0.974675
0.96948
0.963448
0.956561
0.948664
0.941232
0.928065
0.999904
0.999964
0.999975
0.999984
0.999988
0.99999
0.999991
0.999991
0.999991
0.99999
0.999988
0.999984
0.999978
0.999968
0.999953
0.999932
0.999902
0.999859
0.999811
0.999653
0.999962
0.999994
0.999997
0.999998
0.999999
0.999999
0.999999
0.999999
0.999999
0.999999
0.999998
0.999996
0.999994
0.99999
0.999984
0.999974
0.999961
0.999941
0.999918
0.999835
0.999973
0.999997
0.999999
1
1
1
1
1
1
0.999999
0.999997
0.999995
0.999993
0.99999
0.999987
0.999981
0.999974
0.999962
0.999948
0.999893
0.999983
0.999998
1
1
1
1
1
1
0.999999
0.999955
0.999937
0.999929
0.999928
0.999931
0.999936
0.999937
0.999935
0.999928
0.999917
0.999866
0.999987
0.999999
1
1
0.999812
0.999503
0.999514
0.999529
0.99955
0.999579
0.999614
0.999655
0.999692
0.999716
0.999724
0.999695
0.999989
0.999999
1
1
0.998861
0.998611
0.998603
0.998605
0.998618
0.998647
0.998701
0.998788
0.998895
0.998996
0.999105
0.999142
0.99999
0.999999
1
1
0.997568
0.997171
0.997169
0.997169
0.997171
0.99718
0.997209
0.997275
0.997399
0.99756
0.997746
0.997918
0.999991
0.999999
1
1
0.99558
0.995284
0.995322
0.995344
0.995339
0.995321
0.995298
0.995308
0.995358
0.995476
0.995645
0.995843
0.999992
0.999999
1
0.999999
0.999833
0.99904
0.99791
0.99615
0.993273
0.99331
0.99328
0.993275
0.993253
0.993197
0.993116
0.993029
0.992951
0.992969
0.993046
0.993116
0.999991
0.999999
0.999999
0.999956
0.999556
0.998806
0.997574
0.995963
0.99376
0.992458
0.991915
0.991541
0.991247
0.991035
0.990864
0.990675
0.990448
0.990246
0.990168
0.990021
0.999989
0.999998
0.999997
0.99994
0.999571
0.998803
0.997581
0.996025
0.993869
0.992201
0.991023
0.990062
0.989414
0.988975
0.98859
0.988185
0.987742
0.987291
0.986999
0.986545
0.999985
0.999997
0.999995
0.999933
0.999587
0.998806
0.997591
0.996066
0.993991
0.992018
0.990257
0.988884
0.987888
0.98702
0.986199
0.98547
0.98481
0.984149
0.983644
0.982773
0.999979
0.999995
0.999993
0.999934
0.999606
0.998817
0.997598
0.996065
0.994083
0.991942
0.989834
0.988056
0.986469
0.984975
0.983661
0.982602
0.981708
0.980792
0.979995
0.978588
0.99997
0.999991
0.999991
0.999936
0.999631
0.998842
0.997609
0.996052
0.994079
0.991894
0.989623
0.987387
0.985128
0.983059
0.981279
0.979753
0.978387
0.976991
0.975836
0.97393
0.999956
0.999986
0.999989
0.999941
0.999661
0.998887
0.997635
0.996028
0.994049
0.991837
0.989434
0.986818
0.984045
0.981458
0.979101
0.976857
0.974719
0.97261
0.971092
0.968751
0.999935
0.999977
0.999984
0.999943
0.999695
0.998959
0.99769
0.996034
0.993995
0.991735
0.989205
0.986358
0.983291
0.980202
0.977081
0.973865
0.970705
0.967702
0.965764
0.962869
0.999906
0.999965
0.999978
0.999942
0.999727
0.999049
0.997793
0.996072
0.993943
0.991587
0.988923
0.985936
0.982695
0.979164
0.975254
0.970997
0.966736
0.962733
0.960106
0.956157
0.999865
0.999947
0.999967
0.999937
0.99975
0.999136
0.997923
0.996161
0.993959
0.99145
0.988612
0.985483
0.982054
0.978112
0.97354
0.968419
0.963166
0.95807
0.954255
0.948302
0.999818
0.999926
0.999955
0.999928
0.999759
0.999231
0.998076
0.996293
0.994025
0.9914
0.988407
0.985124
0.981467
0.977235
0.972381
0.966919
0.961042
0.954792
0.94938
0.940677
0.999668
0.999848
0.999906
0.999883
0.999734
0.999254
0.9982
0.996418
0.994038
0.991265
0.988046
0.984443
0.980358
0.97574
0.970568
0.964676
0.957886
0.949793
0.941789
0.927533
0.999736
0.999876
0.999906
0.999931
0.999944
0.99995
0.999954
0.999957
0.999958
0.999957
0.999952
0.999943
0.999928
0.999907
0.999878
0.999837
0.999783
0.999711
0.999636
0.999416
0.999869
0.999952
0.999966
0.999975
0.999979
0.99998
0.999981
0.999982
0.999983
0.999981
0.999978
0.999973
0.999965
0.999954
0.999938
0.999915
0.999883
0.999841
0.999796
0.999664
0.999899
0.999964
0.999977
0.999987
0.999989
0.99999
0.99999
0.999991
0.99999
0.999985
0.99998
0.999974
0.999968
0.99996
0.999949
0.999933
0.99991
0.999879
0.999846
0.99975
0.999925
0.999973
0.999986
1
1
1
1
1
1
0.999972
0.999957
0.999946
0.999939
0.999933
0.999926
0.999916
0.999899
0.999874
0.999844
0.99975
0.99994
0.999977
0.999988
1
0.999891
0.999708
0.999711
0.999715
0.999721
0.999731
0.999744
0.999757
0.999761
0.999755
0.999736
0.999654
0.999947
0.999979
0.999989
1
0.999248
0.999117
0.999116
0.999118
0.999123
0.999139
0.999169
0.999218
0.999278
0.999327
0.99935
0.999311
0.999952
0.99998
0.99999
1
0.998287
0.99808
0.9981
0.998111
0.998113
0.99812
0.998139
0.998187
0.998276
0.99838
0.998482
0.998487
0.999955
0.999982
0.999991
1
0.996699
0.996609
0.996684
0.996735
0.99674
0.996731
0.996723
0.996733
0.996776
0.996865
0.996979
0.99699
0.999959
0.999984
0.999991
1
0.999888
0.999315
0.998525
0.997222
0.995045
0.994994
0.994994
0.995034
0.995066
0.995046
0.994989
0.994905
0.994852
0.994879
0.994929
0.994884
0.999958
0.999983
0.999987
0.99997
0.999715
0.999216
0.998365
0.997207
0.995502
0.994374
0.993934
0.993662
0.993444
0.993269
0.993105
0.992919
0.992731
0.99261
0.992548
0.992339
0.999954
0.99998
0.999982
0.999956
0.999721
0.999212
0.998371
0.997256
0.995585
0.99419
0.993221
0.992443
0.991876
0.991456
0.991096
0.990748
0.990375
0.990009
0.989762
0.989285
0.999945
0.999976
0.999977
0.999947
0.999727
0.99921
0.99837
0.997255
0.995673
0.9941
0.992603
0.991372
0.990392
0.989592
0.988932
0.988371
0.987796
0.987156
0.986661
0.985796
0.999931
0.999969
0.999972
0.999941
0.999736
0.999214
0.998364
0.997238
0.995725
0.994034
0.992214
0.990507
0.988941
0.987667
0.98667
0.985813
0.98496
0.983971
0.983138
0.981791
0.999911
0.999959
0.999965
0.999936
0.999746
0.999227
0.998364
0.997209
0.995703
0.993953
0.991977
0.989872
0.987773
0.985997
0.984474
0.983044
0.981669
0.980188
0.979042
0.977309
0.999884
0.999944
0.999955
0.999931
0.999757
0.99925
0.998373
0.997176
0.99564
0.993838
0.991764
0.989432
0.986968
0.984607
0.982296
0.980012
0.977872
0.975817
0.974471
0.972386
0.999844
0.999923
0.99994
0.999922
0.999769
0.999289
0.998404
0.997164
0.995553
0.993686
0.991533
0.98908
0.986358
0.983399
0.980195
0.976899
0.973803
0.971059
0.969403
0.966688
0.999793
0.999893
0.99992
0.999907
0.999773
0.999337
0.998469
0.997183
0.995473
0.993517
0.991257
0.98868
0.98575
0.982312
0.978343
0.974083
0.970001
0.96636
0.963915
0.95988
0.999725
0.999854
0.999892
0.999884
0.999767
0.999377
0.998546
0.997236
0.995479
0.993399
0.990958
0.988185
0.984993
0.981149
0.976668
0.971753
0.966783
0.961888
0.957937
0.951504
0.999653
0.999813
0.999862
0.999858
0.999752
0.999394
0.998616
0.997295
0.995483
0.993323
0.990736
0.98777
0.984318
0.980241
0.975627
0.97047
0.964799
0.958471
0.952611
0.94317
0.999442
0.999689
0.999774
0.999773
0.999681
0.999357
0.998606
0.997275
0.995401
0.993089
0.990273
0.986985
0.983144
0.97877
0.973901
0.968245
0.96145
0.95297
0.944314
0.929357
0.999571
0.999783
0.999831
0.999869
0.999887
0.999897
0.999904
0.99991
0.999914
0.999911
0.999904
0.99989
0.999869
0.999838
0.999795