/*--------------------------------*- C++ -*----------------------------------*\
  =========                 |
  \\      /  F ield         | OpenFOAM: The Open Source CFD Toolbox
   \\    /   O peration     | Website:  https://openfoam.org
    \\  /    A nd           | Version:  9
     \\/     M anipulation  |
\*---------------------------------------------------------------------------*/
FoamFile
{
    format      ascii;
    class       volScalarField;
    location    "0.0045";
    object      p;
}
// * * * * * * * * * * * * * * * * * * * * * * * * * * * * * * * * * * * * * //

dimensions      [1 -1 -2 0 0 0 0];

internalField   nonuniform List<scalar> 
9720
(
8.68019e+06
9.35185e+06
9.65333e+06
8.77308e+06
8.02e+06
7.54518e+06
6.86772e+06
5.87208e+06
4.7186e+06
3.83126e+06
3.14324e+06
2.73026e+06
2.49752e+06
2.35279e+06
2.28252e+06
2.2371e+06
2.19695e+06
2.14193e+06
2.08916e+06
1.97756e+06
9.30547e+06
9.91022e+06
1.01096e+07
8.03603e+06
7.38252e+06
7.55098e+06
7.05859e+06
5.71655e+06
3.90089e+06
2.68597e+06
2.01562e+06
1.8151e+06
1.8207e+06
1.81958e+06
1.82048e+06
1.81539e+06
1.79718e+06
1.75716e+06
1.71553e+06
1.62855e+06
9.5461e+06
1.00061e+07
9.43464e+06
6.67437e+06
6.65974e+06
7.53261e+06
7.35916e+06
5.72946e+06
3.25003e+06
1.83887e+06
1.35044e+06
1.39551e+06
1.53951e+06
1.7014e+06
1.82673e+06
1.91684e+06
1.91566e+06
1.88418e+06
1.83108e+06
1.71713e+06
8.71445e+06
7.97954e+06
6.63072e+06
5.18886e+06
5.56192e+06
7.79984e+06
8.09995e+06
6.87658e+06
3.30698e+06
870401
906609
1.02105e+06
1.2366e+06
1.53976e+06
1.81885e+06
1.97327e+06
1.98676e+06
1.96383e+06
1.92382e+06
1.82247e+06
7.94418e+06
7.28136e+06
6.49811e+06
5.47468e+06
670022
802555
880947
989028
1.14999e+06
1.42008e+06
1.76719e+06
2.06889e+06
2.19246e+06
2.18036e+06
2.13825e+06
2.00475e+06
7.41335e+06
7.35843e+06
7.30289e+06
7.59554e+06
1.03537e+06
1.11137e+06
1.1226e+06
1.15053e+06
1.2112e+06
1.33164e+06
1.58243e+06
1.95206e+06
2.18577e+06
2.19741e+06
2.17682e+06
2.06893e+06
6.71237e+06
6.84137e+06
7.11856e+06
7.86354e+06
1.29627e+06
1.2724e+06
1.23831e+06
1.20931e+06
1.2164e+06
1.25713e+06
1.36581e+06
1.60673e+06
1.92655e+06
2.11424e+06
2.20353e+06
2.16898e+06
5.73956e+06
5.53543e+06
5.51821e+06
6.63122e+06
1.21858e+06
910161
964758
1.0032e+06
1.03914e+06
1.08846e+06
1.16497e+06
1.30641e+06
1.56358e+06
1.84709e+06
2.07648e+06
2.15045e+06
4.60798e+06
3.77581e+06
3.11727e+06
3.02176e+06
655531
1.02067e+06
1.30014e+06
1.17853e+06
167520
255059
401241
531006
632646
711553
794116
906309
1.08222e+06
1.33344e+06
1.58192e+06
1.82308e+06
3.74088e+06
2.60994e+06
1.79037e+06
866103
800919
1.10276e+06
1.25127e+06
895188
278880
141637
169613
243150
345633
452932
551371
647536
776253
966840
1.17621e+06
1.48376e+06
3.07197e+06
1.97187e+06
1.33203e+06
909014
885080
1.11674e+06
1.22134e+06
953097
432698
181081
135115
145906
195218
281335
376380
465182
559025
695590
859813
1.16713e+06
2.67049e+06
1.78484e+06
1.37536e+06
1.02594e+06
996435
1.14705e+06
1.20424e+06
996661
560837
267804
152043
147670
158561
194784
259306
335006
414282
517983
647322
925437
2.43975e+06
1.78662e+06
1.51157e+06
1.23077e+06
1.1567e+06
1.21081e+06
1.21528e+06
1.03702e+06
658710
375534
211636
164076
164693
172922
201738
254697
324258
410039
509909
738529
2.29468e+06
1.78269e+06
1.67168e+06
1.51084e+06
1.41392e+06
1.33418e+06
1.26131e+06
1.09037e+06
734723
482179
305643
210331
178196
179694
195292
227132
279480
346990
421356
604797
2.22309e+06
1.7795e+06
1.7932e+06
1.76925e+06
1.73986e+06
1.58313e+06
1.37452e+06
1.17042e+06
816930
579911
403871
280617
214639
199861
206336
229160
260635
307593
362007
510902
2.17983e+06
1.7732e+06
1.8762e+06
1.91915e+06
2.02491e+06
1.93207e+06
1.61302e+06
1.31569e+06
931963
677166
494274
358812
272071
238498
234259
241767
261833
291454
329252
446138
2.14194e+06
1.75453e+06
1.87391e+06
1.94592e+06
2.15546e+06
2.15306e+06
1.91229e+06
1.57043e+06
1.11068e+06
809027
591978
441871
345424
297103
274476
267336
273183
293539
319306
405524
2.0898e+06
1.71566e+06
1.8429e+06
1.92749e+06
2.14673e+06
2.16824e+06
2.09163e+06
1.83973e+06
1.35564e+06
1.00113e+06
733696
551813
438385
372520
329396
304917
299617
306010
321280
390540
2.04028e+06
1.67664e+06
1.79273e+06
1.89278e+06
2.10837e+06
2.15039e+06
2.18595e+06
2.06363e+06
1.59627e+06
1.20807e+06
900657
686953
546433
455183
390296
351409
330576
327597
337852
396579
1.93571e+06
1.59558e+06
1.68544e+06
1.79903e+06
1.98115e+06
2.05105e+06
2.15562e+06
2.14307e+06
1.83242e+06
1.51137e+06
1.20752e+06
970549
785772
649765
549308
480888
432065
409640
410690
433828
8.18354e+06
8.83602e+06
9.10847e+06
8.05091e+06
7.35129e+06
6.98084e+06
6.36923e+06
5.45092e+06
4.35626e+06
3.52928e+06
2.87744e+06
2.48782e+06
2.27205e+06
2.13233e+06
2.07075e+06
2.03605e+06
2.00163e+06
1.94956e+06
1.899e+06
1.79346e+06
8.80319e+06
9.35741e+06
9.5256e+06
7.26552e+06
6.74197e+06
7.04023e+06
6.60896e+06
5.3445e+06
3.62125e+06
2.48219e+06
1.84442e+06
1.64269e+06
1.64375e+06
1.64661e+06
1.64886e+06
1.65288e+06
1.64269e+06
1.60791e+06
1.56805e+06
1.48402e+06
9.04131e+06
9.48585e+06
8.19196e+06
5.88481e+06
6.27591e+06
7.18134e+06
6.96013e+06
5.40239e+06
3.03119e+06
1.70592e+06
1.23e+06
1.25834e+06
1.37121e+06
1.52173e+06
1.63947e+06
1.74318e+06
1.75894e+06
1.73667e+06
1.69292e+06
1.58822e+06
8.08172e+06
7.2726e+06
5.8694e+06
4.67468e+06
5.4613e+06
7.44416e+06
7.68472e+06
6.48171e+06
3.09677e+06
808116
832668
924110
1.10034e+06
1.35422e+06
1.6189e+06
1.7893e+06
1.83439e+06
1.81752e+06
1.78551e+06
1.69641e+06
7.31559e+06
6.62878e+06
6.00372e+06
5.02608e+06
599727
734425
804698
898995
1.03369e+06
1.2504e+06
1.5597e+06
1.84508e+06
2.02174e+06
2.02699e+06
2.0031e+06
1.89162e+06
6.85601e+06
6.83424e+06
6.91426e+06
7.22307e+06
952901
1.02133e+06
1.02611e+06
1.04377e+06
1.08949e+06
1.18313e+06
1.37689e+06
1.70425e+06
1.97038e+06
2.04312e+06
2.03507e+06
1.9506e+06
6.21379e+06
6.39746e+06
6.73766e+06
7.46494e+06
1.20674e+06
1.17492e+06
1.13738e+06
1.09503e+06
1.09494e+06
1.11895e+06
1.1949e+06
1.3808e+06
1.67684e+06
1.88154e+06
2.01472e+06
2.00368e+06
5.30067e+06
5.16587e+06
5.21404e+06
6.27034e+06
1.12869e+06
832510
873324
902244
927945
964156
1.02141e+06
1.12518e+06
1.33041e+06
1.58959e+06
1.82332e+06
1.95081e+06
4.22744e+06
3.49055e+06
2.91407e+06
2.92338e+06
596208
943355
1.19674e+06
1.06284e+06
157245
230475
354960
469215
560032
626718
689607
774824
911221
1.12394e+06
1.35416e+06
1.61367e+06
3.41558e+06
2.37946e+06
1.63862e+06
800519
735191
1.02096e+06
1.15334e+06
808672
248620
120646
146590
211780
298580
388747
470157
549265
655105
813184
995238
1.28591e+06
2.78765e+06
1.76741e+06
1.17985e+06
823279
803515
1.02348e+06
1.11656e+06
853448
379804
153867
112477
121614
161886
232101
314557
393778
472942
584036
718506
994282
2.41992e+06
1.58978e+06
1.21131e+06
908172
893567
1.03845e+06
1.08041e+06
886963
494025
228950
125629
120841
127730
157349
217114
284657
349617
431855
535043
779728
2.21352e+06
1.6046e+06
1.33138e+06
1.07591e+06
1.02376e+06
1.08398e+06
1.0837e+06
916405
580800
322080
173545
130733
132416
143471
169714
212831
267207
333600
416881
623490
2.07543e+06
1.61212e+06
1.49557e+06
1.32533e+06
1.23639e+06
1.18063e+06
1.11382e+06
956743
644418
414154
251888
168820
147494
149602
161811
185221
225250
282296
351285
518981
2.01213e+06
1.61172e+06
1.61379e+06
1.57954e+06
1.54138e+06
1.38174e+06
1.19781e+06
1.01994e+06
707819
497032
340088
236493
181757
165974
170054
186675
214772
260153
311970
442574
1.97939e+06
1.61303e+06
1.70877e+06
1.74704e+06
1.82212e+06
1.70548e+06
1.39261e+06
1.13263e+06
797492
579175
424375
309865
232573
196148
192492
199570
220058
252380
285776
384011
1.94675e+06
1.60116e+06
1.72011e+06
1.79857e+06
1.99527e+06
1.96167e+06
1.68448e+06
1.34631e+06
941447
690295
509849
382086
293911
243779
227581
227650
235904
252780
269974
340505
1.8973e+06
1.5664e+06
1.6973e+06
1.78452e+06
1.99676e+06
2.02382e+06
1.88244e+06
1.60142e+06
1.15787e+06
854844
628545
472954
368738
309262
281059
267538
259375
259670
269685
327140
1.85007e+06
1.52869e+06
1.65453e+06
1.75467e+06
1.96991e+06
2.0146e+06
2.01506e+06
1.83479e+06
1.38496e+06
1.03908e+06
769677
584263
459654
386042
339639
308414
283627
275646
282876
332456
1.75194e+06
1.45053e+06
1.55478e+06
1.66963e+06
1.85791e+06
1.93158e+06
2.00411e+06
1.95931e+06
1.63923e+06
1.3292e+06
1.04938e+06
836586
676689
565915
482029
419400
369027
345143
345691
367535
8.00049e+06
8.63624e+06
8.88404e+06
7.65208e+06
6.93705e+06
6.67285e+06
6.11615e+06
5.22056e+06
4.17034e+06
3.37429e+06
2.7451e+06
2.36987e+06
2.17219e+06
2.04213e+06
1.98568e+06
1.95407e+06
1.92352e+06
1.87591e+06
1.82806e+06
1.72513e+06
8.62928e+06
9.11412e+06
9.23939e+06
6.79153e+06
6.33896e+06
6.72621e+06
6.35076e+06
5.12224e+06
3.47354e+06
2.39045e+06
1.76835e+06
1.55879e+06
1.56533e+06
1.58153e+06
1.58628e+06
1.59466e+06
1.58927e+06
1.55983e+06
1.52121e+06
1.43652e+06
8.84323e+06
9.23702e+06
7.19154e+06
5.33546e+06
5.98588e+06
6.91459e+06
6.68757e+06
5.16045e+06
2.89862e+06
1.67301e+06
1.19743e+06
1.21003e+06
1.29931e+06
1.44687e+06
1.56234e+06
1.66914e+06
1.70269e+06
1.68795e+06
1.65194e+06
1.55288e+06
7.63756e+06
6.68942e+06
5.20645e+06
4.25523e+06
5.19757e+06
7.15052e+06
7.36514e+06
6.15083e+06
2.88683e+06
773982
809279
896873
1.05358e+06
1.28663e+06
1.55368e+06
1.74681e+06
1.80423e+06
1.78867e+06
1.75587e+06
1.66363e+06
6.882e+06
6.16674e+06
5.71735e+06
4.77306e+06
524755
670029
740994
836958
968094
1.16601e+06
1.46308e+06
1.74819e+06
1.96221e+06
1.99684e+06
1.97713e+06
1.87287e+06
6.55777e+06
6.53047e+06
6.68915e+06
6.9338e+06
867981
935798
940169
956740
1.00025e+06
1.08597e+06
1.25329e+06
1.561e+06
1.87318e+06
2.02204e+06
2.01852e+06
1.93462e+06
5.98852e+06
6.18454e+06
6.51904e+06
7.1593e+06
1.11176e+06
1.08128e+06
1.04589e+06
1.01025e+06
1.01137e+06
1.03249e+06
1.09534e+06
1.24461e+06
1.52422e+06
1.77756e+06
1.94995e+06
1.94683e+06
5.09337e+06
4.98218e+06
5.04931e+06
6.00284e+06
1.03268e+06
765861
796876
824033
849291
882637
934556
1.02048e+06
1.1851e+06
1.43203e+06
1.67794e+06
1.86226e+06
4.04846e+06
3.35512e+06
2.8104e+06
2.81799e+06
524681
878835
1.12174e+06
991156
145465
215728
324969
428129
512055
578333
634393
705549
813653
991695
1.21016e+06
1.49942e+06
3.2599e+06
2.27279e+06
1.57134e+06
732741
665390
948671
1.07734e+06
744143
218702
102073
128500
191535
270154
351553
428656
499953
586342
715170
880312
1.17501e+06
2.64877e+06
1.67112e+06
1.11214e+06
763768
730862
950250
1.04154e+06
782524
336116
132181
95503.1
103948
140150
204247
282327
357811
428070
518273
633228
893108
2.28884e+06
1.48349e+06
1.13169e+06
845241
816229
961669
1.00499e+06
816063
446986
203467
106348
103178
110373
136677
191213
257061
317886
385853
471337
693006
2.09749e+06
1.50224e+06
1.23319e+06
990723
934229
999266
1.00604e+06
846244
533782
290391
149617
112798
114094
123659
147162
185405
237380
298156
367269
550857
1.96924e+06
1.52925e+06
1.40029e+06
1.2181e+06
1.11827e+06
1.07997e+06
1.02763e+06
883338
598624
376454
223371
147402
126650
128782
139117
161658
200057
251632
310706
459874
1.91548e+06
1.54144e+06
1.52711e+06
1.48651e+06
1.4123e+06
1.24255e+06
1.09225e+06
938026
653302
456033
309426
210854
157771
142363
147086
164400
193732
236548
282549
397141
1.88806e+06
1.54951e+06
1.63434e+06
1.70004e+06
1.70684e+06
1.5466e+06
1.24477e+06
1.02664e+06
725317
529552
389488
281923
204089
169480
169530
177806
198481
231018
261264
347156
1.86164e+06
1.54388e+06
1.66773e+06
1.77403e+06
1.92938e+06
1.85937e+06
1.52526e+06
1.19527e+06
837726
619284
462189
346415
260393
214039
203455
204604
213622
231294
246931
308703
1.81903e+06
1.51595e+06
1.65186e+06
1.75949e+06
1.96307e+06
1.99252e+06
1.77205e+06
1.44223e+06
1.02204e+06
753890
556281
418369
323795
270656
251707
242685
236229
236654
245652
294952
1.77608e+06
1.48026e+06
1.6159e+06
1.72638e+06
1.94139e+06
1.98568e+06
1.93975e+06
1.68788e+06
1.24118e+06
922362
676111
510218
398876
335667
302872
278447
257135
249764
255884
299280
1.68161e+06
1.40199e+06
1.52031e+06
1.63663e+06
1.83639e+06
1.90362e+06
1.93732e+06
1.86522e+06
1.52356e+06
1.21502e+06
940338
741480
594924
498241
430015
376369
332418
310153
310527
333261
7.86153e+06
8.47731e+06
8.67526e+06
7.31915e+06
6.6064e+06
6.40238e+06
5.8939e+06
5.01958e+06
3.9949e+06
3.23376e+06
2.62737e+06
2.26964e+06
2.0929e+06
1.97705e+06
1.92789e+06
1.89862e+06
1.86921e+06
1.82318e+06
1.77592e+06
1.67355e+06
8.48686e+06
8.91285e+06
8.9462e+06
6.40189e+06
6.01865e+06
6.46373e+06
6.14535e+06
4.94179e+06
3.32176e+06
2.27275e+06
1.67784e+06
1.48124e+06
1.50389e+06
1.54237e+06
1.55471e+06
1.56402e+06
1.55857e+06
1.52982e+06
1.49029e+06
1.40291e+06
8.66584e+06
9.0223e+06
6.54977e+06
4.98085e+06
5.70657e+06
6.6807e+06
6.4871e+06
4.99517e+06
2.75979e+06
1.56992e+06
1.12339e+06
1.14329e+06
1.24499e+06
1.41371e+06
1.54056e+06
1.64556e+06
1.68082e+06
1.66574e+06
1.62825e+06
1.52609e+06
7.34223e+06
6.32322e+06
4.85414e+06
4.00671e+06
4.84067e+06
6.88956e+06
7.10705e+06
5.91605e+06
2.66642e+06
707054
749123
840319
997174
1.24178e+06
1.52554e+06
1.74868e+06
1.80394e+06
1.78474e+06
1.74344e+06
1.63764e+06
6.5819e+06
5.90151e+06
5.58157e+06
4.78969e+06
503913
623704
694092
785437
910363
1.09757e+06
1.38891e+06
1.6882e+06
1.92139e+06
1.98596e+06
1.96773e+06
1.86346e+06
6.34371e+06
6.33856e+06
6.54882e+06
6.73052e+06
806415
888413
896643
914060
952644
1.02537e+06
1.16238e+06
1.43028e+06
1.78101e+06
2.00252e+06
2.00871e+06
1.92715e+06
5.81724e+06
6.03961e+06
6.37967e+06
6.96335e+06
1.03954e+06
1.02783e+06
1.00011e+06
968928
967015
981199
1.02847e+06
1.13935e+06
1.37355e+06
1.68043e+06
1.89426e+06
1.90405e+06
4.94702e+06
4.86124e+06
4.92316e+06
5.80587e+06
950746
710509
749063
780252
808254
836828
878797
946212
1.0712e+06
1.28645e+06
1.55442e+06
1.7855e+06
3.91863e+06
3.25785e+06
2.72511e+06
2.70665e+06
505156
820936
1.04377e+06
929474
127147
191367
297143
402670
487119
553527
606606
665452
749554
888487
1.08907e+06
1.39877e+06
3.15669e+06
2.21335e+06
1.53037e+06
689495
614668
883381
1.0131e+06
704406
204635
87430.3
113195
177299
254668
333207
408263
478887
549675
650598
790302
1.07982e+06
2.55254e+06
1.61893e+06
1.07254e+06
722627
677039
886755
985367
741618
314863
118401
82639.7
90408.6
125711
188498
265667
342436
408935
479287
572298
810260
2.18936e+06
1.41205e+06
1.08117e+06
799580
759493
899686
953515
771898
421234
189057
92566.4
89851.8
97478.5
124744
176402
241391
303842
361112
429659
626723
2.004e+06
1.42352e+06
1.16129e+06
931512
872701
935272
952115
801308
503427
270794
132915
99210.9
101134
108184
129298
168274
221243
278756
337170
495814
1.88335e+06
1.45201e+06
1.31272e+06
1.14e+06
1.04095e+06
1.00574e+06
966978
832260
565574
349163
200628
131679
110287
111235
120401
142394
181930
232970
281942
410522
1.83222e+06
1.46695e+06
1.4384e+06
1.40325e+06
1.30869e+06
1.13651e+06
1.01573e+06
876301
614673
421416
280217
187956
136229
122116
126886
144938
176593
218236
257050
358757
1.80611e+06
1.47994e+06
1.54695e+06
1.63212e+06
1.59796e+06
1.3938e+06
1.12728e+06
945482
672079
489216
356030
254432
178866
146027
147143
157987
181076
212451
240934
317880
1.78285e+06
1.47922e+06
1.59845e+06
1.71506e+06
1.83497e+06
1.73115e+06
1.36008e+06
1.07214e+06
757699
561435
421096
315925
231604
186929
180520
183948
194475
213807
228208
282508
1.74474e+06
1.45838e+06
1.59001e+06
1.70555e+06
1.91479e+06
1.94294e+06
1.65137e+06
1.28731e+06
901603
666645
495008
374197
286857
237570
223798
218624
216617
218016
224092
265193
1.70479e+06
1.4259e+06
1.56018e+06
1.67433e+06
1.90055e+06
1.94707e+06
1.85507e+06
1.54784e+06
1.10321e+06
810992
592714
446145
347189
288913
265219
250143
234718
226201
230729
268263
1.61395e+06
1.34988e+06
1.47071e+06
1.58477e+06
1.80532e+06
1.8715e+06
1.86897e+06
1.76865e+06
1.40649e+06
1.10148e+06
835710
651334
516181
428781
377008
335690
297189
275452
276306
298465
7.76417e+06
8.34897e+06
8.52087e+06
7.12565e+06
6.42616e+06
6.25686e+06
5.76841e+06
4.90292e+06
3.87416e+06
3.12566e+06
2.53776e+06
2.18986e+06
2.02211e+06
1.91577e+06
1.87649e+06
1.85623e+06
1.83429e+06
1.79484e+06
1.75138e+06
1.6514e+06
8.35947e+06
8.73457e+06
8.73654e+06
6.1851e+06
5.87162e+06
6.33996e+06
6.03317e+06
4.83726e+06
3.20842e+06
2.17437e+06
1.60151e+06
1.41132e+06
1.43545e+06
1.48259e+06
1.51046e+06
1.53217e+06
1.53212e+06
1.51136e+06
1.47587e+06
1.38972e+06
8.48328e+06
8.79541e+06
6.21743e+06
4.79183e+06
5.60704e+06
6.57539e+06
6.37971e+06
4.90252e+06
2.65364e+06
1.48308e+06
1.05779e+06
1.07833e+06
1.17781e+06
1.35147e+06
1.49055e+06
1.60168e+06
1.65107e+06
1.64297e+06
1.61287e+06
1.51652e+06
7.12418e+06
6.09807e+06
4.67385e+06
3.84887e+06
4.72108e+06
6.69879e+06
6.9119e+06
5.76346e+06
2.60868e+06
664117
705923
792068
937113
1.17116e+06
1.46104e+06
1.71748e+06
1.79386e+06
1.78068e+06
1.74064e+06
1.63057e+06
6.40859e+06
5.76395e+06
5.46741e+06
4.6197e+06
473323
598646
664296
747235
862667
1.03771e+06
1.31855e+06
1.62571e+06
1.87546e+06
1.9706e+06
1.95857e+06
1.86347e+06
6.21047e+06
6.21538e+06
6.45583e+06
6.62242e+06
783989
875509
879303
891554
924361
989422
1.10917e+06
1.34766e+06
1.69911e+06
1.96326e+06
2.00061e+06
1.92925e+06
5.7122e+06
5.94749e+06
6.2895e+06
6.82541e+06
1.01973e+06
1.02227e+06
992066
957157
943240
953381
991909
1.08342e+06
1.28184e+06
1.59337e+06
1.83988e+06
1.87645e+06
4.85312e+06
4.77543e+06
4.84069e+06
5.68164e+06
933518
708334
743324
769760
794248
818751
853903
910089
1.01357e+06
1.19781e+06
1.46253e+06
1.72552e+06
3.83677e+06
3.18851e+06
2.65756e+06
2.59006e+06
458600
760379
987746
889042
119698
185625
290545
393412
476025
542003
593733
646251
718057
834039
1.01487e+06
1.32939e+06
3.09382e+06
2.16567e+06
1.49347e+06
660933
581218
844426
980058
682450
199828
81829.5
106372
170194
247646
324532
395632
461720
526068
615339
739053
1.01722e+06
2.50715e+06
1.59195e+06
1.05355e+06
698555
644109
849193
954185
716332
305195
111440
77008.3
84553.2
118401
180751
254300
326251
392854
458350
541684
761588
2.14907e+06
1.38611e+06
1.06392e+06
778829
724364
862486
922668
743185
404710
179624
86239.8
82310.4
90634.1
118178
166355
228846
292349
346699
406389
583141
1.96604e+06
1.3942e+06
1.13984e+06
912832
836294
896050
917097
769855
482362
258961
124195
91855.9
93770.1
99976.7
119329
157700
211596
266944
316679
457226
1.84917e+06
1.42139e+06
1.28297e+06
1.12198e+06
1.00384e+06
961258
928699
797149
542214
332720
188237
122899
101327
101445
109574
131516
172081
219974
262354
378408
1.79783e+06
1.43793e+06
1.40529e+06
1.38003e+06
1.26373e+06
1.07981e+06
969701
835687
589482
400549
261601
174487
123688
110237
115106
134387
168246
206566
239776
332843
1.77123e+06
1.45162e+06
1.50862e+06
1.6064e+06
1.54477e+06
1.31211e+06
1.06422e+06
896085
641445
465360
334545
238225
164111
132182
134524
148008
172658
199682
224406
296799
1.74784e+06
1.45135e+06
1.56164e+06
1.68858e+06
1.78322e+06
1.6463e+06
1.26443e+06
1.00421e+06
715942
531339
400249
299354
216333
172949
168500
173033
182586
199300
215485
267901
1.71034e+06
1.43178e+06
1.55589e+06
1.68171e+06
1.8816e+06
1.8965e+06
1.56103e+06
1.192e+06
838538
624480
466772
352290
269197
220277
207274
201855
200185
204663
211507
245761
1.67097e+06
1.39986e+06
1.53049e+06
1.65261e+06
1.87244e+06
1.92455e+06
1.79059e+06
1.45037e+06
1.02322e+06
753648
554178
416067
320433
264008
242201
228449
218595
212909
214511
245484
1.58043e+06
1.32387e+06
1.44619e+06
1.56145e+06
1.78705e+06
1.85685e+06
1.82613e+06
1.69848e+06
1.33122e+06
1.03461e+06
781949
602577
471117
389248
343680
308704
279612
254156
251525
272098
7.75801e+06
8.3465e+06
8.51738e+06
7.11482e+06
6.41879e+06
6.26709e+06
5.77924e+06
4.91133e+06
3.87398e+06
3.12216e+06
2.53322e+06
2.18148e+06
2.01294e+06
1.90761e+06
1.87152e+06
1.85571e+06
1.83683e+06
1.7995e+06
1.75668e+06
1.65662e+06
8.35017e+06
8.72698e+06
8.74282e+06
6.16407e+06
5.87937e+06
6.36706e+06
6.05198e+06
4.84784e+06
3.2094e+06
2.17191e+06
1.60057e+06
1.40161e+06
1.42352e+06
1.46995e+06
1.5022e+06
1.52971e+06
1.53252e+06
1.51459e+06
1.48083e+06
1.395e+06
8.47863e+06
8.78171e+06
6.18625e+06
4.7449e+06
5.64923e+06
6.62103e+06
6.40743e+06
4.91325e+06
2.65682e+06
1.48676e+06
1.05996e+06
1.07407e+06
1.16491e+06
1.33278e+06
1.477e+06
1.59519e+06
1.65208e+06
1.64631e+06
1.61866e+06
1.52335e+06
7.11552e+06
6.08869e+06
4.67715e+06
3.78848e+06
4.8289e+06
6.70313e+06
6.88528e+06
5.72924e+06
2.56103e+06
664888
707660
792357
932767
1.15891e+06
1.44712e+06
1.70789e+06
1.79411e+06
1.78375e+06
1.74656e+06
1.63856e+06
6.39522e+06
5.72856e+06
5.40482e+06
4.43396e+06
442695
590440
657254
740451
854541
1.02695e+06
1.30348e+06
1.61202e+06
1.86861e+06
1.97296e+06
1.96275e+06
1.87032e+06
6.19601e+06
6.18483e+06
6.41927e+06
6.58098e+06
767884
864593
868926
881614
914985
980914
1.10064e+06
1.33942e+06
1.69437e+06
1.96709e+06
2.00661e+06
1.93506e+06
5.69836e+06
5.93104e+06
6.27605e+06
6.78341e+06
1.00631e+06
1.01326e+06
985595
952227
940142
950814
990166
1.0818e+06
1.27993e+06
1.59289e+06
1.84235e+06
1.87886e+06
4.84481e+06
4.76704e+06
4.83495e+06
5.64735e+06
932263
709482
743256
768395
792685
817613
853261
909603
1.01258e+06
1.19693e+06
1.46217e+06
1.72689e+06
3.83852e+06
3.19282e+06
2.66745e+06
2.63996e+06
439866
747493
974980
883171
120849
193307
298470
399577
480100
543208
592973
644306
715330
831483
1.01285e+06
1.32774e+06
3.10058e+06
2.17143e+06
1.49717e+06
658193
582869
851578
989364
687446
198555
81876.1
108129
173662
251270
325764
394983
461170
524699
613162
736297
1.01376e+06
2.51678e+06
1.59767e+06
1.05852e+06
698002
648083
856319
965213
723513
304261
110955
76968.6
85084.3
119804
180667
252237
324611
391250
454908
536694
755939
2.16312e+06
1.3965e+06
1.07182e+06
783482
731863
869891
934564
751930
405172
179515
86450.1
82948.7
90627.7
117478
165138
227130
289608
342364
401290
577667
1.98289e+06
1.41064e+06
1.15488e+06
927279
848173
904183
929384
779934
485675
260185
124646
91838.2
93510.1
99828.8
118951
156325
208969
263070
312361
452377
1.86585e+06
1.44148e+06
1.30381e+06
1.14824e+06
1.02205e+06
970873
941415
807910
549072
337061
190014
122886
101564
101876
110059
131464
170511
217137
259119
374480
1.81291e+06
1.45496e+06
1.42591e+06
1.41165e+06
1.29159e+06
1.09315e+06
983784
846967
598240
406650
265123
175255
124817
111107
115852
134667
168082
205835
238441
330317
1.78357e+06
1.46562e+06
1.52838e+06
1.63279e+06
1.57484e+06
1.33375e+06
1.08118e+06
908599
651305
471704
338957
241001
166364
133509
135625
148879
173111
200120
224343
295574
1.75663e+06
1.46255e+06
1.5736e+06
1.70244e+06
1.80612e+06
1.67516e+06
1.28592e+06
1.01921e+06
726509
538422
405447
304905
219958
175128
170215
174618
183650
199920
215705
267321
1.71555e+06
1.4386e+06
1.56465e+06
1.69142e+06
1.89121e+06
1.91961e+06
1.58714e+06
1.20841e+06
849433
632068
473820
359204
273915
223828
210140
203694
201072
205091
211443
245309
1.67338e+06
1.40337e+06
1.53511e+06
1.65753e+06
1.87904e+06
1.93675e+06
1.81143e+06
1.46907e+06
1.03498e+06
761867
562572
422490
325629
267925
245247
230436
219604
213242
214599
245116
1.57982e+06
1.32382e+06
1.44583e+06
1.56075e+06
1.78856e+06
1.86256e+06
1.83303e+06
1.71323e+06
1.34349e+06
1.04326e+06
789553
608330
475867
393180
346772
311103
281320
254972
252145
272211
7.83885e+06
8.45976e+06
8.67937e+06
7.31766e+06
6.60818e+06
6.4245e+06
5.91332e+06
5.02917e+06
3.98045e+06
3.21624e+06
2.61239e+06
2.24967e+06
2.07278e+06
1.96034e+06
1.91932e+06
1.89802e+06
1.87495e+06
1.83357e+06
1.78814e+06
1.68599e+06
8.4563e+06
8.89139e+06
8.95651e+06
6.38311e+06
6.05476e+06
6.52e+06
6.17892e+06
4.957e+06
3.29891e+06
2.24649e+06
1.66395e+06
1.45937e+06
1.47974e+06
1.51977e+06
1.54135e+06
1.56154e+06
1.56112e+06
1.53883e+06
1.50172e+06
1.41445e+06
8.62245e+06
8.97759e+06
6.50018e+06
4.92733e+06
5.80293e+06
6.76725e+06
6.53734e+06
5.01455e+06
2.72933e+06
1.5407e+06
1.1061e+06
1.12375e+06
1.21791e+06
1.38357e+06
1.51593e+06
1.63093e+06
1.68323e+06
1.67502e+06
1.64166e+06
1.54e+06
7.30841e+06
6.27869e+06
4.81038e+06
3.84264e+06
4.95094e+06
6.84386e+06
7.01769e+06
5.84745e+06
2.61479e+06
698098
740253
829023
978745
1.21383e+06
1.49737e+06
1.73383e+06
1.80666e+06
1.79323e+06
1.75616e+06
1.6526e+06
6.54911e+06
5.83251e+06
5.45878e+06
4.4399e+06
463454
616078
685430
772484
892065
1.07302e+06
1.35789e+06
1.66031e+06
1.9073e+06
1.99097e+06
1.97609e+06
1.87654e+06
6.30746e+06
6.27481e+06
6.48081e+06
6.63388e+06
773761
879728
886608
903004
940984
1.01306e+06
1.14661e+06
1.4083e+06
1.7649e+06
2.00468e+06
2.01616e+06
1.93656e+06
5.78535e+06
5.99674e+06
6.33298e+06
6.85045e+06
1.00774e+06
1.02314e+06
995721
963904
961656
975764
1.02259e+06
1.13021e+06
1.35796e+06
1.66961e+06
1.89228e+06
1.90687e+06
4.92042e+06
4.82365e+06
4.87979e+06
5.71501e+06
927222
719988
755372
784064
810634
837857
877781
942731
1.06321e+06
1.27495e+06
1.54633e+06
1.78423e+06
3.90899e+06
3.2361e+06
2.69196e+06
2.59228e+06
455960
782414
1.01005e+06
909324
123156
203106
310261
412844
494092
557414
607121
662653
743710
880604
1.08127e+06
1.39394e+06
3.16244e+06
2.21044e+06
1.52331e+06
693202
620065
893148
1.02561e+06
708316
201756
87891.8
116355
183881
261465
336861
407147
474420
543834
643795
782888
1.0722e+06
2.57039e+06
1.6314e+06
1.08648e+06
731905
685375
897106
997672
746957
310804
117347
82574.4
91496.7
128395
190934
266024
338990
402123
472427
565305
801809
2.21759e+06
1.43871e+06
1.10346e+06
818548
770755
910564
965090
779143
418579
187351
91709.8
89957.8
97701.5
125600
175849
238109
297893
353885
422231
619012
2.03694e+06
1.45773e+06
1.19685e+06
967392
890325
946801
962912
809134
503958
269781
131172
98296.3
100511
107695
128558
165775
216769
272876
330499
487630
1.9159e+06
1.48883e+06
1.35495e+06
1.19798e+06
1.07254e+06
1.01836e+06
977467
840035
569945
350579
199154
129632
108990
110411
119735
141292
179351
228568
275853
403322
1.86051e+06
1.49524e+06
1.47284e+06
1.46881e+06
1.35653e+06
1.15427e+06
1.02681e+06
883898
621179
426200
281500
186739
134901
121400
126305
144406
176486
217282
254493
354124
1.8287e+06
1.50285e+06
1.57691e+06
1.68367e+06
1.64276e+06
1.42087e+06
1.14059e+06
953569
679476
496499
361353
257072
179344
145753
147029
158422
181784
213293
240895
315310
1.79896e+06
1.49682e+06
1.61202e+06
1.73888e+06
1.87173e+06
1.76751e+06
1.37813e+06
1.08175e+06
765266
569335
429041
322090
234516
187897
181535
185207
195974
215315
228824
280800
1.75441e+06
1.46828e+06
1.59834e+06
1.72076e+06
1.93098e+06
1.972e+06
1.67969e+06
1.29923e+06
910422
675198
502950
381322
291533
240970
226652
220923
218314
219304
224202
264278
1.70943e+06
1.43019e+06
1.56323e+06
1.681e+06
1.91165e+06
1.96884e+06
1.87632e+06
1.56781e+06
1.11702e+06
821283
601016
453127
353071
294268
270305
254082
237111
227123
231167
267356
1.61296e+06
1.34795e+06
1.46722e+06
1.58071e+06
1.80705e+06
1.87976e+06
1.8791e+06
1.7844e+06
1.42147e+06
1.11418e+06
846243
659444
523675
436712
384369
341446
300743
276639
276484
297304
7.99114e+06
8.6273e+06
8.88462e+06
7.64445e+06
6.93362e+06
6.67953e+06
6.12215e+06
5.21518e+06
4.14649e+06
3.35405e+06
2.73263e+06
2.36046e+06
2.16469e+06
2.03697e+06
1.986e+06
1.95885e+06
1.93189e+06
1.88692e+06
1.84013e+06
1.73713e+06
8.60665e+06
9.09149e+06
9.21638e+06
6.78216e+06
6.36606e+06
6.76197e+06
6.36953e+06
5.12449e+06
3.43881e+06
2.35426e+06
1.74855e+06
1.54662e+06
1.55846e+06
1.57854e+06
1.58656e+06
1.59916e+06
1.59661e+06
1.57059e+06
1.53326e+06
1.44831e+06
8.79939e+06
9.20712e+06
7.15354e+06
5.32308e+06
6.05161e+06
6.98377e+06
6.72455e+06
5.17578e+06
2.86039e+06
1.62469e+06
1.16775e+06
1.18851e+06
1.28852e+06
1.44455e+06
1.56239e+06
1.67386e+06
1.71259e+06
1.6992e+06
1.66437e+06
1.56541e+06
7.61029e+06
6.65333e+06
5.16907e+06
4.05236e+06
5.14966e+06
7.07711e+06
7.2445e+06
6.0374e+06
2.7422e+06
759421
791210
877797
1.03736e+06
1.27673e+06
1.54796e+06
1.7526e+06
1.8178e+06
1.80355e+06
1.77099e+06
1.67806e+06
6.84934e+06
6.10348e+06
5.63462e+06
4.58907e+06
486686
665401
733947
824126
950745
1.14756e+06
1.44896e+06
1.74014e+06
1.96378e+06
2.00812e+06
1.98966e+06
1.88674e+06
6.52035e+06
6.47048e+06
6.62435e+06
6.79036e+06
810258
925792
930468
947033
989827
1.07467e+06
1.2405e+06
1.54709e+06
1.86942e+06
2.03066e+06
2.02838e+06
1.94584e+06
5.94897e+06
6.13032e+06
6.46286e+06
6.98807e+06
1.04359e+06
1.07053e+06
1.03676e+06
1.00135e+06
1.00235e+06
1.02351e+06
1.08664e+06
1.23352e+06
1.51112e+06
1.77403e+06
1.95323e+06
1.95331e+06
5.06473e+06
4.93937e+06
4.99498e+06
5.84068e+06
964551
757579
792311
821445
846995
879448
929698
1.01344e+06
1.17395e+06
1.4204e+06
1.67189e+06
1.86445e+06
4.03616e+06
3.33084e+06
2.77596e+06
2.74228e+06
483471
831040
1.0679e+06
962784
138346
215012
326466
431786
516827
581734
635151
703527
809337
986114
1.20556e+06
1.4982e+06
3.2608e+06
2.2656e+06
1.5586e+06
732748
664507
944865
1.08422e+06
757503
221383
100920
128993
194585
274085
354513
430038
500395
586030
713963
878362
1.17271e+06
2.65792e+06
1.67366e+06
1.1137e+06
765365
733585
948184
1.04929e+06
793084
338234
131532
93958
102558
139844
204903
283342
359087
428761
517221
631049
890047
2.30606e+06
1.49829e+06
1.13989e+06
852210
823360
962658
1.01342e+06
824206
447841
202719
104019
100914
108394
135732
191152
257207
317351
383789
468502
690431
2.11843e+06
1.52263e+06
1.2534e+06
1.01155e+06
948205
1.0035e+06
1.01472e+06
852828
534788
288773
145828
109762
111699
121770
145749
183678
235478
295767
364286
547929
1.99098e+06
1.55144e+06
1.42655e+06
1.25597e+06
1.14575e+06
1.08713e+06
1.03659e+06
889022
600965
375001
218648
142884
123789
126509
137291
160308
198395
249292
307900
457672
1.93503e+06
1.55876e+06
1.54756e+06
1.53149e+06
1.45417e+06
1.25402e+06
1.10177e+06
943374
656021
455559
305702
206417
154253
139969
145410
163552
193704
236460
282277
396648
1.90395e+06
1.56448e+06
1.65232e+06
1.73878e+06
1.74934e+06
1.56296e+06
1.25376e+06
1.03175e+06
727646
529457
387824
279506
200172
167277
168011
177516
199061
232621
262794
347221
1.87327e+06
1.55613e+06
1.6775e+06
1.79043e+06
1.96161e+06
1.88682e+06
1.53731e+06
1.20011e+06
839100
619043
461683
345268
257823
212160
202419
204719
214915
232508
247257
308345
1.82613e+06
1.52395e+06
1.65934e+06
1.77023e+06
1.98422e+06
2.02407e+06
1.7939e+06
1.4495e+06
1.02351e+06
753331
555486
417180
322327
268930
251434
243727
237230
237065
245887
294495
1.77927e+06
1.48416e+06
1.61973e+06
1.73135e+06
1.95885e+06
2.01402e+06
1.95787e+06
1.69916e+06
1.24635e+06
923095