/*--------------------------------*- C++ -*----------------------------------*\
  =========                 |
  \\      /  F ield         | OpenFOAM: The Open Source CFD Toolbox
   \\    /   O peration     | Website:  https://openfoam.org
    \\  /    A nd           | Version:  9
     \\/     M anipulation  |
\*---------------------------------------------------------------------------*/
FoamFile
{
    format      ascii;
    class       surfaceScalarField;
    location    "0.0045";
    object      phi;
}
// * * * * * * * * * * * * * * * * * * * * * * * * * * * * * * * * * * * * * //

dimensions      [0 3 -1 0 0 0 0];

internalField   nonuniform List<scalar> 
28500
(
-198.628
-199.185
-20.5182
-160.375
-206.913
-16.5943
-135.008
-214.659
-19.1999
-104.315
-250.254
-23.5881
-56.2123
-284.204
-24.2024
6.00273
-298.147
-24.7986
74.7797
-298.71
-26.4636
151.705
-302.842
-25.0521
226.999
-290.529
-27.3655
284.364
-245.825
-22.5185
326.663
-193.248
-26.941
355.657
-154.842
-25.5392
379.932
-127.957
-23.5978
400.69
-111.599
-25.2705
419.682
-102.19
-26.9828
439.325
-94.0915
-25.703
459.899
-87.3299
-27.0972
480.902
-83.9611
-29.9453
501.9
-79.5159
-32.2331
-75.4022
-34.3208
-206.127
-161.69
-16.2794
-169.971
-171.684
-11.9949
-161.038
-183.715
-13.9759
-135.589
-228.634
-18.9329
-73.7094
-284.035
-25.0709
-2.52374
-293.951
-24.7437
77.6181
-290.587
-25.1142
177.238
-294.431
-22.5978
280.791
-270.277
-25.0423
345.996
-202.297
-19.6258
380.696
-143.148
-24.4278
396.551
-101.434
-23.1001
408.603
-74.6529
-20.9355
421.944
-56.1757
-22.5083
436.608
-47.1878
-24.9233
453.2
-42.1174
-24.1227
471.388
-38.3206
-25.3263
490.653
-36.6983
-27.8951
510.338
-35.8157
-30.8382
-35.837
-34.2102
-213.748
-134.68
-17.688
-183.73
-160.164
-12.3492
-196.523
-194.738
-10.2282
-161.606
-58.0646
-19.5274
-62.2103
-59.1285
-63.4102
-83.0202
-67.8736
-26.6001
-69.6111
-69.0734
-70.6173
-6.55818
-71.4549
-24.1722
-70.4151
-72.4224
-71.2263
77.7309
-69.6024
-23.2636
-69.3712
-70.3658
-70.3698
196.016
-69.7354
-21.3079
-69.2599
-70.5339
-70.1471
316.217
-61.5673
-20.3181
-49.8609
-62.4872
-50.6201
377.365
-148.6
-19.6015
404.239
-111.222
-23.8801
415.502
-79.9222
-21.2566
418.403
-56.0346
-22.5682
424.306
-33.2014
-22.9927
435.212
-14.4336
-21.8045
450.838
-12.9799
-18.7113
469.052
-9.22332
-17.9019
489.332
-6.47837
-18.654
510.469
-4.53399
-19.7244
-4.1805
-23.884
-248.991
-102.893
-19.6193
-228.294
-133.874
-13.0902
-58.6272
-161.283
-14.6243
-63.1433
-58.953
-63.0611
-57.7503
-57.1892
-5.13756
-33.5091
-7.14564
50.6516
-16.3766
-16.0944
-16.126
-16.3461
21.523
-10.1021
-6.83573
-17.5612
-17.6918
-17.7462
-17.5413
0.350515
9.59898
-6.48832
-17.3825
-17.1191
-17.1563
-17.3489
-21.4783
33.8393
-6.51141
-17.4938
-17.1134
-17.1656
-17.4437
-58.2652
75.417
-56.9981
-6.58603
441.178
-90.5825
-20.0639
-97.5742
-106.528
-97.5525
-107.491
456.483
-78.0829
-25.0753
457.35
-60.6135
-26.8008
443.776
-41.8819
-24.8733
431.832
-20.9436
-26.3271
433.841
-4.15897
-29.2809
446.984
6.87263
-29.4977
464.968
15.552
-28.7781
485.668
21.0896
-29.957
507.27
25.2236
-29.1739
26.7914
-30.0496
-282.292
-55.0162
-22.888
-283.82
-73.1555
-22.7512
-68.6436
-82.904
-23.3309
-70.5156
-69.1011
-71.245
-33.2631
-5.23709
51.7686
-16.8673
-16.9234
-17.0921
-16.8427
4.39614
26.5438
-4.33483
-1.99723
523.828
-38.1499
-30.9932
-124.222
-134.34
-125.963
-137.09
520.095
-35.0876
-33.4083
513.418
-28.8704
-35.1419
500.621
-19.5757
-35.3663
478.323
-6.7642
-36.7706
459.025
6.47648
-35.2546
457.586
22.385
-28.9305
465.49
34.4674
-28.6358
478.709
41.6111
-30.7534
495.95
47.8788
-31.3825
52.1761
-33.6063
-298.442
7.35827
-24.7267
-295.009
-1.29637
-24.6933
-71.4424
-5.5157
-24.5567
-70.4099
-72.2588
-71.1446
21.3874
-9.9131
-6.74069
-17.5355
-17.6479
-17.6828
-17.4953
2.17757
34.2924
-1.25337
-2.2639
569.293
16.2349
-36.5591
-139.297
-141.854
-142.351
-145.027
569.047
15.5986
-37.8404
566.942
16.216
-38.2183
561.513
19.3034
-38.2391
548.122
28.0875
-38.5139
520.436
38.114
-37.7737
495.622
48.083
-30.7699
492.587
63.4815
-30.3869
497.67
73.9059
-33.0597
507.864
80.4115
-34.0722
84.3002
-36.5802
-298.083
76.3854
-27.3193
-290.757
79.7126
-26.5913
-69.7955
79.9963
-24.7863
-69.4958
-70.5638
-70.4571
0.0677417
10.0608
-6.87339
-17.412
-17.1345
-17.1715
-17.3726
-1.07728
35.7193
1.79724
-2.32161
596.043
86.1712
-37.1113
-145.321
-148.213
-148.518
-151.376
597.108
87.6967
-37.7106
596.23
86.0104
-38.1332
593.396
83.7108
-38.2165
587.202
83.9838
-38.2306
572.187
89.4196
-39.5423
545.354
96.3333
-35.369
522.201
104.316
-29.6697
519.192
111.755
-32.1227
522.815
112.463
-33.5181
112.328
-35.4501
-302.675
153.045
-26.4733
-294.516
178.921
-24.8566
-69.6505
198.109
-24.0001
-69.2105
-70.526
-69.9433
-22.0403
34.5601
-6.87865
-17.4229
-17.1183
-17.1599
-17.2922
-4.42926
37.1941
6.16496
-2.33276
620.243
209.473
-35.2231
-151.382
-152.85
-154.627
-155.796
624.146
192.835
-37.226
626.487
181.464
-37.56
628.046
171.032
-37.6673
626.717
158.791
-36.5061
622.72
153.497
-35.2288
611.211
152.177
-34.6238
589.828
152.991
-31.2786
570.638
157.892
-27.7382
567.86
152.347
-30.8775
147.231
-32.4786
-289.288
228.23
-29.5661
-268.961
282.364
-29.2418
-60.8536
317.808
-26.9963
-48.979
-62.5169
-51.0225
-58.1266
-56.7059
76.5895
-7.46971
7.06425
-3.78912
28.9891
-3.45966
2.40232
-1.46794
33.8558
-2.31931
-1.01247
1.81239
35.2324
-2.30718
-4.6636
6.39366
36.7417
-2.21955
-11.6245
-14.2403
128.67
134.835
-10.9205
-18.1676
-10.7441
-17.2859
-19.2653
-16.1166
-20.0897
589.344
410.026
-39.3854
-140.874
-128.742
-143.535
-129.704
601.939
341.982
-43.1438
616.384
309.414
-38.9985
627.634
290.524
-34.2512
636.077
270.27
-33.9469
640.122
251.786
-37.7048
636.34
235.731
-38.6298
625.093
226.989
-35.7338
607.302
225.835
-29.7465
598.035
219.815
-27.9204
209.546
-29.2986
-244.162
285.218
-25.7632
-200.849
346.893
-25.3538
-147.537
377.706
-27.7475
-93.6699
438.866
-25.9729
-97.7071
-107.297
-97.6415
-106.854
-43.0072
517.612
-33.6724
-123.92
-133.093
-124.998
-134.599
14.0573
557.847
-36.0679
-136.983
-139.505
-138.655
-141.245
88.2915
586.153
-36.3394
-142.895
-146.026
-145.117
-148.513
214.611
610.344
-32.0639
-149.601
-151.529
-152.406
-155.004
388.636
584.697
-36.5902
-142.375
-133.296
-145.346
-135.358
512.174
516.285
-46.827
553.257
448.389
-23.7435
578.3
399.295
-25.2961
600.985
373.355
-32.8905
615.695
350.557
-35.0144
627.465
326.447
-36.3692
636.339
307.136
-37.1302
637.574
289.469
-32.3955
631.19
280.67
-25.8962
623.305
275.483
-22.7075
261.324
-24.5135
-191.73
327.034
-30.3791
-142.421
380.733
-30.0452
-110.956
404.215
-30.792
-80.3286
452.65
-30.8699
-38.8681
513.726
-35.7622
14.1896
557.895
-37.4971
87.6725
587.622
-37.6105
196.109
612.833
-34.3337
326.951
597.717
-34.2296
427.527
548.11
-30.4697
501.501
505.312
-19.9935
543.553
464.458
-28.5422
565.558
426.538
-32.7766
582.128
405.049
-33.3434
599.267
386.32
-32.6306
618.219
370.374
-29.6713
633.744
354.292
-31.2707
638.441
336.98
-30.7862
637.303
328.593
-28.7285
311.571
-27.529
-153.46
355.461
-28.5312
-101.775
395.642
-27.2824
-80.8376
415.108
-26.6558
-62.9249
453.51
-30.6325
-31.8419
507.104
-36.0028
15.3584
556.373
-37.9103
84.9325
587.057
-38.4184
181.942
614.713
-35.3436
302.757
611.371
-30.6014
384.421
574.677
-23.7413
446.612
540.108
-32.4699
499.905
506.261
-35.0038
529.017
461.353
-40.6877
550.826
439.694
-32.3467
575.255
425.448
-22.81
600.484
421.217
-19.5464
621.424
408.576
-27.3529
634.924
389.388
-33.195
637.423
377.222
-29.9493
356.85
-25.3663
-126.565
379.272
-26.32
-75.2315
407.27
-24.1621
-57.57
417.442
-26.0291
-43.9798
441.389
-26.8773
-21.3793
494.671
-34.7753
18.4172
551.766
-37.709
82.1606
584.552
-38.2585
169.998
616.772
-35.8903
284.625
621.845
-27.7892
365.454
597.763
-25.3168
416.852
564.208
-32.6692
450.595
530.95
-41.3997
484.493
491.757
-42.7604
521.183
476.543
-22.0897
548.199
454.755
-7.44909
575.755
452.059
-13.34
597.291
443.529
-21.8863
615.829
429.432
-33.8109
625.219
419.603
-31.4643
399.334
-25.2064
-110.404
399.729
-28.2067
-56.5164
420.459
-26.0601
-36.2084
422.86
-26.147
-24.2529
430.446
-26.9354
-8.56704
473.752
-34.307
26.7231
539.373
-37.3276
82.1162
578.604
-37.8165
157.003
616.021
-34.9009
264.913
629.518
-28.9518
344.83
612.762
-27.2867
400.373
581.375
-29.9257
433.607
549.874
-32.4356
467.691
524.329
-22.382
504.118
509.407
-8.73967
530.057
483.832
-9.89969
553.52
470.057
-22.0379
573.238
461.308
-23.4828
595.74
454.422
-34.8375
612.307
454.449
-29.2429
438.362
-19.8314
-101.143
418.509
-30.0222
-47.2324
435.08
-28.6905
-17.2282
433.833
-25.4117
-7.52817
432.919
-29.6784
4.10082
455.628
-31.7366
35.9653
513.405
-35.8165
87.4354
563.986
-38.3006
151.488
612.79
-33.4324
246.652
633.039
-33.6741
321.062
624.116
-30.173
382.42
598.162
-27.3039
423.871
574.769
-19.1341
452.817
550.486
-8.36677
478.968
533.609
-10.8136
502.69
508.201
-21.4656
524.561
488.49
-22.2744
547.577
477.968
-17.3789
570.456
475.128
-21.865
593.722
486.385
-12.002
475.387
-8.61789
-93.3163
438.032
-28.8839
-42.1762
451.631
-28.0461
-14.4082
449.596
-22.6936
4.79864
445.65
-30.6821
20.1638
454.605
-27.8059
45.5853
491.197
-29.7013
93.8177
538.627
-33.3336
149.687
602.204
-32.5049
230.483
629.147
-35.1143
301.703
632.425
-30.8025
365.662
616.655
-22.4835
418.641
599.847
-13.7699
452.204
578.476
-12.0042
470.125
557.393
-21.6797
485.444
529.04
-23.2357
506.705
509.821
-13.8239
529.98
500.463
-9.37204
553.349
498.31
-7.837
578.979
510.625
-1.98224
503.135
-7.96023
-86.6932
458.622
-30.1719
-38.4784
469.935
-29.1299
-10.1122
467.947
-21.9517
13.7474
463.582
-30.5307
31.9579
462.945
-29.2169
61.0526
489.105
-30.4247
101.774
518.185
-28.4947
149.75
582.702
-29.0314
221.77
618.473
-32.1488
284.297
633.364
-26.6501
348.991
631.251
-23.6843
404.762
620.104
-21.1137
443.297
599.289
-18.4549
463.395
576.745
-21.6894
479.416
550.356
-17.3073
500.702
531.44
-9.10921
525.169
524.088
-2.64278
547.427
520.726
0.699731
569.532
526.124
-5.85178
522.438
-15.1036
-83.4041
479.716
-32.9169
-36.9004
489.344
-31.5831
-7.16225
488.259
-22.7266
19.3257
484.229
-32.2195
39.0123
476.675
-32.2703
71.0716
494.709
-33.505
108.51
516.054
-31.7948
153.777
566.562
-26.6766
220.173
602.384
-26.6134
275.18
627.282
-21.1398
331.971
635.495
-24.8707
385.694
632.967
-27.3896
428.148
615.968
-28.9121
455.775
597.152
-31.0891
478.572
572.287
-19.9029
502.91
554.176
-6.37642
523.957
546.472
1.3078
541.592
540.867
-1.88505
563.004
543.174
-18.0947
540.385
-26.0271
-78.9745
500.782
-34.9174
-36.058
509.117
-34.202
-5.30208
509.377
-23.6516
23.4337
505.883
-31.8271
45.39
494.373
-33.5195
77.4667
505.33
-34.5318
109.188
520.557
-33.1903
148.667
564.81
-29.8662
213.767
595.024
-25.9868
269.357
620.452
-19.3086
322.879
634.593
-23.7354
372.688
635.565
-24.5479
416.637
624.408
-26.4668
452.97
611.842
-24.5511
487.451
594.09
-8.02482
515.272
579.142
2.21396
531.225
569.545
-1.58957
546.667
564.635
-15.8463
558.063
554.807
-28.364
552.694
-25.1929
-74.8792
-36.6268
-36.037
-37.0304
-4.92087
-27.1585
25.1167
-32.5683
49.9032
-35.763
81.4094
-37.0145
109.156
-35.2725
143.844
-31.441
204.768
-27.513
255.55
-21.7967
305.59
-23.5257
351.631
-21.1514
395.094
-20.9018
435.129
-15.4406
473.991
-4.11447
505.241
-2.77844
526.203
-9.46908
543.57
-21.6928
557.845
-23.2249
-16.4863
-198.863
-200.05
-11.5594
-160.355
-208.337
-7.54425
-137.513
-217.304
-7.72539
-107.66
-255.51
-8.23657
-57.8248
-293.878
-10.9249
5.29335
-305.868
-12.6317
74.7669
-305.143
-13.895
152.382
-308.099
-13.2868
228.185
-295.962
-14.3883
285.645
-250.793
-9.89491
328.412
-197.696
-13.7299
357.34
-158.155
-12.2582
381.472
-130.794
-10.0341
401.81
-113.05
-11.154
420.388
-103.151
-13.2648
439.808
-95.1529
-13.4221
460.466
-88.4412
-15.0742
481.598
-85.3549
-17.5227
502.567
-81.2464
-19.6097
-77.2801
-21.4191
-206.357
-162.134
-7.66476
-169.292
-171.449
-2.63708
-165.946
-191.5
-1.36346
-140.856
-238.441
-2.40983
-74.6896
-296.391
-10.7777
-2.29238
-302.713
-12.1853
77.9018
-298.262
-12.7424
178.211
-300.841
-11.6182
282.476
-276.509
-12.2976
347.904
-207.902
-6.13548
383.513
-148.085
-11.0891
399.84
-106.729
-9.61554
411.259
-78.846
-6.4715
423.573
-59.0166
-7.75425
437.566
-48.3145
-10.8332
453.548
-42.8989
-11.6889
471.767
-39.2711
-13.6637
491.312
-37.9233
-16.1659
511.175
-37.4729
-18.9522
-37.931
-21.8298
-215.225
-136.67
-7.70616
-190.012
-164.664
-2.07461
-207.381
-207.589
4.92122
-166.01
-61.0713
-4.79739
-66.1645
-61.6028
-66.5901
-82.042
-70.8739
-12.6584
-72.8065
-71.2809
-73.6192
-4.97645
-74.1079
-12.7334
-73.0364
-74.6446
-73.4699
79.4232
-72.1196
-12.0615
-71.9209
-72.5381
-72.6285
197.359
-72.1698
-10.79
-71.84
-72.5277
-72.2983
318.76
-63.8138
-7.1792
-52.3333
-63.5065
-51.9755
379.277
-151.882
-5.03262
406.323
-113.384
-10.1638
420.461
-83.031
-9.05379
423.148
-58.6883
-7.76561
426.999
-37.4613
-7.05149
436.455
-16.52
-6.92176
451.036
-13.4846
-5.40988
468.811
-10.6424
-6.1472
489.033
-7.95515
-7.74832
510.295
-6.05273
-9.96808
-6.0936
-14.1864
-252.941
-105.71
-7.3986
-235.645
-139.419
-1.85403
-60.4999
-165.148
-5.73536
-65.3392
-62.3042
-65.6528
3.2986
-59.5992
-59.3556
-2.69095
5.99755
-32.8458
-4.32333
52.7775
-17.6016
-17.979
-17.5098
-18.0626
5.3963
21.2302
-9.92946
-4.42169
-18.2131
-18.4844
-18.1872
-18.5158
5.06683
0.156263
9.85929
-4.15526
-18.0884
-17.8109
-18.0557
-17.8543
4.89757
-21.7803
34.0372
-3.92138
-18.1293
-17.8414
-18.1662
-17.9232
-58.8803
3.51334
76.0698
-59.3156
-2.8249
445.328
-93.3422
-4.56446
-98.4085
-107.875
-98.6604
-108.922
460.508
-79.6764
-5.6867
462.992
-62.7893
-9.4761
452.012
-43.9038
-8.27386
437.944
-23.8379
-8.09884
437.904
-6.22
-13.4157
448.339
4.5089
-15.88
465.621
13.5931
-17.0187
485.798
19.399
-18.5832
506.965
23.5517
-18.6447
24.9894
-19.9507
-290.223
-56.9054
-10.8058
-293.307
-74.913
-11.4495
-70.0368
-83.1627
-14.3846
-72.9506
-70.2148
-73.34
4.0128
-33.8463
-3.57534
51.3808
-17.1895
-16.6198
-17.2075
-16.6506
1.3256
4.91913
26.6242
-4.80487
-1.0649
537.298
-41.0555
-21.4764
-128.418
-139.773
-128.938
-140.413
531.926
-37.6018
-21.9525
524.702
-31.1566
-22.3936
512.608
-21.7087
-21.1561
491.494
-8.61522
-20.8729
469.131
3.88365
-18.8386
463.578
20.4733
-14.2935
469.302
33.0168
-16.3735
481.15
39.5364
-19.0245
497.275
45.6379
-21.2832
49.7085
-24.4313
-305.918
6.2231
-12.3436
-303.044
-2.14916
-12.2771
-73.7687
-5.32363
-13.7165
-72.7872
-74.426
-73.1034
5.44483
21.7042
-9.94909
-4.53495
-18.1748
-18.3926
-18.1723
-18.4589
1.81787
2.38744
35.9328
-1.45655
-1.70244
587.549
14.926
-25.4759
-145.361
-148.138
-145.913
-148.908
586.278
14.4074
-24.8251
583.347
15.3781
-24.4362
577.516
18.218
-23.6271
565.098
26.4514
-23.5814
539.802
36.8978
-21.8585
509.165
46.4419
-12.6096
501.233
61.2745
-14.4037
504.59
71.7189
-20.6744
513.146
78.7184
-24.2519
82.2646
-27.6912
-304.793
76.0841
-14.6223
-298.445
79.0897
-13.8611
-72.2295
80.0683
-12.8713
-71.9394
-72.5425
-72.5711
5.39576
0.0182385
10.1605
-4.3697
-18.0909
-17.8162
-18.0654
-17.8488
1.90188
-0.935814
37.4521
1.68522
-1.79432
616.024
87.1157
-25.6539
-151.66
-154.601
-152.663
-155.748
616.559
88.0562
-25.3684
615.624
86.5821
-24.6226
612.88
84.0555
-23.9163
607.278
83.7045
-22.6957
594.283
88.202
-22.9008
568.717
94.8377
-18.9227
539.71
103.434
-10.1
531.204
111.128
-13.267
532.534
113.345
-20.4682
112.65
-23.8887
-308.562
153.664
-14.051
-301.684
179.643
-12.8121
-71.9969
198.568
-12.7312
-71.6244
-72.3231
-72.2327
5.357
-22.0989
34.441
-4.38992
-17.9792
-17.8697
-17.9654
-17.8958
1.90314
-4.34207
38.9457
6.05676
-1.78242
641.192
211.991
-21.227
-157.896
-158.924
-159.021
-160.709
644.59
195.624
-21.8879
646.215
183.375
-22.1177
647.399
172.747
-21.9302
646.26
160.413
-21.027
642.553
153.637
-19.1226
632.753
152.374
-17.58
612.624
152.521
-14.1702
588.86
157.314
-7.35561
581.497
155.221
-12.2298
149.509
-17.3652
-295.849
229.469
-16.3716
-276.39
284.08
-16.0538
-62.9393
319.686
-14.4219
-51.5087
-63.3065
-51.8782
-58.2905
4.60802
-59.162
76.5034
-4.39122
1.55331
7.08405
-4.22097
29.1659
-2.19284
1.81615
2.65268
-1.73516
35.0595
-1.7018
1.83377
-0.769538
1.58583
36.6376
-1.7274
1.77184
-4.47754
6.20761
38.4495
-1.69224
-10.6813
-15.302
9.1414
132.141
141.262
-7.76124
-17.3096
-10.6543
-17.2274
-20.23
-15.2723
-20.3015
612.079
415.57
-25.0822
-145.803
-131.854
-148.159
-134.277
622.894
348.654
-21.0681
634.938
310.118
-17.3001
645.701
291.278
-18.1989
654.917
272.342
-19.0759
660.014
254.611
-20.5903
657.537
237.832
-20.0786
647.098
227.209
-17.0572
628.651
224.729
-10.3622
614.529
221.691
-7.91333
210.798
-12.4908
-250.685
286.748
-12.9497
-207.991
349.61
-11.4712
-151.423
380.448
-13.1795
-96.9197
443.957
-12.3013
-98.2754
-107.532
-98.4832
-109.296
-46.9598
531.733
-21.0628
-127.547
-137.456
-128.745
-139.107
10.941
578.05
-23.9618
-142.416
-145.093
-144.412
-147.274
87.3087
610.015
-24.1672
-149.285
-153.026
-151.587
-155.403
219.296
636.981
-20.7611
-157.239
-159.545
-159.772
-162.473
395.012
611.82
-28.0178
-149.81
-138.813
-152.669
-140.078
532.309
536.366
-35.306
571.186
459.814
-6.56696
593.558
402.796
-6.09273
618.871
378.203
-18.1651
635.317
354.69
-19.3731
646.581
330.171
-15.6678
654.612
309.021
-15.4654
656.154
290.411
-15.5927
649.814
280.342
-8.80844
640.332
276.358
-4.41055
263.017
-6.77016
-197.25
328.721
-17.2533
-149.182
383.808
-16.355
-114.663
407.159
-15.3093
-83.0526
457.945
-10.3868
-42.6958
526.09
-21.369
11.1253
576.48
-23.2682
86.7794
610.095
-23.7922
199.48
637.879
-21.3061
333.729
621.318
-18.5995
439.978
567.572
-8.46369
516.578
520.722
-6.85476
563.164
477.311
-28.1407
584.382
439.75
-18.6128
599.219
410.089
-7.16195
614.775
388.281
-7.87247
632.144
371.57
-10.729
648.869
356.338
-17.2405
655.531
338.862
-17.3222
654.257
331.219
-11.3148
313.473
-9.41856
-157.086
356.833
-15.8689
-107.561
398.411
-14.5663
-85.2266
419.639
-13.1857
-66.751
460.035
-10.6885
-35.7678
518.615
-20.5917
12.3508
573.572
-22.7858
84.1867
608.836
-22.9189
184.54
638.036
-21.3581
303.635
631.671
-13.1189
388.284
591.515
-4.6821
459.914
559.363
-27.3571
520.628
526.509
-27.8219
546.158
476.238
-4.2957
564.736
444.341
-2.46177
584.981
427.048
-7.92918
611.395
424.776
-10.028
636.075
413.392
-15.0212
651.435
393.614
-18.3402
652.952
380.542
-9.0109
357.901
-5.13363
-129.157
380.562
-13.6945
-79.2074
409.297
-11.2265
-61.1762
420.944
-11.8434
-47.7468
449.585
-9.53784
-25.2611
506.215
-18.7614
15.1327
567.951
-22.0275
80.9565
605.616
-22.0995
171.893
638.774
-20.6454
286.155
641.124
-13.712
370.588
616.447
-12.1872
429.304
582.465
-17.072
465.699
547.377
-4.52518
497.439
503.386
-8.5747
528.196
480.713
-11.9405
557.837
460.633
-1.85408
589.718
459.897
-2.92473
612.077
447.759
-0.867446
629.07
432.005
-7.02917
637.386
419.985
-8.35063
398.693
-6.542
-111.81
400.748
-14.7283
-59.1125
421.683
-12.0651
-41.0713
424.536
-11.1149
-28.5308
435.841
-10.1589
-12.1605
485.148
-18.5227
23.0219
555.738
-21.6336
80.5757
599.382
-20.8614
158.645
637.676
-19.3267
267.13
649.23
-14.8511
349.523
632.032
-13.1403
404.791
597.584
-4.72369
437.774
563.061
-2.45728
472.41
529.775
-11.8104
514.581
518.842
-6.02003
543.147
495.14
2.73555
566.047
476.477
2.76692
584.76
462.278
4.95975
605.521
453.211
-9.03346
620.295
452.085
-13.0307
437.563
-6.4109
-102.287
419.224
-16.5721
-48.8713
435.9
-14.3821
-20.2957
434.592
-10.0082
-10.7106
436.089
-14.1489
0.217989
463.474
-16.526
32.9482
530.468
-19.4159
85.0096
585.71
-20.8207
151.364
633.776
-17.1869
249.066
653.479
-17.303
324.701
642.057
-10.8516
384.135
612.226
-3.05153
424.667
582.553
-2.93926
457.974
557.147
-1.75803
490.384
544.425
1.6431
513.47
517.657
3.14346
534.297
492.164
6.81476
553.726
477.756
10.6059
574.843
472.753
-2.89754
597.947
484.144
-1.8577
475.877
2.74353
-94.7198
438.569
-16.5063
-43.7228
452.057
-14.9114
-15.6554
449.776
-8.54261
1.97487
446.621
-16.2759
17.3155
458.947
-13.0509
42.3907
502.158
-11.5088
91.6303
559.894
-16.4329
149.63
623.74
-15.4922
232.165
650.596
-17.4809
303.285
649.483
-10.9359
366.349
628.753
-4.15412
421.176
608.002
-3.16266
458.906
588.5
-1.6125
475.931
566.737
1.23168
489.854
537.126
4.98437
509.66
511.781
12.0804
531.783
499.624
9.6893
555.225
496.366
2.2003
585.069
512.966
6.6576
506.13
5.94578
-88.1534
459.284
-17.7846
-40.1643
470.487
-16.5418
-12.1328
467.874
-9.36941
11.5065
464.029
-17.4753
29.4295
465.539
-15.961
57.3531
495.615
-14.3654
100.122
532.717
-8.90196
149.023
603.956
-11.9039
221.772
640.025
-14.4031
284.909
650.893
-10.7931
350.401
644.775
-10.765
408.159
631.689
-10.2119
447.355
610.431
0.502162
464.65
585.051
6.15271
479.544
554.848
10.2529
500.848
532.143
10.6882
524.741
522.816
9.46585
549.896
522.235
11.5982
575.745
531.156
13.9396
524.648
7.19151
-85.1233
480.511
-19.9656
-38.765
490.2
-18.8541
-9.11735
488.215
-10.8696
17.1051
484.35
-19.3472
36.2709
478.294
-19.1773
68.0455
499.603
-20.722
106.93
525.971
-13.5223
153.409
582.213
-5.98882
218.952
622.326
-7.65618
274.226
644.877
-4.81268
332.846
651.16
-12.33
388.936
647.271
-15.1023
431.195
626.941
-5.69028
455.634
604.711
-5.98278
476.793
575.081
-0.365829
501.297
554.693
3.9543
526.305
547.166
10.316
549.126
546.343
17.5123
569.855
546.582
7.86086
540.174
-2.68501
-80.9727
501.526
-21.7073
-38.2426
510.12
-21.2636
-7.22511
509.419
-12.6776
21.1488
505.733
-19.6152
42.6733
495.22
-21.8376
75.3757
508.766
-24.298
109.137
528.184
-20.2675
150.745
576.171
-11.6532
215.298
610.141
-6.16125
269.631
636.433
-1.42005
324.398
650.254
-7.82694
375.23
649.472
-6.19115
417.529
635.065
-4.82006
451.704
618.656
-7.33778
485.717
596.966
3.66366
517.518
583.691
10.9224
537.262
573.731
15.8132
551.046
569.246
9.78297
560.872
556.797
-3.78074
552.578
-3.46788
-76.932
-23.1932
-38.4835
-23.7237
-7.07414
-16.3259
22.8141
-20.97
47.0716
-24.9855
79.1508
-27.6329
108.785
-23.581
145.072
-16.3362
205.294
-10.8915
256.623
-4.5667
306.858
-6.65284
352.308
-2.14246
394.574
-2.37333
434.55
-0.908275
474.249
8.33047
508.121
11.6252
529.397
12.7123
544.396
2.44018
558.458
-0.51516
4.75503
-202.535
-201.479
-6.97304
-164.642
-210.023
-3.57846
-143.909
-220.936
-3.33942
-113.308
-261.999
-4.14441
-59.4216
-304.739
-6.64562
4.57723
-314.587
-7.37125
75.2645
-312.613
-8.38302
154.164
-315.667
-8.11694
230.384
-302.298
-8.68629
288.201
-256.429
-4.44873
331.477
-203.387
-7.54691
360.432
-163.174
-6.21198
384.541
-135.961
-3.83695
404.895
-117.13
-4.35158
423.289
-106.509
-6.11671
442.245
-99.2411
-6.94432
462.507
-92.6015
-8.67609
483.342
-89.6562
-10.8144
504.03
-85.8291
-12.7045
-81.9477
-14.256
-210.746
-164.039
-3.39238
-174.204
-171.486
0.683094
-175.566
-201.291
1.0973
-147.461
-247.314
-1.00981
-76.1541
-304.185
-6.88399
-2.40667
-309.806
-6.87379
78.8259
-304.77
-7.48799
180.498
-307.344
-6.93174
284.476
-280.673
-8.07061
350.602
-209.782
-1.93138
387.1
-150.696
-4.87307
404.023
-110.973
-3.2291
415.28
-83.3491
-0.08691
427.032
-63.4221
-0.575438
440.789
-51.53
-3.2843
456.103
-47.4583
-4.82099
473.809
-44.1322
-6.93362
493.141
-42.8825
-9.21187
512.819
-42.1734
-11.7699
-42.3516
-14.2215
-218.252
-142.569
-2.63261
-200.697
-173.384
1.60956
-217.31
-218.952
5.75514
-171.75
-63.047
-2.92968
-67.5556
-62.977
-67.1533
-83.1204
-72.1863
-7.08989
-75.0093
-72.0976
-75.2378
-3.63404
-75.5319
-7.14727
-74.3882
-75.9242
-74.3221
81.7132
-73.6788
-6.45539
-73.5907
-73.8061
-73.8488
198.654
-73.5725
-5.96748
-73.4651
-73.4745
-73.3774
318.977
-64.8934
-6.65559
-52.8989
-64.0264
-52.1536
379.58
-153.507
-3.52102
406.39
-111.937
-3.52823
422.074
-82.4874
-1.69359
426.792
-58.2093
-0.157917
431.134
-39.3002
0.329483
440.365
-18.261
0.0361869
453.867
-13.4078
0.769278
470.846
-13.3348
-0.137489
490.162
-12.115
-1.90865
510.956
-10.8289
-4.68716
-11.102
-8.67385
-259.055
-112.332
-1.6665
-245.835
-147.069
0.781607
-63.1178
-170.868
-3.33113
-66.7703
-63.8775
-66.7457
2.14235
-61.4383
-61.063
-1.84799
2.69833
-32.9618
-1.21766
53.2604
-18.2084
-18.3913
-18.1136
-18.3896
3.37061
21.364
-9.93287
-2.46193
-18.6273
-18.8997
-18.5754
-18.9548
3.20904
0.0930755
10.0292
-2.37299
-18.5241
-18.2199
-18.4717
-18.2756
2.87537
-22.1455
34.7224
-2.01831
-18.5676
-18.2571
-18.5261
-18.3357
-59.5155
2.21267
76.2852
-60.9246
-1.16615
448.438
-97.8454
-4.45636
-99.2479
-109.805
-99.3599
-111.015
461.416
-80.6623
-1.75719
465.957
-64.0396
-1.73472
458.86
-45.2578
0.411806
445.413
-25.8765
2.30202
444.007
-7.43696
-3.25468
451.493
3.78531
-7.60188
466.932
11.9124
-10.0351
485.958
15.9076
-11.8918
506.463
19.0996
-12.5148
20.3243
-13.729
-302.481
-60.2102
-5.54882
-303.106
-77.7487
-6.80809
-70.7826
-84.2204
-9.09494
-74.3749
-71.2866
-74.5994
2.92911
-34.206
-2.55928
52.1257
-17.4343
-16.9057
-17.3981
-16.9601
1.11838
4.87736
27.1907
-4.90956
-0.854899
547.846
-45.3023
-13.0446
-130.305
-141.262
-131.57
-143.292
542.685
-42.3044
-13.1559
535.774
-36.587
-13.7554
525.266
-27.6492
-12.0486
506.716
-13.5878
-11.063
484.897
1.49073
-10.6702
476.744
18.4665
-6.56254
480.249
31.2847
-8.7398
490.228
36.6846
-11.0513
504.114
41.808
-13.6621
44.7926
-17.0641
-313.642
4.01127
-6.59575
-309.174
-3.62718
-6.37451
-75.4737
-4.55819
-6.80391
-74.129
-75.7563
-74.3362
3.51458
21.8553
-10.0082
-2.54584
-18.72
-18.8836
-18.6495
-18.9243
1.36505
2.48987
36.1232
-1.55727
-1.25883
600.791
11.8168
-14.3041
-146.582
-150.013
-149.32
-152.818
600.919
11.8608
-13.8445
599.337
13.4034
-13.9226
594.671
15.9046
-13.7309
585.33
22.2705
-14.0392
565.675
33.585
-14.6667
535.956
44.1063
-7.3643
521.717
56.235
-4.76771
522.055
65.5594
-11.2594
527.943
73.7388
-15.6138
77.1248
-19.2881
-312.159
74.6542
-8.1892
-304.583
77.4922
-7.16093
-73.6339
80.2432
-5.8627
-73.5237
-73.7488
-73.8837
3.29688
0.0459763
10.1232
-2.32456
-18.5106
-18.2049
-18.4604
-18.2565
1.42537
-0.890037
37.9646
1.67641
-1.28319
635.132
86.0535
-14.1083
-154.44
-158.16
-157.614
-161.378
637.917
85.9321
-14.1285
638.361
85.2644
-13.8471
636.913
82.8182
-13.533
632.801
81.9141
-12.4983
623.555
84.4616
-12.4247
603.95
91.1822
-11.577
574.897
100.408
-4.68117
558.38
107.347
-1.57121
555.713
111.913
-10.805
110.045
-14.4478
-314.98
153.825
-8.04201
-307.153
180.006
-6.71026
-73.5151
198.44
-5.6665
-73.4868
-73.6652
-73.7423
3.38026
-22.1588
34.5408
-2.38613
-18.6121
-18.2241
-18.5154
-18.3077
1.30927
-4.42696
39.7372
6.16184
-1.16538
662.033
212.479
-10.3656
-162.034
-163.705
-165.306
-167.033
666.707
197.298
-11.5334
669.493
184.433
-12.0968
671.257
174.59
-11.3392
671.567
162.908
-11.4374
669.321
153.439
-10.7076
663.038
150.404
-9.1557
648.516
150.715
-7.53709
625.458
155.488
-1.41463
612.062
157.096
-0.913089
149.883
-7.74989
-303.261
230.615
-9.79726
-282.969
285.013
-8.97516
-65.2246
319.322
-6.52507
-53.1332
-65.7166
-53.4426
-59.2411
4.29764
-60.8371
75.756
-2.09135
1.42866
4.82076
-5.14741
27.2913
-1.10585
1.34313
2.75071
-1.83346
36.0137
-1.18849
1.35619
-0.677153
1.49677
37.8274
-1.20236
1.37927
-4.44076
6.20232
39.8847
-1.2099
-12.9272
-11.5343
6.67247
143.67
138.765
-5.46526
-18.0156
-12.2715
-17.7858
-18.9028
-11.856
-18.7688
634.915
407.975
-17.4361
-153.357
-140.432
-154.1
-138.99
645.872
351.495
-5.37859
657.582
310.077
-1.96147
668.536
291.382
-6.24983
676.771
272.569
-9.43118
683.134
255.773
-9.96654
683.937
238.392
-10.1526
677.907
226.76
-8.63988
665.105
221.677
-4.28294
648.315
222.794
-0.177945
212.327
-3.97853
-258.134
288.569
-6.83231
-213.355
351.734
-3.94422
-160.75
380.166
-4.01256
-102.383
449.707
-5.98151
-99.0674
-109.945
-99.2385
-110.361
-47.861
544.154
-12.372
-129.81
-139.994
-130.363
-141.212
9.35988
595.543
-13.5625
-145.748
-149.165
-147.407
-151.064
85.6967
630.778
-12.1716
-153.72
-157.744
-155.854
-159.851
218.938
659.024
-8.93816
-162.022
-165.063
-164.318
-166.643
405.628
632.314
-19.2486
-152.007
-137.658
-155.787
-142.372
558.2
550.724
-31.4136
598.127
470.73
0.371745
614.443
403.468
7.99352
638.666
379.133
-6.2045
656.044
355.935
-9.3425
668.761
334.135
-5.45746
678.519
312.487
-1.85281
683.269
293.645
-6.28756
680.779
279.356
-2.82857
672.208
276.195
0.724262
264.612
-0.160082
-204.225
331.162
-11.0308
-153.789
386.817
-9.17782
-119.595
406.381
-6.42226
-86.6529
462.805
-3.09921
-44.7533
539.366
-13.3986
9.06121
595.712
-13.3149
85.9674
632.849
-11.7922
202.338
662.739
-10.0739
344.316
644.061
-8.65618
461.446
586.604
2.0473
541.838
537.574
0.59492
582.17
482.483
-26.943
602.779
444.347
-12.9888
621.467
417.51
3.86536
637.67
395.454
5.3661
653.563
376.391
2.10579
670.304
358.618
-6.12212
680.735
341.352
-12.0696
681.6
332.254
-6.20266
314.952
-2.93646
-162.857
359.417
-10.7833
-113.928
402.372
-10.0081
-90.937
422.455
-8.39115
-71.6691
467.816
-4.57025
-39.1991
533.064
-13.3721
10.3386
594.369
-13.4022
84.6126
632.921
-11.8942
186.881
664.229
-10.4027
306.836
655.21
-3.65459
393.915
609.152
3.79385
474.269
572.757
-24.8363
537.253
535.674
-28.5619
568.398
488.422
9.49031
585.84
454.238
16.3268
604.875
433.737
2.26111
627.243
427.317
-4.77656
650.511
413.759
-7.86527
672.458
397.587
-13.821
678.794
384.407
-2.4115
360.271
2.40526
-135.096
383.249
-9.06209
-85.1917
413.242
-7.30996
-65.9123
426.061
-8.40622
-52.7867
461.685
-4.96582
-30.4758
523.414
-12.0595
12.2758
590.077
-13.2927
81.6165
631.127
-11.9557
174.901
665.212
-9.54918
289.204
665.259
-6.49725
374.088
636.09
-6.75735
436.92
595.456
-13.4113
484.936
562.194
7.01882
519.758
517.085
15.6561
546.582
491.172
-3.56097
570.711
465.484
-4.59637
602.028
463.634
-2.0469
627.399
452.531
4.39414
649.647
438.939
2.85477
661.63
426.072
2.94383
401.367
1.39349
-116.392
403.527
-9.55219
-64.7391
424.997
-7.34047
-47.3279
429.165
-7.01305
-34.1705
446.53
-5.75361
-17.7392
505.185
-12.7453
18.1243
580.782
-13.761
80.1936
626.831
-11.4347
161.846
665.417
-9.98732
270.01
673.48
-8.70316
353.476
654.107
-8.96592
413.699
616.865
0.0903378
449.924
580.182
10.6165
487.205
542.366
-5.0735
526.479
526.716
-11.3712
558.192
505.331
1.12373
582.011
486.364
7.91371
601.723
470.236
14.7019
623.807
459.409
5.22566
641.34
456.26
-4.27278
439.473
-1.94436
-106.476
421.869
-10.7211
-53.4611
438.819
-8.85222
-25.7754
438.209
-5.95442
-14.8969
442.825
-10.0236
-4.57608
481.618
-13.1158
28.8543
560.547
-14.1958
82.0608
617.382
-11.9408
151.553
663.093
-9.45897
252.671
679.852
-9.53418
330.367
666.771
-5.83858
392.129
634.836
2.71375