/*--------------------------------*- C++ -*----------------------------------*\
  =========                 |
  \\      /  F ield         | OpenFOAM: The Open Source CFD Toolbox
   \\    /   O peration     | Website:  https://openfoam.org
    \\  /    A nd           | Version:  9
     \\/     M anipulation  |
\*---------------------------------------------------------------------------*/
FoamFile
{
    format      ascii;
    class       volScalarField;
    location    "0.0045";
    object      rho;
}
// * * * * * * * * * * * * * * * * * * * * * * * * * * * * * * * * * * * * * //

dimensions      [1 -3 0 0 0 0 0];

internalField   nonuniform List<scalar> 
9720
(
16.3652
17.3772
17.8118
16.5481
15.4617
14.7601
13.7136
12.1247
10.1863
8.5702
7.22261
6.37651
5.8921
5.59351
5.43208
5.3299
5.2466
5.13886
5.04242
4.82829
17.3123
18.1813
18.4592
15.4529
14.5071
14.7731
14.0112
11.8757
8.75243
6.42511
5.03489
4.58791
4.58061
4.55696
4.54585
4.53363
4.49575
4.41668
4.33936
4.16812
17.6602
18.3093
17.3206
13.2958
13.3609
14.7398
14.4689
11.8695
7.48329
4.60515
3.53792
3.6272
3.92228
4.24622
4.49583
4.69571
4.69967
4.64687
4.55388
4.33741
16.4646
15.3742
13.2305
10.8962
11.5777
15.1655
15.624
13.6954
7.58065
2.4945
2.5779
2.83399
3.3007
3.92524
4.47078
4.79214
4.83005
4.79297
4.72395
4.53216
15.3435
14.3503
13.103
11.432
2.04207
2.35344
2.53527
2.78209
3.13846
3.70971
4.40597
4.98267
5.23114
5.21151
5.13664
4.88412
14.5525
14.4739
14.3805
14.8473
2.93067
3.0891
3.11037
3.16902
3.29771
3.55347
4.07059
4.78467
5.23295
5.26132
5.22783
5.02541
13.4662
13.6683
14.0905
15.2596
3.50132
3.4466
3.37412
3.31219
3.32668
3.4141
3.64568
4.13987
4.76504
5.11501
5.29502
5.22952
11.9089
11.571
11.5213
13.3042
3.33571
2.63693
2.76416
2.85507
2.93971
3.05146
3.22018
3.52391
4.05144
4.60814
5.04739
5.19863
9.99638
8.52543
7.23283
7.04332
2.00261
2.89071
3.51079
3.24845
0.570543
0.858525
1.2986
1.67437
1.95791
2.16861
2.37469
2.63996
3.03636
3.57347
4.08072
4.56221
8.40899
6.27767
4.50385
2.48155
2.34984
3.06818
3.3999
2.61068
0.93963
0.489033
0.583423
0.824734
1.14607
1.46533
1.74311
1.99999
2.32251
2.77012
3.23535
3.87718
7.09177
4.94557
3.49532
2.58027
2.54486
3.0955
3.33612
2.74258
1.39725
0.620508
0.482138
0.518025
0.676634
0.945594
1.23531
1.49814
1.7613
2.11482
2.51492
3.19898
6.26318
4.52275
3.58107
2.84179
2.79833
3.15961
3.29939
2.84251
1.76093
0.900829
0.537123
0.526788
0.561339
0.675905
0.877809
1.11113
1.3485
1.63751
1.97938
2.6429
5.78008
4.50633
3.85994
3.28411
3.15168
3.29521
3.32232
2.93549
2.02785
1.23346
0.726272
0.577232
0.581208
0.608007
0.698154
0.86112
1.07152
1.32021
1.60124
2.18233
5.47864
4.47674
4.17914
3.86024
3.69501
3.55732
3.42105
3.055
2.22631
1.54601
1.01573
0.720356
0.623852
0.628513
0.67546
0.769238
0.925047
1.12346
1.34122
1.82905
5.31341
4.45847
4.42198
4.36861
4.34933
4.07016
3.66188
3.23067
2.42795
1.81714
1.31102
0.937508
0.735965
0.688524
0.706522
0.772551
0.862774
0.999302
1.15994
1.56387
5.21565
4.44446
4.61109
4.67804
4.8917
4.74202
4.15003
3.54181
2.69692
2.07256
1.5744
1.17613
0.910321
0.801873
0.785566
0.805893
0.863738
0.947812
1.05704
1.37258
5.13684
4.40643
4.61308
4.74565
5.15308
5.16556
4.73383
4.06349
3.0968
2.39851
1.84391
1.42183
1.1296
0.974119
0.900465
0.877794
0.893994
0.951231
1.0228
1.25109
5.03438
4.32986
4.56112
4.71525
5.13993
5.20188
5.06841
4.59181
3.61801
2.84529
2.20577
1.72427
1.39522
1.19235
1.05875
0.984009
0.967103
0.983245
1.02427
1.20107
4.94379
4.25753
4.4734
4.65566
5.07221
5.17323
5.2575
5.01909
4.10732
3.30197
2.60813
2.07656
1.69443
1.43031
1.23652
1.11725
1.05316
1.04103
1.06481
1.2109
4.74236
4.09736
4.26934
4.47937
4.8323
4.98624
5.19914
5.18017
4.57683
3.93139
3.28525
2.74496
2.29403
1.94029
1.66321
1.46398
1.32031
1.25031
1.24724
1.29773
15.5995
16.5917
16.9866
15.45
14.4331
13.8738
12.9127
11.4246
9.55777
8.02789
6.72993
5.91785
5.45911
5.16659
5.02181
4.93999
4.86642
4.76264
4.66868
4.4632
16.5456
17.3525
17.5748
14.2403
13.4934
13.968
13.2883
11.2491
8.2429
6.02589
4.68247
4.23044
4.21556
4.20208
4.19283
4.20044
4.17911
4.10922
4.03386
3.86618
16.8913
17.5251
15.4922
11.9865
12.7424
14.1878
13.8327
11.3221
7.07049
4.32689
3.27609
3.33257
3.56901
3.87797
4.11568
4.3412
4.38345
4.34669
4.27025
4.06903
15.4982
14.2629
11.9874
10.023
11.4077
14.6071
14.977
13.0623
7.18739
2.3442
2.40211
2.61098
3.0011
3.53733
4.06548
4.41289
4.52428
4.49641
4.44206
4.27298
14.371
13.3103
12.2974
10.682
1.85686
2.18694
2.35223
2.57129
2.87558
3.34451
3.98076
4.53904
4.89187
4.90721
4.86735
4.65531
13.6729
13.6396
13.757
14.26
2.7356
2.88473
2.89268
2.92982
3.02808
3.23072
3.64105
4.29503
4.80639
4.95949
4.94753
4.78725
12.66
12.9469
13.4765
14.6347
3.30087
3.23362
3.15273
3.06061
3.05961
3.11204
3.27818
3.6723
4.26983
4.66544
4.9233
4.90372
11.1733
10.9482
11.0048
12.7199
3.13327
2.45761
2.55591
2.62558
2.68802
2.7726
2.90262
3.13278
3.57011
4.09622
4.55731
4.80667
9.33243
8.00285
6.84715
6.85688
1.85433
2.71211
3.27632
2.98188
0.523715
0.778048
1.1696
1.51377
1.7761
1.96125
2.12501
2.33444
2.65428
3.12769
3.61595
4.14441
7.82022
5.82296
4.18769
2.32743
2.19342
2.88206
3.18225
2.40717
0.842096
0.413111
0.506596
0.727966
1.0123
1.29335
1.53436
1.75547
2.032
2.41907
2.84096
3.46811
6.55895
4.52329
3.16691
2.3816
2.35366
2.88557
3.10316
2.51212
1.24902
0.530363
0.404103
0.435071
0.57019
0.800285
1.06265
1.30689
1.53898
1.84003
2.18363
2.82327
5.78212
4.11376
3.23069
2.57652
2.56254
2.91713
3.02502
2.59054
1.58616
0.782411
0.448282
0.437442
0.460836
0.558216
0.75041
0.966303
1.17048
1.41221
1.69992
2.31006
5.33995
4.13091
3.4835
2.94928
2.85675
3.01524
3.0315
2.66047
1.83208
1.08252
0.607099
0.47005
0.475974
0.512849
0.5977
0.735613
0.908913
1.11346
1.35971
1.90609
5.04989
4.12738
3.82036
3.47755
3.31816
3.22494
3.09766
2.75355
2.00549
1.36441
0.859461
0.592419
0.524759
0.531954
0.570909
0.643513
0.767541
0.941002
1.14948
1.61218
4.90165
4.11312
4.05894
3.99045
3.94839
3.65095
3.28156
2.8965
2.16795
1.60494
1.13479
0.806316
0.633068
0.583076
0.595422
0.645959
0.729738
0.863624
1.01979
1.38633
4.82512
4.11597
4.27015
4.32803
4.49484
4.29562
3.69373
3.14602
2.3858
1.83019
1.38905
1.03672
0.792397
0.6755
0.661998
0.681946
0.741871
0.834697
0.933855
1.20832
4.75588
4.09174
4.30275
4.45217
4.83743
4.78688
4.28128
3.59989
2.72018
2.11586
1.63407
1.25851
0.983589
0.821492
0.765387
0.76273
0.785072
0.834066
0.884298
1.07836
4.65717
4.02215
4.26502
4.42756
4.84429
4.91882
4.66143
4.11607
3.19794
2.5133
1.94933
1.51928
1.2081
1.01762
0.922277
0.876601
0.851193
0.85296
0.881123
1.03419
4.56909
3.95056
4.18949
4.37547
4.7978
4.90392
4.91971
4.57333
3.67533
2.93516
2.30363
1.82271
1.47095
1.24464
1.09692
0.997167
0.921511
0.89783
0.915283
1.04407
4.37671
3.79327
3.9962
4.2128
4.58299
4.7446
4.89904
4.81682
4.18977
3.55484
2.94316
2.44101
2.03431
1.73067
1.49029
1.30387
1.15468
1.08196
1.07908
1.13036
15.2924
16.255
16.6096
14.8143
13.7815
13.3779
12.4933
11.0287
9.22308
7.73874
6.47368
5.68193
5.2556
4.97948
4.84633
4.77055
4.70432
4.60888
4.51974
4.31907
16.247
16.945
17.1023
13.4669
12.8394
13.4609
12.8608
10.8622
7.96388
5.83788
4.51813
4.04467
4.04442
4.05859
4.05366
4.07018
4.05982
4.00104
3.92781
3.75899
16.5519
17.1036
13.9907
11.0724
12.2561
13.7531
13.3851
10.9036
6.80936
4.24982
3.19859
3.22223
3.40934
3.7144
3.94638
4.17427
4.25908
4.23618
4.17489
3.98588
14.7891
13.3063
10.8615
9.28824
10.9512
14.1252
14.4583
12.51
6.777
2.25897
2.34245
2.54327
2.89016
3.3856
3.91672
4.30602
4.44761
4.42357
4.36879
4.19574
13.6837
12.5553
11.8149
10.2355
1.6514
2.031
2.19909
2.42349
2.72199
3.15363
3.76821
4.3303
4.75298
4.83489
4.80209
4.60685
13.1884
13.1435
13.3913
13.7842
2.53525
2.69071
2.6982
2.73345
2.82892
3.01649
3.37536
4.00237
4.60211
4.90467
4.90259
4.74492
12.2827
12.589
13.114
14.1363
3.09605
3.03097
2.95246
2.87319
2.87532
2.92183
3.06103
3.38414
3.95988
4.45806
4.78676
4.78234
10.8146
10.6262
10.7149
12.2684
2.92357
2.30654
2.38224
2.44707
2.50841
2.58757
2.70763
2.90238
3.26342
3.778
4.26818
4.62557
9.00872
7.74693
6.64529
6.65282
1.65548
2.56072
3.1154
2.82633
0.472446
0.730635
1.0887
1.40888
1.65507
1.8409
1.99077
2.17041
2.43137
2.84025
3.31611
3.91101
7.5276
5.60565
4.04197
2.1635
2.02071
2.71724
3.01829
2.25756
0.742522
0.348344
0.444342
0.660395
0.924557
1.18722
1.42301
1.62868
1.8613
2.18683
2.58264
3.23341
6.28692
4.3163
3.01409
2.23879
2.17731
2.71934
2.93937
2.34994
1.12506
0.458123
0.341315
0.370138
0.494591
0.709892
0.964304
1.20269
1.41514
1.66856
1.97378
2.5963
5.5168
3.8806
3.05334
2.42866
2.37848
2.7435
2.85835
2.42869
1.46412
0.700327
0.378535
0.372324
0.39666
0.485089
0.663514
0.877101
1.07464
1.28437
1.5322
2.10237
5.10108
3.90909
3.26811
2.75579
2.64916
2.82503
2.85988
2.50037
1.71459
0.987129
0.52567
0.404414
0.409552
0.441191
0.517487
0.643311
0.812545
1.00471
1.21722
1.71981
4.82928
3.94788
3.61483
3.24401
3.05472
3.00165
2.9073
2.58713
1.89377
1.25921
0.768692
0.518159
0.450323
0.457445
0.491108
0.562072
0.682614
0.843656
1.02598
1.44972
4.70258
3.95672
3.87164
3.79003
3.6706
3.35105
3.05042
2.71275
2.0377
1.49756
1.04284
0.721675
0.549385
0.500708
0.515369
0.56866
0.657051
0.784225
0.924769
1.25526
4.63716
3.97428
4.09999
4.21205
4.25436
3.9721
3.38028
2.91283
2.21713
1.70539
1.29037
0.948231
0.69853
0.58486
0.583389
0.606611
0.666992
0.7602
0.851925
1.09793
4.58033
3.96438
4.18575
4.38773
4.68928
4.57326
3.95758
3.28138
2.48553
1.94282
1.50598
1.15309
0.880004
0.722932
0.684279
0.68407
0.707857
0.759161
0.805648
0.97931
4.49481
3.90949
4.16107
4.36356
4.76722
4.84385
4.44052
3.79387
2.90472
2.27777
1.76504
1.36961
1.07772
0.897806
0.827251
0.793048
0.771808
0.774515
0.801218
0.937098
4.41437
3.84154
4.09898
4.30612
4.72907
4.8341
4.76034
4.28152
3.37754
2.67591
2.07732
1.63038
1.30348
1.09566
0.982615
0.900873
0.833503
0.813153
0.829049
0.94583
4.22845
3.68378
3.91428
4.13464
4.52835
4.67785
4.75736
4.62391
3.95373
3.31471
2.70085
2.21626
1.82903
1.54906
1.34348
1.17808
1.04365
0.977033
0.975614
1.03234
15.0624
15.9871
16.2648
14.2805
13.2535
12.9407
12.1248
10.6838
8.90774
7.47415
6.24408
5.47875
5.09425
4.84593
4.72701
4.65694
4.59354
4.50127
4.41274
4.21222
16.0069
16.6105
16.6332
12.8314
12.3146
13.0362
12.5219
10.5504
7.67994
5.60054
4.32777
3.87259
3.91096
3.97401
3.98283
4.00225
3.99222
3.93515
3.85958
3.68454
16.2559
16.7516
13.0042
10.4751
11.7913
13.3736
13.0573
10.6183
6.53961
4.02949
3.03247
3.07292
3.28804
3.63883
3.89214
4.11735
4.20697
4.1842
4.12036
3.92546
14.3137
12.7057
10.2713
8.84506
10.3428
13.7033
14.042
12.1167
6.33264
2.09299
2.19548
2.40924
2.76084
3.28445
3.84775
4.2957
4.43316
4.4048
4.33526
4.13712
13.2038
12.1155
11.5815
10.2528
1.59836
1.91538
2.08427
2.30026
2.58754
2.99936
3.6039
4.19577
4.65087
4.80201
4.77284
4.58109
12.8394
12.829
13.1606
13.4495
2.39291
2.58068
2.59687
2.63499
2.72035
2.88034
3.17548
3.72838
4.40691
4.85064
4.87081
4.72227
11.996
12.3471
12.884
13.815
2.93788
2.91032
2.8487
2.77959
2.77473
2.80623
2.91155
3.15455
3.64493
4.25964
4.66995
4.6907
10.5608
10.4139
10.4971
11.9379
2.7406
2.17006
2.2664
2.34272
2.41152
2.48084
2.57934
2.73445
3.01458
3.47505
4.01933
4.47063
8.7741
7.56416
6.47747
6.42132
1.60214
2.42261
2.94176
2.68692
0.414858
0.651696
1.00345
1.33576
1.58705
1.77536
1.92011
2.07216
2.27988
2.60756
3.05659
3.70301
7.33391
5.48532
3.95056
2.05356
1.89202
2.56453
2.87196
2.16225
0.701816
0.301341
0.393066
0.611788
0.872516
1.1292
1.36323
1.57098
1.76648
2.02793
2.37242
3.02597
6.10031
4.20449
2.92276
2.13532
2.04279
2.57088
2.81111
2.25331
1.06646
0.413677
0.295694
0.322561
0.444568
0.656886
0.910225
1.15418
1.35881
1.56277
1.81754
2.40368
5.32054
3.72763
2.93892
2.31713
2.23949
2.5992
2.74078
2.32552
1.39737
0.654725
0.330546
0.32549
0.35038
0.44145
0.612418
0.824638
1.02871
1.21211
1.41795
1.93849
4.9139
3.74064
3.10944
2.617
2.50217
2.67764
2.73681
2.39549
1.63813
0.927914
0.4697
0.356297
0.364353
0.388306
0.457065
0.585301
0.75934
0.94495
1.12937
1.57592
4.65436
3.78335
3.42772
3.06969
2.87692
2.83328
2.76982
2.46888
1.81149
1.18154
0.697268
0.464186
0.394973
0.398731
0.428759
0.498566
0.622987
0.784887
0.940378
1.31548
4.53525
3.79868
3.68562
3.60817
3.4407
3.11646
2.87867
2.57126
1.94296
1.40457
0.956637
0.64887
0.47854
0.433977
0.448905
0.504932
0.60056
0.725935
0.847812
1.1476
4.47235
3.82695
3.91418
4.06101
4.0215
3.6522
3.12385
2.72996
2.08909
1.60169
1.19632
0.86456
0.617708
0.509387
0.511381
0.542604
0.610222
0.700734
0.788678
1.01494
4.42176
3.82789
4.04283
4.26087
4.48501
4.30929
3.61301
3.01356
2.29861
1.79831
1.39496
1.0644
0.791659
0.638146
0.612111
0.618391
0.646639
0.701979
0.746167
0.903061
4.34483
3.78779
4.03159
4.24867
4.66586
4.73612
4.19702
3.47312
2.63575
2.06769
1.6057
1.24832
0.970907
0.799733
0.743356
0.718691
0.709508
0.715156
0.735316
0.851803
4.26963
3.72571
3.98122
4.19659
4.64295
4.7504
4.58876
4.00181
3.08442
2.42002
1.86946
1.46193
1.16019
0.961958
0.872788
0.815735
0.764481
0.741005
0.754047
0.858533
4.08977
3.57167
3.80885
4.02649
4.46275
4.61004
4.61854
4.43207
3.71456
3.0707
2.46174
1.99956
1.63074
1.36565
1.1984
1.06499
0.943405
0.877925
0.879547
0.937721
14.908
15.7798
16.0175
13.9711
12.9648
12.7052
11.9173
10.4842
8.69142
7.27124
6.06886
5.31835
4.95108
4.72303
4.62324
4.5718
4.52346
4.44436
4.36306
4.16694
15.8056
16.3304
16.3067
12.4793
12.0714
12.8357
12.3381
10.3716
7.47053
5.40561
4.16945
3.72375
3.76657
3.85094
3.89038
3.93551
3.93749
3.89728
3.82921
3.65591
15.9697
16.4028
12.4845
10.1613
11.623
13.2021
12.8832
10.4609
6.33708
3.84768
2.88843
2.93106
3.14373
3.50836
3.78959
4.02273
4.14666
4.13681
4.08725
3.90429
13.9664
12.3401
9.96382
8.56167
10.1355
13.395
13.7295
11.8651
6.23211
1.98814
2.09079
2.29542
2.62544
3.13228
3.71646
4.22296
4.40832
4.39179
4.3257
4.12065
12.9261
11.8899
11.3914
9.96133
1.51587
1.84921
2.0081
2.20687
2.47568
2.8656
3.45298
4.06526
4.54831
4.7665
4.75057
4.57838
12.6228
12.6292
13.0103
13.2749
2.33324
2.54541
2.55291
2.58041
2.65345
2.79759
3.05657
3.55307
4.23936
4.76169
4.85178
4.72213
11.8211
12.195
12.7374
13.5932
2.88599
2.89415
2.82776
2.75111
2.71886
2.74142
2.82778
3.02983
3.44971
4.08172
4.55953
4.63414
10.3992
10.2657
10.356
11.7317
2.69646
2.16207
2.25135
2.31724
2.37759
2.43761
2.52068
2.65088
2.88529
3.28562
3.83153
4.35085
8.62694
7.43516
6.34584
6.19108
1.47603
2.27535
2.80999
2.58888
0.391739
0.630251
0.980564
1.30825
1.55683
1.7447
1.88644
2.02369
2.20339
2.48127
2.89337
3.55835
7.21572
5.39056
3.87143
1.9824
1.80825
2.47307
2.79526
2.10634
0.683366
0.282118
0.370129
0.587685
0.848597
1.10111
1.32597
1.5243
1.7056
1.94037
2.2502
2.88673
6.0117
4.14814
2.88027
2.07575
1.96151
2.48239
2.73843
2.19103
1.03515
0.390432
0.275168
0.301854
0.419568
0.630771
0.874722
1.10743
1.31436
1.50672
1.73816
2.28801
5.24172
3.67369
2.90039
2.2668
2.15465
2.51209
2.66898
2.25622
1.35087
0.623947
0.30866
0.300529
0.327157
0.418623
0.580022
0.786148
0.994129
1.17123
1.35466
1.83048
4.83937
3.67916
3.0628
2.57289
2.41637
2.58705
2.65569
2.32016
1.58271
0.890785
0.440351
0.331535
0.340195
0.361304
0.425079
0.551829
0.729345
0.911118
1.07229
1.4762
4.58596
3.71949
3.36582
3.02864
2.79164
2.73218
2.6817
2.38573
1.75151
1.13296
0.657798
0.435228
0.365977
0.368165
0.394835
0.464633
0.59185
0.746622
0.88475
1.22999
4.46688
3.73863
3.61691
3.55551
3.3398
2.99018
2.77398
2.47624
1.87923
1.34616
0.901475
0.607381
0.439302
0.397045
0.41232
0.472056
0.573881
0.691844
0.799197
1.07839
4.40302
3.76882
3.83524
4.0053
3.90733
3.47769
2.98357
2.61631
2.01314
1.53817
1.1356
0.816623
0.572357
0.467042
0.472679
0.511642
0.583799
0.663723
0.742227
0.959002
4.35222
3.77072
3.96847
4.20483
4.37433
4.13591
3.40929
2.86173
2.198
1.72101
1.33793
1.01668
0.74597
0.595686
0.575656
0.585354
0.611799
0.660464
0.710395
0.864028
4.27638
3.73306
3.96243
4.19897
4.59755
4.63699
4.0129
3.26997
2.49002
1.96322
1.5311
1.18792
0.921226
0.749964
0.696216
0.671235
0.663205
0.676242
0.699341
0.797749
4.20201
3.67163
3.92061
4.1521
4.58595
4.70485
4.45979
3.80313
2.90889
2.28403
1.77132
1.38156
1.08676
0.892106
0.808538
0.755189
0.719764
0.702556
0.708923
0.797357
4.02215
3.51693
3.75866
3.98004
4.42744
4.57932
4.53224
4.29297
3.55807
2.92316
2.33578
1.87998
1.51591
1.26169
1.10986
0.993019
0.896642
0.818751
0.813516
0.868241
14.9002
15.7745
16.0094
13.9525
12.953
12.7224
11.9356
10.4985
8.691
7.26479
6.0599
5.30247
4.93297
4.70704
4.61388
4.57118
4.52897
4.45389
4.37378
4.17763
15.7939
16.319
16.3136
12.4453
12.082
12.879
12.3689
10.3897
7.47186
5.39978
4.16622
3.70376
3.74217
3.8259
3.87465
3.93097
3.93939
3.90484
3.84009
3.66726
15.9649
16.3858
12.4393
10.089
11.6917
13.2748
12.9278
10.4793
6.34178
3.85435
2.8932
2.92215
3.11712
3.47148
3.76511
4.00933
4.15072
4.14482
4.09958
3.91855
13.9531
12.3271
9.97091
8.4605
10.319
13.4008
13.6864
11.808
6.13527
1.99005
2.09495
2.29616
2.6161
3.1073
3.69161
4.20278
4.40958
4.39847
4.33786
4.13711
12.9045
11.8332
11.2882
9.64166
1.43479
1.82868
1.9907
2.19055
2.45679
2.84191
3.42198
4.03888
4.53457
4.77187
4.75968
4.59268
12.5989
12.5796
12.9515
13.2094
2.29139
2.5194
2.5284
2.55717
2.63197
2.77831
3.03767
3.53618
4.23047
4.76987
4.86477
4.73475
11.7978
12.1676
12.7152
13.526
2.85512
2.87431
2.8136
2.74033
2.71236
2.736
2.82414
3.02658
3.44638
4.08195
4.566
4.6404
10.3848
10.251
10.3456
11.6731
2.69418
2.16847
2.25409
2.31633
2.37538
2.43618
2.52022
2.6507
2.88405
3.28498
3.83257
4.35538
8.6301
7.44217
6.36364
6.29212
1.41542
2.24784
2.78317
2.57661
0.389328
0.653763
1.0053
1.32858
1.57081
1.75027
1.88644
2.02048
2.19818
2.47659
2.89026
3.55636
7.22821
5.40062
3.87707
1.97519
1.81331
2.49188
2.81852
2.11749
0.674523
0.28147
0.375575
0.598846
0.860476
1.10632
1.32606
1.52469
1.70369
1.93639
2.24494
2.88016
6.0304
4.15975
2.89041
2.07446
1.97245
2.50091
2.76552
2.20824
1.02788
0.387048
0.274677
0.30291
0.423364
0.630738
0.869955
1.10452
1.31157
1.49902
1.72662
2.27545
5.26952
3.69476
2.91752
2.27833
2.17402
2.53106
2.6976
2.27766
1.34895
0.620706
0.307945
0.301737
0.32652
0.416366
0.576833
0.782069
0.987855
1.16121
1.34323
1.81842
4.87426
3.71498
3.09612
2.60642
2.44535
2.60787
2.68561
2.3447
1.58928
0.891189
0.44006
0.330433
0.33897
0.360834
0.424219
0.548236
0.722296
0.900872
1.06131
1.46501
4.62089
3.76307
3.4116
3.08667
2.83332
2.756
2.71239
2.41194
1.76777
1.14245
0.661048
0.433807
0.366311
0.369229
0.396362
0.464822
0.587805
0.739165
0.876417
1.22063
4.49812
3.77535
3.66011
3.62015
3.39964
3.02154
2.80741
2.50358
1.90061
1.36085
0.909385
0.60831
0.442378
0.399711
0.414668
0.473173
0.574052
0.690595
0.796237
1.07238
4.42852
3.79881
3.87797
4.06102
3.96826
3.52461
3.02272
2.64623
2.03737
1.55382
1.14618
0.823298
0.578494
0.471068
0.476059
0.514332
0.58523
0.665272
0.74244
0.956082
4.37027
3.79441
3.99239
4.23186
4.42001
4.194
3.45656
2.89662
2.22382
1.73885
1.351
1.03107
0.75592
0.601742
0.580531
0.589746
0.614642
0.662162
0.711139
0.86253
4.28706
3.74715
3.98008
4.21765
4.6162
4.68432
4.06735
3.30669
2.51618
1.9823
1.54908
1.20611
0.934047
0.759607
0.70388
0.676117
0.665327
0.67725
0.699026
0.796005
4.20708
3.67885
3.93006
4.16159
4.59835
4.72757
4.50209
3.84309
2.93622
2.3043
1.79248
1.39822
1.10061
0.902612
0.816613
0.760381
0.722057
0.703061
0.708887
0.795878
4.0211
3.51681
3.758
3.97872
4.43043
4.59077
4.54612
4.32346
3.58526
2.94352
2.35434
1.89449
1.52789
1.27165
1.11762
0.998941
0.9006
0.820378
0.814951
0.868254
15.0305
15.9559
16.2642
14.2758
13.2579
12.9783
12.1579
10.7003
8.8813
7.44001
6.21331
5.43899
5.05411
4.81437
4.71115
4.65673
4.60543
4.52203
4.437
4.23742
15.9654
16.577
16.6412
12.8003
12.37
13.1269
12.5774
10.5768
7.63767
5.54806
4.29846
3.82779
3.86209
3.93055
3.95786
3.99839
3.9993
3.95546
3.88408
3.70908
16.1947
16.6899
12.9316
10.3975
11.9463
13.5104
13.1381
10.6516
6.48176
3.96893
2.996
3.03185
3.23234
3.57946
3.84709
4.08661
4.21559
4.20471
4.1482
3.95427
14.2607
12.6368
10.1971
8.56035
10.5279
13.6264
13.8975
12.0028
6.24376
2.07318
2.17521
2.3833
2.72053
3.22648
3.79528
4.26231
4.43968
4.42167
4.36053
4.16732
13.1509
12.0051
11.3799
9.65152
1.49099
1.89473
2.06133
2.26825
2.54472
2.94491
3.53862
4.1396
4.61993
4.81217
4.78986
4.60779
12.7801
12.7259
13.0515
13.2952
2.30712
2.55732
2.57137
2.60795
2.69254
2.85147
3.13946
3.68152
4.37334
4.85426
4.8865
4.74272
11.943
12.2763
12.8084
13.6344
2.86071
2.89942
2.83896
2.76875
2.76315
2.79439
2.89865
3.13475
3.61283
4.23935
4.66787
4.69846
10.5157
10.3497
10.423
11.7867
2.6843
2.19869
2.28627
2.35565
2.41988
2.48557
2.57913
2.72863
2.99918
3.45348
4.00616
4.47092
8.7569
7.5231
6.41231
6.19814
1.47061
2.32915
2.86476
2.63974
0.397539
0.688589
1.04494
1.36893
1.61047
1.78934
1.92453
2.06801
2.26853
2.59215
3.04236
3.69544
7.34366
5.47868
3.93495
2.06221
1.90432
2.58665
2.90127
2.16835
0.684588
0.30098
0.402347
0.631837
0.893636
1.14174
1.36315
1.56241
1.75466
2.01401
2.35748
3.01095
6.13472
4.23144
2.95392
2.15681
2.06204
2.5946
2.83999
2.26429
1.04668
0.406787
0.294037
0.324564
0.451773
0.663698
0.911864
1.14666
1.34293
1.547
1.80152
2.38474
5.37752
3.78477
2.98836
2.36065
2.26563
2.6245
2.76817
2.34218
1.38418
0.644002
0.325647
0.32455
0.349738
0.443167
0.610882
0.816396
1.01448
1.1958
1.40208
1.92175
4.98326
3.81576
3.18793
2.69721
2.54238
2.70486
2.76256
2.41423
1.63535
0.918845
0.461256
0.351696
0.361787
0.386634
0.45518
0.578736
0.747342
0.929272
1.1123
1.55679
4.72327
3.86357
3.52042
3.19456
2.94528
2.86267
2.795
2.48791
1.82
1.18017
0.68915
0.455852
0.390573
0.396124
0.427002
0.495898
0.616228
0.773101
0.924194
1.29771
4.59448
3.86164
3.75839
3.7383
3.53815
3.1558
2.90507
2.59005
1.958
1.41364
0.956493
0.643307
0.474295
0.431994
0.447427
0.503801
0.600941
0.724218
0.841671
1.13595
4.51933
3.87749
3.98103
4.16945
4.10735
3.70665
3.15432
2.74981
2.10708
1.61852
1.20796
0.870162
0.618471
0.508814
0.51129
0.543998
0.612139
0.703069
0.788751
1.00846
4.45504
3.86612
4.07035
4.30616
4.55665
4.3792
3.65178
3.03633
2.31729
1.81761
1.41442
1.08041
0.799369
0.640683
0.615076
0.621742
0.650216
0.705502
0.747646
0.898038
4.36484
3.80872
4.04905
4.27744
4.69554
4.79317
4.25493
3.50018
2.65737
2.08918
1.62565
1.26745
0.98341
0.808704
0.750861
0.724501
0.713247
0.71795
0.734809
0.847916
4.27967
3.73496
3.98828
4.2097
4.66325
4.79256
4.63173
4.04422
3.11679
2.44585
1.89057
1.48063
1.17567
0.976228
0.886076
0.825686
0.769765
0.742502
0.754242
0.854747
4.08858
3.56814
3.80277
4.01973
4.46711
4.62633
4.63904
4.46481
3.74815
3.10104
2.48778
2.02004
1.64927
1.38539
1.21642
1.07862
0.951128
0.879521
0.879495
0.933908
15.2799
16.2355
16.603
14.8006
13.7787
13.3908
12.5041
11.0196
9.17969
7.69794
6.44617
5.66081
5.24022
4.9705
4.8477
4.78063
4.72092
4.63027
4.54315
4.34306
16.217
16.9087
17.0595
13.4502
12.8826
13.52
12.8925
10.8665
7.89936
5.76566
4.47735
4.01835
4.03174
4.0553
4.05637
4.08043
4.07598
4.02371
3.95263
3.78363
16.4899
17.0629
13.9348
11.0576
12.3617
13.863
13.4446
10.9287
6.73623
4.15055
3.13537
3.17653
3.38707
3.71059
3.9481
4.18329
4.27979
4.25889
4.19978
4.01133
14.7478
13.252
10.8033
8.93372
10.8673
14.0022
14.2605
12.3179
6.48864
2.2241
2.29986
2.49936
2.85399
3.36394
3.90483
4.31452
4.47363
4.45195
4.39784
4.22402
13.631
12.453
11.6793
9.91337
1.55681
2.01731
2.18028
2.39197
2.68088
3.11072
3.73453
4.30892
4.7503
4.85499
4.82508
4.63429
13.1277
13.0466
13.2867
13.5503
2.39554
2.66513
2.67383
2.70962
2.80355
2.98898
3.34404
3.96897
4.58835
4.91858
4.91999
4.76771
12.218
12.5005
13.0233
13.8581
2.94458
3.00713
2.93254
2.8538
2.85549
2.90181
3.04132
3.35895
3.93072
4.44917
4.79242
4.79533
10.7666
10.5536
10.6227
11.997
2.77205
2.28851
2.37358
2.4431
2.50486
2.5817
2.69783
2.88775
3.24038
3.75481
4.25639
4.63017
8.98723
7.70165
6.57771
6.49596
1.5364
2.44208
2.99266
2.76157
0.450071
0.728139
1.09347
1.41989
1.66875
1.85083
1.99416
2.16729
2.42318
2.82943
3.30711
3.90836
7.52875
5.59104
4.01452
2.16071
2.01579
2.70632
3.03139
2.28795
0.750573
0.343967
0.444968
0.668892
0.935905
1.19612
1.42781
1.63107
1.86181
2.18506
2.57883
3.228
6.30481
4.3224
3.01732
2.23981
2.18076
2.71239
2.95529
2.37382
1.12949
0.454431
0.335607
0.365267
0.493517
0.711831
0.967135
1.20624
1.41712
1.6657
1.96784
2.58806
5.55285
3.91296
3.0708
2.442
2.39198
2.74375
2.87692
2.44739
1.46406
0.695467
0.369958
0.364647
0.389892
0.481754
0.662997
0.877524
1.07397
1.2803
1.52621
2.09564
5.14706
3.95447
3.31156
2.79918
2.67743
2.83302
2.87937
2.51585
1.71504
0.97946
0.512193
0.394345
0.401411
0.435048
0.513143
0.638446
0.807392
0.998088
1.20897
1.71161
4.87668
3.99681
3.67157
3.32234
3.11015
3.01592
2.92765
2.6011
1.89839
1.25253
0.752614
0.503669
0.441157
0.450155
0.485397
0.558054
0.677736
0.836743
1.01774
1.44277
4.74457
3.99666
3.9163
3.87417
3.74965
3.37349
3.07192
2.72628
2.04415
1.49448
1.03021
0.707674
0.538601
0.493227
0.510097
0.565913
0.656766
0.783768
0.923553
1.25274
4.67076
4.00819
4.14137
4.29166
4.3303
4.00113
3.39993
2.92595
2.22334
1.70431
1.28429
0.940459
0.687052
0.578037
0.578524
0.605142
0.667687
0.763617
0.855352
1.0971
4.60466
3.9915
4.2069
4.4184
4.75042
4.62402
3.98252
3.29384
2.49007
1.94244
1.50409
1.14991
0.872464
0.716884
0.680721
0.683428
0.710137
0.761075
0.805218
0.976894
4.5099
3.92685
4.17756
4.38376
4.80603
4.90582
4.48441
3.81111
2.91015
2.27781
1.76357
1.36729
1.07312
0.89207
0.825483
0.794659
0.773146
0.774231
0.800281
0.934079
4.42201
3.85061
4.10834
4.31684
4.76342
4.89017
4.79703
4.30637
3.39141
2.68004
2.07604
1.62584
1.29609
1.09111
0.983439
0.902895
0.833109
0.811955
0.827398
0.941554
4.22685
3.68175
3.91172
4.13041
4.54896
4.71055
4.78441
4.64754
3.97105
3.32434
2.70267
2.21185
1.82277
1.54832
1.34602
1.17987
1.04403
0.974694
0.972138
1.02653
15.5856
16.5677
16.9825
15.4702
14.4416
13.8732
12.9018
11.4005
9.53751
8.01303
6.72381
5.91779
5.46445
5.177
5.0354
4.95433
4.88096
4.7773
4.68326
4.47751
16.5199
17.312
17.5522
14.3073
13.5754
14.0118
13.2856
11.2343
8.23128
6.02242
4.6852
4.23825
4.22806
4.21292
4.20121
4.20938
4.18881
4.12021
4.046
3.87874
16.839
17.4617
15.4157
12.0717
12.8699
14.2735
13.8361
11.3068
7.06193
4.34082
3.28524
3.33945
3.57588
3.88015
4.11801
4.34515
4.38847
4.35269
4.27784
4.07804
15.4174
14.1208
11.8405
9.51595
11.2707
14.4259
14.6817
12.7401
6.92666
2.35084
2.41138
2.62144
3.01665
3.55443
4.06744
4.405
4.52568
4.50081
4.44949
4.28283
14.3028
13.1745
12.1492
10.2436
1.68003
2.16535
2.32639
2.54753
2.86076
3.34177
3.97891
4.5359
4.8924
4.90943
4.86901
4.65723
13.5972
13.5259
13.6543
13.9544
2.54901
2.84315
2.85291
2.89348
2.99966
3.21717
3.65003
4.31003
4.81323
4.96326
4.95021
4.79086
12.5931
12.8602
13.4031
14.2702
3.10307
3.20202
3.12375
3.04047
3.0449
3.10696
3.2858
3.69331
4.29434
4.68319
4.93392
4.91262
11.1239
10.8851
10.9494
12.3933
2.93377
2.45391
2.54877
2.62001
2.68555
2.77524
2.91068
3.14677
3.58787
4.11212
4.56906
4.81911
9.29413
7.95787
6.81706
6.65653
1.69502
2.58261
3.13877
2.90256
0.492278
0.800212
1.19058
1.53126
1.79119
1.97444
2.13661
2.34647
2.66955
3.14625
3.63317
4.15956
7.79605
5.79212
4.16301
2.31628
2.18673
2.88285
3.21049
2.43647
0.834281
0.413816
0.510826
0.734265
1.02049
1.303
1.54471
1.76664
2.04532
2.43491
2.8586
3.48542
6.54422
4.50241
3.15481
2.3799
2.35778
2.8895
3.13388
2.54137
1.24702
0.529919
0.403116
0.434579
0.571299
0.804634
1.0702
1.31673
1.54951
1.85094
2.1966
2.83933
5.77584
4.10548
3.22621
2.5869
2.57607
2.9256
3.05647
2.62033
1.59195
0.783948
0.447762
0.438338
0.461828
0.559858
0.753611
0.971854
1.1783
1.42137
1.7106
2.3238
5.34044
4.13563
3.49364
2.97334
2.87841
3.02779
3.06272
2.69173
1.84543
1.08737
0.611015
0.472186
0.476322
0.51119
0.596081
0.735831
0.911585
1.11711
1.3637
1.91375
5.05811
4.14138
3.84293
3.51212
3.35354
3.24102
3.12748
2.78581
2.02346
1.37328
0.86657
0.594356
0.522278
0.528839
0.567659
0.641838
0.7674
0.941844
1.15104
1.61746
4.91324
4.13716
4.0942
4.03594
4.00288
3.66785
3.30834
2.92504
2.18583
1.61509
1.14068
0.805935
0.627057
0.578142
0.591458
0.644057
0.730911
0.866978
1.02384
1.39169
4.83936
4.14159
4.31098
4.39964
4.55885
4.32014
3.71353
3.16774
2.40029
1.83803
1.39004
1.03236
0.784459
0.666611
0.658101
0.680006
0.743021
0.840022
0.939921
1.21436
4.77112
4.11719
4.33663
4.49826
4.89708
4.83898
4.3083
3.61535
2.72977
2.11964
1.62954
1.24897
0.972288
0.810051
0.760046
0.760951
0.786836
0.837608
0.887728
1.08327
4.6719
4.04525
4.29561
4.46501
4.90169
4.98288
4.69927
4.13288
3.20647
2.51288
1.94033
1.50502
1.19189
1.00389
0.915411
0.875037
0.851754
0.853873
0.882973
1.03553
4.58187
3.96946
4.21468
4.40453
4.85218
4.96339
4.95424
4.5939
3.68707
2.93496
2.29199
1.80523
1.45152
1.2296
1.08868
0.993324
0.919629
0.896507
0.914335
1.04318
4.38527
3.80478
4.01174
4.22884
4.62446
4.78787
4.92969
4.8393
4.20383
3.55588
2.93314
2.42455
2.01595
1.71577
1.47991
1.2965
1.14863
1.07561
1.07265
1.12487
16.3593
17.3621
17.7945
16.4971
15.4173
14.7399
13.6863
12.1043
10.1738
8.5593
7.20869
6.36165
5.88591
5.59721
5.44374
5.34268
5.25924
5.15091
5.05389
4.839
17.2895
18.1505
18.4362
15.4491
14.5383
14.7956
13.9881
11.8579
8.75913
6.44791
5.04488
4.58168
4.57249
4.55218
4.5449
4.53675
4.50046
4.42214
4.34523
4.17398
17.624
18.2606
17.2655
13.3581
13.5121
14.8052
14.4286
11.8318
7.49481
4.65988
3.56949
3.63643
3.90242
4.21443
4.47565
4.68537
4.69192
4.64151
4.55061
4.3362
16.4259
15.2562
13.0459
10.3141
11.6926
14.9194
15.1884
13.2551
7.29946
2.52588
2.60836
2.86563
3.32544
3.92408
4.42947
4.74203
4.80907
4.77717
4.71341
4.52717
15.2882
14.2134
12.8844
10.7614
1.89375
2.32908
2.5181
2.77994
3.15273
3.7248
4.39512
4.95665
5.20075
5.18159
5.10839
4.86111
14.4597
14.3292
14.2397
14.4695
2.73916
3.06454
3.08763
3.1497
3.28826
3.56386
4.10555
4.79701
5.21254
5.23724
5.20434
5.00423
13.3805
13.5522
13.9933
14.8077
3.33152
3.44962
3.36657
3.3033
3.32237
3.41993
3.66863
4.18062
4.78953
5.12216
5.29257
5.22297
11.8344
11.476
11.4258
12.8986
3.17658
2.64347
2.76616
2.85374
2.93814
3.05206
3.22653
3.54097
4.07664
4.62337
5.05259
5.19909
9.92736
8.42815
7.12096
6.79414
1.88786
2.77739
3.36985
3.1087
0.564706
0.865319
1.30584
1.67903
1.96112
2.17097
2.37842
2.64734
3.05157
3.59042
4.09405
4.57002
8.35468
6.2023
4.42697
2.48393
2.38746
3.10553
3.45767
2.65896
0.95104
0.492724
0.587485