/*--------------------------------*- C++ -*----------------------------------*\
  =========                 |
  \\      /  F ield         | OpenFOAM: The Open Source CFD Toolbox
   \\    /   O peration     | Website:  https://openfoam.org
    \\  /    A nd           | Version:  9
     \\/     M anipulation  |
\*---------------------------------------------------------------------------*/
FoamFile
{
    format      ascii;
    class       volScalarField;
    location    "0.0045";
    object      rho.Air;
}
// * * * * * * * * * * * * * * * * * * * * * * * * * * * * * * * * * * * * * //

dimensions      [1 -3 0 0 0 0 0];

internalField   nonuniform List<scalar> 
9720
(
0.0130217
0.01487
0.0152347
0.0142051
0.0132578
0.0126522
0.0117377
0.0104789
0.00896452
0.00776076
0.00673592
0.00608087
0.00564419
0.00533028
0.00519861
0.00509205
0.00496648
0.00479139
0.00465168
0.00420935
0.0148234
0.0173693
0.017586
0.0144184
0.0132333
0.0132494
0.0126069
0.0106623
0.00804517
0.00613654
0.00489115
0.00458352
0.00465569
0.0046727
0.00464792
0.00458453
0.0044828
0.00432288
0.00419669
0.0037812
0.0151241
0.0174348
0.0160272
0.0118508
0.0118667
0.0131426
0.0129602
0.0106346
0.00681011
0.00426292
0.00299647
0.00302451
0.00325015
0.00358709
0.00392824
0.00428632
0.0044282
0.00440184
0.00432292
0.00390095
0.0141271
0.0143876
0.011809
0.00967492
0.0101156
0.0133264
0.0136546
0.0119916
0.00678838
0.0016905
0.00127031
0.00133355
0.00156865
0.00200457
0.00255197
0.00306482
0.00357306
0.00389391
0.00392875
0.00371158
0.0131376
0.0131379
0.0116697
0.00997636
0.00127528
0.00034274
0.000369082
0.000425448
0.000528195
0.000726148
0.0010581
0.00151234
0.00209292
0.00268454
0.00314444
0.00314067
0.0124482
0.0129689
0.0128019
0.0130025
0.000487379
0.000160336
0.000167052
0.000182498
0.000209553
0.000258281
0.000359279
0.000551475
0.000848331
0.00124434
0.00169413
0.00210403
0.0114831
0.0122632
0.0125797
0.0132845
0.000291628
0.000101009
0.000102353
0.000106855
0.000115755
0.000131032
0.00015771
0.000210772
0.00030815
0.0004586
0.000665089
0.00105597
0.0102379
0.0103638
0.0102812
0.0116095
0.000167821
6.00809e-05
6.36546e-05
6.93708e-05
7.70923e-05
8.81754e-05
0.000104177
0.000129407
0.000172679
0.000238655
0.00031746
0.000516396
0.00876551
0.00785256
0.00660143
0.00636812
0.00123582
0.000539395
0.000355665
0.000209463
1.76584e-05
1.72191e-05
2.50205e-05
3.37526e-05
4.288e-05
5.26597e-05
6.4754e-05
8.18183e-05
0.000107763
0.000148136
0.000191708
0.000296687
0.00760195
0.00601788
0.00415707
0.00166776
0.000370373
0.000190515
0.000120287
7.07028e-05
1.97094e-05
9.71952e-06
1.07939e-05
1.47054e-05
2.16114e-05
3.08683e-05
4.20642e-05
5.62077e-05
7.64867e-05
0.000108069
0.000143377
0.000226927
0.00660564
0.00482731
0.00292854
0.00126416
0.000395553
0.00019643
0.000121421
7.4453e-05
2.90801e-05
1.12651e-05
1.08307e-05
1.16338e-05
1.41337e-05
1.92977e-05
2.70972e-05
3.77461e-05
5.26247e-05
7.68878e-05
0.000106496
0.000182661
0.0059514
0.0045294
0.00294903
0.00132445
0.000452286
0.000211959
0.000126472
8.08228e-05
3.91621e-05
1.58914e-05
1.18275e-05
1.21947e-05
1.41485e-05
1.74903e-05
2.23768e-05
2.88794e-05
3.76339e-05
5.37146e-05
7.7757e-05
0.000150759
0.00549748
0.00457258
0.00315522
0.00154723
0.000558984
0.000241729
0.000137097
8.97298e-05
4.95215e-05
2.35325e-05
1.44815e-05
1.44407e-05
1.5349e-05
1.78205e-05
2.25001e-05
2.889e-05
3.73992e-05
4.93945e-05
6.53043e-05
0.000126409
0.00516822
0.00455772
0.0034742
0.00195416
0.000762965
0.000297873
0.000156024
0.000102733
6.05244e-05
3.36364e-05
1.96753e-05
1.79885e-05
1.82206e-05
1.96545e-05
2.35244e-05
3.0055e-05
3.89739e-05
5.10069e-05
6.50614e-05
0.000113739
0.00502903
0.00449655
0.00378316
0.00246833
0.00110216
0.00041435
0.000190079
0.000121889
7.4256e-05
4.60174e-05
2.76691e-05
2.26832e-05
2.28967e-05
2.38853e-05
2.68924e-05
3.30277e-05
4.21318e-05
5.45484e-05
6.72709e-05
0.000110515
0.00492528
0.00441716
0.0041022
0.00295151
0.00155768
0.000629262
0.000258076
0.000153167
9.41661e-05
6.20211e-05
3.90241e-05
2.88756e-05
2.89163e-05
3.02489e-05
3.33401e-05
3.88645e-05
4.74241e-05
5.99466e-05
7.26995e-05
0.000113881
0.00480771
0.00431982
0.00424673
0.00343603
0.00212731
0.000946898
0.000379107
0.000207672
0.000125141
8.53274e-05
5.55098e-05
3.75908e-05
3.70776e-05
3.8751e-05
4.23547e-05
4.78263e-05
5.56432e-05
6.77565e-05
8.06664e-05
0.000121281
0.00464374
0.00417509
0.00423196
0.00378841
0.00271508
0.00135399
0.000558697
0.000290153
0.000173854
0.000121988
8.27416e-05
5.44842e-05
4.90688e-05
5.06884e-05
5.44419e-05
6.02726e-05
6.83065e-05
7.91666e-05
9.06644e-05
0.000132353
0.00451728
0.00406611
0.00417202
0.00384731
0.0031804
0.00182068
0.000796026
0.000387523
0.000226012
0.000162363
0.000115558
8.00226e-05
6.53844e-05
6.50939e-05
6.73352e-05
7.30273e-05
8.15864e-05
9.14876e-05
0.000103786
0.000146429
0.00411647
0.00369721
0.00380657
0.00366038
0.00318366
0.00224042
0.00123114
0.000631937
0.000355289
0.000260344
0.00020161
0.000160328
0.000131277
0.000117571
0.000112951
0.000116067
0.000123772
0.000135264
0.000148627
0.000191739
0.011696
0.0138674
0.014241
0.0130943
0.0122394
0.0115907
0.0107206
0.00957512
0.00815212
0.00708569
0.00610447
0.00544604
0.00499086
0.00464744
0.00449966
0.00440832
0.00429014
0.00410327
0.0039528
0.00349552
0.013846
0.0179318
0.018304
0.0142537
0.0129528
0.0128029
0.0121963
0.0103748
0.00805739
0.00605093
0.0047372
0.00439537
0.0044051
0.00435786
0.00424662
0.00411388
0.00395918
0.00375452
0.00359977
0.00310797
0.0141908
0.0182542
0.0178337
0.0116859
0.0109534
0.0124319
0.0124139
0.0104118
0.00651249
0.00339825
0.00218
0.00223532
0.00248678
0.00286358
0.0032409
0.00362798
0.0038125
0.00379517
0.00371428
0.00320147
0.0132069
0.0144016
0.0116411
0.00932064
0.0150405
0.0204955
0.023012
0.021478
0.00805285
0.000406367
0.000442541
0.00053989
0.000735167
0.00105855
0.00151054
0.00202419
0.00257422
0.00296741
0.0030605
0.00283222
0.0121964
0.0129538
0.0106698
0.0138825
0.000198989
2.65513e-05
5.74512e-05
9.49579e-05
0.000148144
0.000239059
0.000406141
0.000682823
0.00108717
0.00153678
0.00196737
0.00204155
0.0113752
0.0125579
0.0121378
0.020244
7.45158e-06
1.88773e-05
3.10237e-05
4.3762e-05
5.87611e-05
7.96482e-05
0.000119067
0.000204685
0.000349348
0.000553148
0.000808983
0.00109713
0.0104199
0.0118463
0.012076
0.0242468
1.7157e-05
2.68687e-05
3.31359e-05
3.95898e-05
4.66462e-05
5.51963e-05
6.70246e-05
8.94943e-05
0.000133039
0.000199792
0.000291315
0.000481995
0.00926718
0.0100085
0.0100478
0.0227527
2.85989e-05
2.76812e-05
3.17091e-05
3.69713e-05
4.31749e-05
5.1013e-05
6.12429e-05
7.59764e-05
0.000100468
0.000137967
0.000180896
0.000281049
0.00788489
0.007816
0.00630348
0.00798655
0.000193964
4.99968e-06
1.11786e-05
1.83175e-05
6.38262e-06
1.11871e-05
1.74516e-05
2.41734e-05
3.1207e-05
3.85908e-05
4.71496e-05
5.86642e-05
7.57417e-05
0.000102627
0.000133136
0.000199808
0.00685117
0.00589831
0.00326398
0.000361874
2.29077e-05
1.63152e-05
2.1697e-05
2.16187e-05
1.01354e-05
7.23149e-06
8.58623e-06
1.24386e-05
1.85124e-05
2.61522e-05
3.49611e-05
4.56005e-05
6.04402e-05
8.31621e-05
0.000109725
0.00017109
0.00591285
0.00466448
0.00208403
0.000401641
5.26325e-05
2.91726e-05
2.89044e-05
2.6338e-05
1.53437e-05
8.3751e-06
8.66153e-06
9.74902e-06
1.22954e-05
1.70221e-05
2.42196e-05
3.37708e-05
4.61583e-05
6.48321e-05
8.74707e-05
0.000146762
0.00528127
0.00439678
0.00215372
0.000506087
9.14804e-05
4.32099e-05
3.64009e-05
3.22872e-05
2.14254e-05
1.16466e-05
9.65979e-06
1.01626e-05
1.19278e-05
1.51997e-05
2.01581e-05
2.63145e-05
3.41607e-05
4.76159e-05
6.68059e-05
0.00012558
0.00482881
0.00438924
0.00243079
0.000711039
0.00014896
6.01268e-05
4.46862e-05
3.92631e-05
2.82444e-05
1.69717e-05
1.19433e-05
1.19084e-05
1.29175e-05
1.5669e-05
2.02226e-05
2.59414e-05
3.33205e-05
4.3638e-05
5.73134e-05
0.000109014
0.00447864
0.00429721
0.00281946
0.00103991
0.000248285
8.45183e-05
5.48874e-05
4.80354e-05
3.57652e-05
2.4067e-05
1.60557e-05
1.52286e-05
1.57777e-05
1.73847e-05
2.09236e-05
2.65842e-05
3.437e-05
4.50717e-05
5.80613e-05
0.000101014
0.00432591
0.00412882
0.00316516
0.00148682
0.000428804
0.000131525
6.95571e-05
5.96252e-05
4.47639e-05
3.28175e-05
2.2546e-05
1.9954e-05
2.02633e-05
2.11313e-05
2.36329e-05
2.87782e-05
3.68689e-05
4.86137e-05
6.06704e-05
9.7646e-05
0.00423651
0.00396349
0.00350722
0.00198738
0.000719522
0.000230204
9.83317e-05
7.66526e-05
5.71558e-05
4.38423e-05
3.17882e-05
2.5658e-05
2.57477e-05
2.67683e-05
2.91357e-05
3.39052e-05
4.19505e-05
5.40107e-05
6.51847e-05
9.97894e-05
0.00412497
0.00380673
0.00367976
0.002522
0.00113272
0.000390233
0.000153173
0.000105369
7.59721e-05
5.95449e-05
4.43864e-05
3.3194e-05
3.28841e-05
3.42208e-05
3.72677e-05
4.24204e-05
5.00701e-05
6.04857e-05
7.08054e-05
0.000104827
0.00395449
0.00361634
0.00366621
0.00292175
0.00158644
0.000609747
0.000235354
0.000149897
0.000106341
8.41538e-05
6.38265e-05
4.63222e-05
4.3058e-05
4.46207e-05
4.85237e-05
5.4396e-05
6.11884e-05
6.89906e-05
7.81195e-05
0.000113347
0.00382234
0.00348035
0.00359679
0.00302782
0.0020216
0.000886474
0.000346283
0.000201906
0.000140816
0.00011289
8.76765e-05
6.54855e-05
5.64204e-05
5.73301e-05
6.02547e-05
6.53226e-05
7.1707e-05
7.89072e-05
8.86572e-05
0.00012489
0.00341507
0.00304007
0.00313144
0.0028185
0.00210125
0.00119603
0.000568706
0.000324529
0.000218256
0.000180509
0.000150881
0.000126286
0.000108414
0.000100657
9.76696e-05
9.99265e-05
0.000105623
0.000114858
0.000125973
0.00016299
0.00866496
0.0107882
0.0109928
0.00996201
0.0092243
0.00859098
0.00784764
0.00705117
0.0061233
0.00535907
0.0045995
0.00408873
0.00375987
0.00350419
0.00339782
0.00335581
0.0032993
0.00318513
0.00307987
0.0027003
0.0108601
0.0193068
0.0200905
0.0141615
0.0124497
0.0122301
0.0120084
0.0104005
0.00803953
0.00570787
0.00431887
0.00382035
0.00362131
0.00346927
0.00333516
0.00320436
0.00304374
0.00282247
0.00266033
0.00212292
0.0110598
0.0201437
0.0206344
0.0119555
0.0114555
0.0125167
0.0132111
0.0112802
0.00620924
0.00148802
0.000709758
0.000812443
0.00105656
0.00140659
0.00180044
0.00221656
0.00247145
0.00247883
0.00242095
0.00185117
0.010168
0.0144363
0.0117775
0.0198461
0.0104381
0.0111934
0.0242774
0.000826677
6.37449e-05
9.42146e-06
2.48242e-05
4.85739e-05
9.26506e-05
0.000177597
0.000335682
0.000596295
0.000947717
0.00127834
0.00143411
0.00128515
0.00925329
0.0127044
0.0102574
0.000449064
1.57438e-06
6.28613e-06
8.16924e-06
1.12588e-05
1.67362e-05
2.76584e-05
5.22961e-05
0.000107196
0.00021268
0.000365417
0.000548389
0.000651457
0.00838234
0.0123474
0.0131118
0.0262255
7.85723e-06
1.52809e-05
1.69649e-05
1.85723e-05
2.0895e-05
2.48231e-05
3.15883e-05
4.56044e-05
6.97445e-05
0.000107903
0.000160444
0.000248696
0.00753676
0.0115169
0.0133815
0.0270847
1.91632e-05
3.05332e-05
3.08053e-05
3.13132e-05
3.24197e-05
3.45392e-05
3.85805e-05
4.69784e-05
6.13904e-05
7.94984e-05
9.88112e-05
0.000137674
0.00667216
0.0098129
0.0113167
0.000608066
3.32504e-05
3.2791e-05
3.39976e-05
3.65349e-05
4.0057e-05
4.48544e-05
5.13475e-05
5.98822e-05
7.28351e-05
9.20596e-05
0.00011435
0.000153018
0.00573512
0.00715707
0.006237
6.59221e-05
1.06916e-06
6.76733e-06
1.66853e-05
2.78347e-05
7.48848e-06
1.33218e-05
1.95901e-05
2.57328e-05
3.1622e-05
3.76166e-05
4.417e-05
5.28067e-05
6.51949e-05
8.39316e-05
0.000106388
0.000148524
0.00502566
0.00528482
0.00143386
6.66334e-06
4.98166e-06
1.30907e-05
2.62189e-05
2.78027e-05
1.2241e-05
7.71952e-06
9.21837e-06
1.34712e-05
1.9689e-05
2.70507e-05
3.51722e-05
4.42544e-05
5.61199e-05
7.38052e-05
9.56365e-05
0.000143032
0.00433029
0.00411459
0.000623586
1.89242e-05
6.43592e-06
1.44238e-05
2.63895e-05
2.88734e-05
1.76727e-05
9.06145e-06
9.25659e-06
1.02806e-05
1.29582e-05
1.80096e-05
2.55031e-05
3.48785e-05
4.60383e-05
6.16424e-05
8.08908e-05
0.00013053
0.00386715
0.00371959
0.00072178
4.06114e-05
9.03802e-06
1.56891e-05
2.67672e-05
3.12828e-05
2.31449e-05
1.2923e-05
1.02323e-05
1.06841e-05
1.24046e-05
1.55348e-05
2.07427e-05
2.76087e-05
3.57383e-05
4.79637e-05
6.46773e-05
0.000114958
0.00356555
0.00353146
0.000974121
8.26655e-05
1.41541e-05
1.77329e-05
2.77113e-05
3.4734e-05
2.84577e-05
1.85447e-05
1.27918e-05
1.24641e-05
1.33212e-05
1.59385e-05
2.04985e-05
2.61015e-05
3.3503e-05
4.33022e-05
5.54615e-05
0.000100639
0.00332065
0.00336895
0.00133433
0.000164208
2.51142e-05
2.14541e-05
2.97042e-05
3.93767e-05
3.38568e-05
2.51828e-05
1.75221e-05
1.57958e-05
1.61472e-05
1.76483e-05
2.09993e-05
2.66301e-05
3.44717e-05
4.45234e-05
5.60621e-05
9.41944e-05
0.00322148
0.00321797
0.00172947
0.000317802
5.09469e-05
2.81171e-05
3.37495e-05
4.55036e-05
3.98189e-05
3.26201e-05
2.45052e-05
2.07885e-05
2.08603e-05
2.13323e-05
2.35729e-05
2.86578e-05
3.67153e-05
4.7802e-05
5.88277e-05
9.13698e-05
0.00319133
0.003073
0.00214187
0.000577718
0.000109807
4.29931e-05
4.21729e-05
5.3528e-05
4.78335e-05
4.10741e-05
3.32194e-05
2.70435e-05
2.64103e-05
2.70843e-05
2.90644e-05
3.34603e-05
4.10267e-05
5.26642e-05
6.29568e-05
9.29315e-05
0.00314983
0.00291533
0.00241001
0.000932102
0.000223144
7.00113e-05
5.64223e-05
6.60936e-05
5.96215e-05
5.22932e-05
4.36272e-05
3.44984e-05
3.34119e-05
3.45601e-05
3.71371e-05
4.14656e-05
4.85553e-05
5.86462e-05
6.79393e-05
9.7063e-05
0.00305759
0.00271489
0.00242514
0.00127622
0.000386305
0.00011288
7.53165e-05
8.52112e-05
7.7881e-05
6.92164e-05
5.83181e-05
4.56409e-05
4.24836e-05
4.38524e-05
4.75247e-05
5.28569e-05
5.90278e-05
6.5995e-05
7.39389e-05
0.000103952
0.00297295
0.00257706
0.00237686
0.00145456
0.000582048
0.000172466
9.6911e-05
0.00010787
9.9812e-05
9.00258e-05
7.65109e-05
6.12631e-05
5.37923e-05
5.46367e-05
5.77998e-05
6.247e-05
6.79803e-05
7.41962e-05
8.24928e-05
0.000113517
0.00264899
0.00209745
0.00183599
0.00131077
0.000693665
0.000273608
0.000141665
0.000147689
0.00014124
0.000135759
0.000123953
0.000109044
9.57661e-05
9.02445e-05
8.87168e-05
9.05746e-05
9.55064e-05
0.000103655
0.000113434
0.000145771
0.00519529
0.00595413
0.00607908
0.00552681
0.0049542
0.00447742
0.00404679
0.00365834
0.00330645
0.0030875
0.00282166
0.00265952
0.00257861
0.00251023
0.00253024
0.00258101
0.00260322
0.00258622
0.00255349
0.00229338
0.00604093
0.0151468
0.0155153
0.0106866
0.00864323
0.00820312
0.00712763
0.00556674
0.00431581
0.00276859
0.00199144
0.00162369
0.00172816
0.0018322
0.00193006
0.00200217
0.00200096
0.00192774
0.00183633
0.00144423
0.00617245
0.0159495
0.0147928
0.0087218
0.0085044
0.00930657
0.00972704
0.00673699
0.00319272
0.000394378
7.70618e-05
8.41888e-05
0.0001254
0.000233493
0.000408556
0.000629286
0.00084883
0.000934039
0.000929595
0.000707426
0.0057398
0.0114579
0.00920989
0.000358173
0.000893198
0.00248189
0.0281522
0.000365909
2.78184e-05
3.28083e-06
4.8378e-06
6.52119e-06
9.32045e-06
1.56021e-05
2.9739e-05
6.30561e-05
0.000126295
0.000213031
0.00028547
0.00029559
0.00506587
0.00907836
0.00931827
0.000721405
2.86575e-06
9.02535e-06
1.03132e-05
1.18837e-05
1.38308e-05
1.67623e-05
2.08886e-05
2.64718e-05
3.54566e-05
5.22955e-05
7.50194e-05
0.000116827
0.00447062
0.00810625
0.00976845
0.0132682
1.26792e-05
2.15233e-05
2.32519e-05
2.44061e-05
2.55708e-05
2.71851e-05
2.97861e-05
3.44139e-05
4.09809e-05
4.88878e-05
5.55939e-05
7.09952e-05
0.00398889
0.00684269
0.00959554
0.0292916
2.78798e-05
4.03278e-05
3.99121e-05
3.98387e-05
4.02039e-05
4.14148e-05
4.40376e-05
4.88622e-05
5.65336e-05
6.57937e-05
7.30738e-05
8.59366e-05
0.00357701
0.00521156
0.00664408
0.000486583
4.3769e-05
4.00753e-05
4.12372e-05
4.34954e-05
4.68669e-05
5.13688e-05
5.7512e-05
6.5714e-05
7.72038e-05
9.2953e-05
0.000114638
0.00013863
0.00320025
0.00401409
0.00331601
2.27813e-05
2.02624e-06
1.01712e-05
2.3262e-05
3.68088e-05
8.88434e-06
1.53154e-05
2.31483e-05
3.06891e-05
3.72225e-05
4.34825e-05
5.00476e-05
5.82181e-05
6.94838e-05
8.58397e-05
0.000107432
0.000145298
0.00297332
0.00240233
0.000593638
2.30573e-06
6.64887e-06
1.69869e-05
3.29727e-05
3.39602e-05
1.45572e-05
8.27439e-06
1.00935e-05
1.55897e-05
2.30432e-05
3.12979e-05
3.99976e-05
4.94367e-05
6.04203e-05
7.62197e-05
9.65673e-05
0.000141118
0.00270956
0.00164331
9.75188e-05
3.41508e-06
7.65181e-06
1.82747e-05
3.25263e-05
3.49441e-05
2.10735e-05
1.0006e-05
1.01142e-05
1.10439e-05
1.42555e-05
2.04706e-05
2.91959e-05
3.95302e-05
5.0706e-05
6.45885e-05
8.197e-05
0.00012857
0.00254793
0.00148673
7.44211e-05
4.7222e-06
8.8714e-06
1.91655e-05
3.24004e-05
3.6841e-05
2.73959e-05
1.48992e-05
1.10344e-05
1.14449e-05
1.32197e-05
1.65488e-05
2.24488e-05
3.0639e-05
4.0206e-05
5.19326e-05
6.68858e-05
0.000113354
0.00246649
0.00158229
0.000106053
6.94631e-06
1.03642e-05
2.01324e-05
3.27256e-05
3.98304e-05
3.28377e-05
2.1367e-05
1.40147e-05
1.32465e-05
1.41604e-05
1.66456e-05
2.09456e-05
2.68839e-05
3.47064e-05
4.45076e-05
5.60665e-05
9.75542e-05
0.00239177
0.00174625
0.00020601
1.19131e-05
1.26213e-05
2.14807e-05
3.38394e-05
4.39166e-05
3.80616e-05
2.8346e-05
1.94977e-05
1.66657e-05
1.67765e-05
1.79476e-05
2.12715e-05
2.70748e-05
3.52363e-05
4.53546e-05
5.55038e-05
8.99679e-05
0.00240962
0.00186981
0.000373336
2.39495e-05
1.59391e-05
2.34872e-05
3.62755e-05
4.94992e-05
4.36474e-05
3.56753e-05
2.70941e-05
2.2026e-05
2.11963e-05
2.14711e-05
2.35604e-05
2.87621e-05
3.72123e-05
4.80971e-05
5.77877e-05
8.77102e-05
0.00246245
0.00193807
0.000592388
5.48777e-05
2.11452e-05
2.73314e-05
4.04979e-05
5.69408e-05
5.08595e-05
4.38293e-05
3.60043e-05
2.90169e-05
2.68288e-05
2.72047e-05
2.89212e-05
3.33366e-05
4.10231e-05
5.20639e-05
6.17224e-05
8.90896e-05
0.00250144
0.00193896
0.000824869
0.000116345
3.07832e-05
3.35946e-05
4.69556e-05
6.72671e-05
6.11033e-05
5.38462e-05
4.5849e-05
3.69941e-05
3.38346e-05
3.47218e-05
3.70888e-05
4.11073e-05
4.77444e-05
5.7787e-05
6.64435e-05
9.21976e-05
0.00249318
0.00187758
0.000930908
0.000207965
4.96078e-05
4.10727e-05
5.524e-05
8.17139e-05
7.62891e-05
6.8505e-05
5.87434e-05
4.7215e-05
4.2325e-05
4.34976e-05
4.68773e-05
5.16635e-05
5.78657e-05
6.48031e-05
7.15642e-05
9.73404e-05
0.00247297
0.00180094
0.000931672
0.000288428
7.52802e-05
4.78797e-05
6.26365e-05
0.000102967
9.65355e-05
8.73959e-05
7.49835e-05
6.10129e-05
5.22137e-05
5.26303e-05
5.56371e-05
6.05194e-05
6.60239e-05
7.14054e-05
7.83878e-05
0.000105058
0.00225655
0.00145236
0.000727956
0.000312756
0.000120925
6.43928e-05
7.52913e-05
0.000121537
0.000130939
0.000128436
0.000118041
0.000103889
8.92987e-05
8.3686e-05
8.34915e-05
8.54563e-05
8.94646e-05
9.60365e-05
0.000104559
0.000132445
0.00417973
0.00450544
0.00468289
0.00434823
0.0038623
0.00347229
0.0031528
0.00286732
0.00261312
0.00249132
0.00234231
0.0022731
0.00224195
0.00224884
0.00229061
0.00236647
0.00242853
0.00242873
0.00241696
0.00219914
0.00452919
0.00228591
0.0026244
0.00252785
0.00246894
0.00259766
0.00247766
0.0019193
0.00137379
0.000513873
0.000168465
0.000743078
0.000967444
0.00130809
0.0014731
0.00159008
0.00163452
0.00161365
0.00156557
0.00127024
0.00469069
0.00265263
0.0046764
0.00507398
0.00675347
0.00695342
0.00731286
0.00497966
0.00177829
0.000217611
3.15817e-05
1.37525e-05
2.18228e-05
6.57376e-05
0.000154939
0.000252714
0.000359822
0.000439576
0.000452267
0.000414819
0.00448549
0.00240187
0.00488261
0.00148994
0.00224804
1.73108e-09
0.021819
0.000412769
8.11865e-06
3.58289e-06
5.30804e-06
6.72224e-06
8.27333e-06
1.02662e-05
1.2659e-05
1.63101e-05
2.33803e-05
3.82964e-05
5.351e-05
0.000106793
0.0039674
0.00249179
0.00572042
9.59305e-05
3.40298e-06
1.04268e-05
1.20263e-05
1.36469e-05
1.54954e-05
1.7805e-05
2.04902e-05
2.3139e-05
2.67126e-05
3.24018e-05
3.83788e-05
6.03225e-05
0.00351977
0.0026597
0.00704004
0.000316289
1.63239e-05
2.59215e-05
2.81031e-05
2.94137e-05
3.05795e-05
3.19361e-05
3.37935e-05
3.73414e-05
4.19392e-05
4.56305e-05
4.8582e-05
5.95434e-05
0.00317785
0.00248746
0.00744178
0.0241588
3.53368e-05
4.86226e-05
4.8196e-05
4.76365e-05
4.7798e-05
4.86894e-05
5.0933e-05
5.49154e-05
6.13564e-05
7.00981e-05
7.52961e-05
8.3479e-05
0.00288618
0.00188968
0.00499866
0.000303136
5.37108e-05
4.79152e-05
4.88456e-05
5.09879e-05
5.44479e-05
5.90281e-05
6.51795e-05
7.32653e-05
8.43254e-05
9.87892e-05
0.000120354
0.000143169
0.00262524
0.00143241
0.00201013
1.11453e-05
2.40722e-06
1.21297e-05
2.71006e-05
4.16513e-05
9.57337e-06
1.75249e-05
2.6956e-05
3.57035e-05
4.30481e-05
4.99146e-05
5.68687e-05
6.50766e-05
7.60324e-05
9.12627e-05
0.000112256
0.000149307
0.00249499
0.000534159
0.000247811
2.84385e-06
8.17709e-06
2.01509e-05
3.786e-05
3.77254e-05
1.58205e-05
8.68081e-06
1.10205e-05
1.7771e-05
2.64964e-05
3.57242e-05
4.51405e-05
5.50935e-05
6.60772e-05
8.11911e-05
0.00010061
0.000144006
0.00233852
0.000169523
3.48551e-05
4.14344e-06
9.39569e-06
2.18576e-05
3.76227e-05
3.86574e-05
2.2982e-05
1.04839e-05
1.0491e-05
1.15022e-05
1.53392e-05
2.28164e-05
3.26141e-05
4.36807e-05
5.56696e-05
6.93335e-05
8.59241e-05
0.000130489
0.00225154
0.00074722
1.211e-05
5.2238e-06
1.06088e-05
2.29093e-05
3.7421e-05
4.0591e-05
2.98091e-05
1.57393e-05
1.13297e-05
1.16845e-05
1.36774e-05
1.76797e-05
2.42236e-05
3.33774e-05
4.43836e-05
5.67492e-05
7.09498e-05
0.000114308
0.00221306
0.000951397
1.99493e-05
6.40873e-06
1.20157e-05
2.38001e-05
3.76383e-05
4.36266e-05
3.5664e-05
2.27482e-05
1.43768e-05
1.35778e-05
1.45855e-05
1.6962e-05
2.11194e-05
2.749e-05
3.62069e-05
4.63984e-05
5.75542e-05
9.64517e-05
0.00219247
0.00129041
6.42833e-05
7.82487e-06
1.37038e-05
2.47982e-05
3.85033e-05
4.76654e-05
4.11764e-05
3.01242e-05
2.02096e-05
1.70753e-05
1.69309e-05
1.79364e-05
2.12379e-05
2.74172e-05
3.63338e-05
4.64899e-05
5.53901e-05
8.77041e-05
0.00222303
0.00146238
0.000152863
9.57491e-06
1.56067e-05
2.63006e-05
4.05236e-05
5.31385e-05
4.69305e-05
3.78482e-05
2.80953e-05
2.24321e-05
2.08844e-05
2.11131e-05
2.32728e-05
2.89558e-05
3.80775e-05
4.84607e-05
5.72128e-05
8.5644e-05
0.00228995
0.0015719
0.000251077
1.27656e-05
1.77772e-05
2.91632e-05
4.40387e-05
6.04241e-05
5.40507e-05
4.63289e-05
3.74745e-05
2.97413e-05
2.65069e-05
2.67465e-05
2.86113e-05
3.35473e-05
4.15485e-05
5.15755e-05
6.03691e-05
8.66522e-05
0.00235204
0.00161139
0.00036433
1.98712e-05
2.134e-05
3.29169e-05
4.95601e-05
7.01564e-05
6.3728e-05
5.60743e-05
4.78095e-05
3.83196e-05
3.37721e-05
3.46008e-05
3.70599e-05
4.10918e-05
4.71384e-05
5.6286e-05
6.51358e-05
8.96828e-05
0.00235507
0.00159084
0.000452481
3.58882e-05
2.69725e-05
3.65863e-05
5.69085e-05
8.33343e-05
7.76875e-05
6.97987e-05
6.00374e-05
4.84027e-05
4.21936e-05
4.30787e-05
4.61601e-05
5.03308e-05
5.5809e-05
6.3616e-05
7.05307e-05
9.34776e-05
0.00234742
0.00154556
0.00046811
5.2936e-05
3.2844e-05
3.98498e-05
6.19917e-05
0.0001043
9.71884e-05
8.76711e-05
7.53583e-05
6.14626e-05
5.11182e-05
5.12069e-05
5.38084e-05
5.81431e-05
6.396e-05
7.0111e-05
7.59722e-05
9.92002e-05
0.00215532
0.00127037
0.000432852
0.00011221
5.47732e-05
5.04843e-05
6.97581e-05
0.000121271
0.000130716
0.000127457
0.00011672
0.000102069
8.58258e-05
7.99909e-05
8.00866e-05
8.2113e-05
8.68852e-05
9.21753e-05
9.85365e-05
0.000123635
0.00417651
0.00450841
0.00468651
0.00435558
0.003864
0.00347377
0.00315411
0.00286837
0.00261107
0.00248824
0.00233649
0.00226786
0.00223696
0.00224517
0.00228903
0.00236833
0.00243354
0.002434
0.00242235
0.00220266
0.00452238
0.00227091
0.00262644
0.00257362
0.00244285
0.00255277
0.0024451
0.00191182
0.00134638
0.000500541
0.00016103
0.000729673
0.00095515
0.00130505
0.00147605
0.00159231
0.00163594
0.00161493
0.00156705
0.00127017
0.00468572
0.00264459
0.0046874
0.00506233
0.00695528
0.00691528
0.00720645
0.00495089
0.00167632
0.000215933
3.26373e-05
1.35349e-05
2.13577e-05
6.50956e-05
0.00015497
0.000252782
0.000358487
0.000437658
0.000450326
0.00041305
0.00448398
0.00240757
0.00493926
0.00158057
0.00615349
0.000144908
0.0170858
0.000217637
5.53813e-06
3.60184e-06
5.40533e-06
6.84002e-06
8.39464e-06
1.04043e-05
1.2824e-05
1.64646e-05
2.34521e-05
3.8178e-05
5.32693e-05
0.000106323
0.00396735
0.002567
0.00581063
1.50446e-06
3.25543e-06
1.04567e-05
1.21458e-05
1.38789e-05
1.58286e-05
1.82325e-05
2.0914e-05
2.35868e-05
2.71605e-05
3.28625e-05
3.88489e-05
6.07997e-05
0.00352038
0.00272371
0.00717797
0.00302006
1.70141e-05
2.64944e-05
2.87663e-05
3.01797e-05
3.14591e-05
3.2969e-05
3.49584e-05
3.8696e-05
4.33613e-05
4.69595e-05
4.97517e-05
6.05517e-05
0.0031787
0.0025144
0.0075002
0.0272448
3.8641e-05
5.06466e-05
5.0212e-05
4.96323e-05
4.98151e-05
5.07776e-05
5.31438e-05
5.73374e-05
6.40565e-05
7.32054e-05
7.83919e-05
8.58935e-05
0.00288911
0.00191404
0.00503362
0.000737823
6.01146e-05
5.06445e-05
5.15896e-05
5.37085e-05
5.72251e-05
6.19374e-05
6.83101e-05
7.66803e-05
8.81568e-05
0.00010364
0.000127282
0.000149788
0.00263166
0.00144565
0.00199819
1.10553e-05
2.87394e-06
1.43057e-05
3.09321e-05
4.64313e-05
1.05647e-05
1.92266e-05
2.90903e-05
3.8101e-05
4.56301e-05
5.25818e-05
5.96575e-05
6.80617e-05
7.94196e-05
9.57184e-05
0.000118461
0.000156661
0.00250251
0.000533438
0.000186593
3.07172e-06
8.94444e-06
2.18456e-05
4.06665e-05
4.01971e-05
1.6466e-05
9.13997e-06
1.19169e-05
1.92479e-05
2.83863e-05
3.77637e-05
4.73806e-05
5.7761e-05
6.92363e-05
8.53377e-05
0.000106124
0.00015097
0.00234842
0.000165117
2.64769e-05
4.48372e-06
1.01973e-05
2.35625e-05
4.03224e-05
4.10256e-05
2.3909e-05
1.09245e-05
1.09384e-05
1.20984e-05
1.63625e-05
2.4172e-05
3.42879e-05
4.5918e-05
5.85e-05
7.28244e-05
9.04025e-05
0.000136454
0.00226513
0.000724088
1.15003e-05
5.65597e-06
1.14899e-05
2.45779e-05
3.98848e-05
4.28837e-05
3.10646e-05
1.63437e-05
1.18152e-05
1.22553e-05
1.43318e-05
1.86648e-05
2.56836e-05
3.53304e-05
4.67849e-05
5.97078e-05
7.4833e-05
0.000119597
0.00222786
0.000944178
1.86522e-05
6.91097e-06
1.299e-05
2.54546e-05
4.00464e-05
4.59499e-05
3.72822e-05
2.3649e-05
1.49407e-05
1.41753e-05
1.52638e-05
1.77735e-05
2.21781e-05
2.89276e-05
3.81213e-05
4.88221e-05
6.06939e-05
0.00010083
0.00220463
0.00127697
5.93929e-05
8.41786e-06
1.47761e-05
2.64877e-05
4.08716e-05
5.01269e-05
4.32002e-05
3.15092e-05
2.10819e-05
1.78114e-05
1.77279e-05
1.87854e-05
2.22502e-05
2.87387e-05
3.8164e-05
4.88657e-05
5.80743e-05
9.13092e-05
0.00223487
0.00143929
0.000144194
1.0188e-05
1.66814e-05
2.80492e-05
4.29122e-05
5.586e-05
4.93382e-05
3.97224e-05
2.94592e-05
2.34187e-05
2.18176e-05
2.20209e-05
2.42693e-05
3.02674e-05
3.99038e-05
5.08284e-05
5.99037e-05
8.89483e-05
0.00229988
0.00155051
0.000238594
1.32555e-05
1.87704e-05
3.10427e-05
4.66119e-05
6.35785e-05
5.69337e-05
4.87188e-05
3.9379e-05
3.12291e-05
2.7591e-05
2.77705e-05
2.97e-05
3.49705e-05
4.3466e-05
5.39876e-05
6.30404e-05
8.97296e-05
0.00235522
0.00159294
0.000345015
1.98883e-05
2.21034e-05
3.46898e-05
5.23879e-05
7.39182e-05
6.71709e-05
5.90767e-05
5.03055e-05
4.0437e-05
3.51403e-05
3.59063e-05
3.84487e-05
4.2761e-05
4.91437e-05
5.86885e-05
6.77206e-05
9.25028e-05
0.00235591
0.00157369
0.000429754
3.46578e-05
2.75707e-05
3.8072e-05
5.98728e-05
8.74339e-05
8.16243e-05
7.33661e-05
6.31341e-05
5.09277e-05
4.39401e-05
4.48131e-05
4.7972e-05
5.22091e-05
5.78011e-05
6.57641e-05
7.27847e-05
9.60691e-05
0.0023459
0.00152867
0.000445821
5.01564e-05
3.32561e-05
4.10132e-05
6.45428e-05
0.000109065
0.000101456
9.15621e-05
7.88657e-05
6.41698e-05
5.31958e-05
5.32058e-05
5.57871e-05
6.01365e-05
6.59921e-05
7.2176e-05
7.81205e-05
0.000101699
0.00214688
0.00125292
0.000416368
0.000106855
5.44261e-05
5.12037e-05
7.14584e-05
0.000124793
0.000134686
0.000131427
0.000120524
0.000105337
8.86064e-05
8.24967e-05
8.23275e-05
8.43716e-05
8.91979e-05
9.4519e-05
0.000100976
0.000126301
0.00516798
0.00595409
0.00610011
0.00555812
0.00495459
0.00446079
0.00402237
0.00362427
0.00326667
0.00305714
0.00279473
0.0026356
0.00255915
0.00250067
0.00252335
0.00258173
0.00261149
0.00259619
0.00256513
0.00230125
0.00599432
0.015132
0.0159007
0.0108572
0.00836835
0.00780991
0.00686107
0.0054024
0.00409138
0.00261508
0.00191931
0.00163523
0.00174851
0.00185317
0.00195194
0.00201802
0.00201448
0.00193892
0.00184704
0.00144776
0.00612432
0.0154555
0.0146297
0.00885492
0.0098316
0.00935069
0.0094978
0.00661111
0.00299455
0.000483825
8.83355e-05
9.09825e-05
0.000129823
0.000239437
0.000417988
0.000637766
0.000852491
0.000938609
0.000933789
0.000706196
0.00573752
0.0113901
0.00911191
0.00108261
0.00566734
2.22045e-16
0.0187994
0.000173243
7.152e-06
3.45642e-06
5.18676e-06
7.02783e-06
9.96433e-06
1.61903e-05
3.00589e-05
6.23461e-05
0.000123427
0.000207836
0.000279902
0.000293681
0.00509074
0.00962894
0.00880948
1.31635e-06
3.27684e-06
9.70351e-06
1.11484e-05
1.28635e-05
1.49557e-05
1.80441e-05
2.23457e-05
2.78449e-05
3.63501e-05
5.21689e-05
7.36704e-05
0.000115457
0.00449917
0.00855437
0.0101442
0.00679271
1.65446e-05
2.42194e-05
2.60778e-05
2.72958e-05
2.85387e-05
3.02435e-05
3.28769e-05
3.75785e-05
4.41276e-05
5.22286e-05
5.88982e-05
7.38208e-05
0.00401892
0.00709494
0.00981457
0.0309569
3.71726e-05
4.68002e-05
4.63885e-05
4.57916e-05
4.60671e-05
4.72553e-05
4.99525e-05
5.48675e-05
6.27648e-05
7.25553e-05
8.01861e-05
9.24177e-05
0.00361438
0.00541555
0.00667137
0.000192978
5.78597e-05
4.7747e-05
4.89277e-05
5.13566e-05
5.50251e-05
5.98446e-05
6.63342e-05
7.51133e-05
8.75138e-05
0.000104867
0.000129949
0.000153781
0.00323783
0.00407387
0.00313164
8.76302e-06
2.70954e-06
1.38694e-05
3.06297e-05
4.651e-05
1.0531e-05
1.89482e-05
2.82269e-05
3.67799e-05
4.41158e-05
5.10484e-05
5.81423e-05
6.68539e-05
7.91053e-05
9.73385e-05
0.000121854
0.000162265
0.00300755
0.00247308
0.000516586
2.77808e-06
7.96702e-06
2.02083e-05
3.87254e-05
3.90357e-05
1.60381e-05
9.44658e-06
1.21879e-05
1.91759e-05
2.78538e-05
3.70496e-05
4.66169e-05
5.70377e-05
6.92384e-05
8.69091e-05
0.000109736
0.000157533
0.00274284
0.00168484
7.8932e-05
4.16026e-06
9.2122e-06
2.17511e-05
3.8191e-05
4.00405e-05
2.33668e-05
1.11753e-05
1.12843e-05
1.25808e-05
1.6863e-05
2.44397e-05
3.45427e-05
4.60743e-05
5.83947e-05
7.39274e-05
9.33459e-05
0.000143403
0.00258053
0.00147023
6.90229e-05
5.66113e-06
1.06431e-05
2.27212e-05
3.77668e-05
4.21707e-05
3.06703e-05
1.64921e-05
1.22126e-05
1.28155e-05
1.49535e-05
1.92266e-05
2.63301e-05
3.58199e-05
4.67582e-05
6.00672e-05
7.68353e-05
0.000126701
0.00249683
0.0015958
9.90738e-05
8.09617e-06
1.23375e-05
2.37508e-05
3.80593e-05
4.5516e-05
3.70256e-05
2.37063e-05
1.53122e-05
1.47211e-05
1.58859e-05
1.87103e-05
2.36129e-05
3.04367e-05
3.9408e-05