/*--------------------------------*- C++ -*----------------------------------*\
  =========                 |
  \\      /  F ield         | OpenFOAM: The Open Source CFD Toolbox
   \\    /   O peration     | Website:  https://openfoam.org
    \\  /    A nd           | Version:  9
     \\/     M anipulation  |
\*---------------------------------------------------------------------------*/
FoamFile
{
    format      ascii;
    class       volScalarField;
    location    "0.0045";
    object      rho.C4;
}
// * * * * * * * * * * * * * * * * * * * * * * * * * * * * * * * * * * * * * //

dimensions      [1 -3 0 0 0 0 0];

internalField   nonuniform List<scalar> 
9720
(
16.3724
17.3811
17.8149
16.5504
15.4635
14.7617
13.715
12.1259
10.1872
8.571
7.22334
6.37723
5.8929
5.59443
5.43322
5.33133
5.24843
5.14118
5.04524
4.8324
17.3163
18.1833
18.4609
15.4542
14.5082
14.7742
14.0122
11.8765
8.75298
6.42552
5.03521
4.58822
4.58097
4.55738
4.54639
4.53433
4.49666
4.41786
4.34082
4.1703
17.6634
18.311
17.3221
13.2968
13.3618
14.7409
14.4699
11.8703
7.48374
4.60543
3.53814
3.62744
3.92257
4.24657
4.49627
4.69629
4.7004
4.64781
4.55503
4.33909
16.4669
15.3754
13.2316
10.8977
11.5792
15.1674
15.6258
13.697
7.58145
2.49469
2.5781
2.83422
3.30098
3.92561
4.47126
4.79275
4.83079
4.79391
4.72509
4.53383
15.3453
14.3513
13.104
11.4335
2.04234
2.35399
2.53587
2.78274
3.13919
3.71056
4.40698
4.98381
5.23238
5.21287
5.13817
4.88619
14.554
14.4749
14.3814
14.8491
2.93187
3.09099
3.11228
3.17097
3.29973
3.55563
4.073
4.7874
5.23578
5.26413
5.23067
5.0286
13.4674
13.6692
14.0914
15.2613
3.50419
3.45097
3.3784
3.3164
3.33093
3.41846
3.65029
4.145
4.77073
5.12082
5.30092
5.23562
11.9099
11.5717
11.522
13.3056
3.34079
2.64286
2.77033
2.86141
2.94625
3.05828
3.22741
3.53182
4.06044
4.61816
5.0582
5.20997
9.9972
8.52589
7.2332
7.04394
2.00281
2.89155
3.51287
3.25204
0.571943
0.861221
1.30286
1.67996
1.9645
2.17599
2.38292
2.64929
3.04729
3.58634
4.09546
4.57911
8.40969
6.278
4.50407
2.48169
2.35021
3.06945
3.40286
2.61461
0.942063
0.490702
0.585708
0.828227
1.15118
1.47212
1.7515
2.00999
2.33453
2.78482
3.25283
3.89909
7.09242
4.94584
3.4955
2.58042
2.54527
3.09682
3.33907
2.74674
1.40081
0.622715
0.484239
0.520611
0.680365
0.951215
1.24311
1.50809
1.77356
2.1302
2.53385
3.22472
6.26383
4.523
3.58127
2.84196
2.79879
3.16099
3.30235
2.84687
1.76537
0.904105
0.539662
0.529794
0.565044
0.680876
0.884801
1.12054
1.36059
1.6531
1.9992
2.67176
5.78079
4.50662
3.86017
3.28432
3.15222
3.29668
3.32536
2.94009
2.03297
1.23801
0.729909
0.580911
0.585681
0.613363
0.704952
0.870196
1.08365
1.33633
1.62203
2.21362
5.47948
4.4771
4.17942
3.86053
3.69564
3.55891
3.42423
3.0599
2.232
1.55182
1.02102
0.725304
0.629199
0.634874
0.683268
0.779172
0.938189
1.1409
1.36344
1.86259
5.31445
4.45893
4.42234
4.36899
4.3501
4.07198
3.66532
3.23598
2.43431
1.82415
1.31809
0.944269
0.742751
0.696303
0.716034
0.784642
0.87804
1.01884
1.1841
1.59991
5.21698
4.44507
4.61157
4.67853
4.89259
4.74411
4.15393
3.54775
2.70421
2.08083
1.5832
1.18494
0.919181
0.811761
0.797604
0.820813
0.882312
0.970663
1.08433
1.4121
5.13853
4.40724
4.6137
4.74628
5.15409
5.16782
4.73824
4.07041
3.10542
2.40844
1.85461
1.43294
1.14118
0.987047
0.915728
0.896275
0.916406
0.978614
1.05497
1.29595
5.03655
4.33093
4.56193
4.71606
5.14108
5.20419
5.0731
4.59971
3.62832
2.85748
2.21914
1.73844
1.41041
1.20933
1.07818
1.00675
0.994351
1.01611
1.06291
1.25473
4.94643
4.25886
4.47441
4.65665
5.07354
5.17564
5.26241
5.02786
4.1193
3.31655
2.62456
2.09446
1.7139
1.45181
1.26041
1.14451
1.08503
1.07954
1.11091
1.27582
4.74625
4.09937
4.27085
4.48087
4.83414
4.98908
5.20445
5.18985
4.59115
3.95015
3.30782
2.77099
2.32318
1.97247
1.6985
1.50334
1.36508
1.30381
1.31223
1.38721
15.6037
16.5938
16.9882
15.4511
14.4339
13.8745
12.9134
11.4251
9.55819
8.02825
6.73027
5.9182
5.45951
5.16708
5.02243
4.94081
4.86748
4.76401
4.67037
4.46577
16.5477
17.3533
17.5754
14.2407
13.4937
13.9683
13.2885
11.2493
8.24305
6.02601
4.68258
4.23056
4.21571
4.20228
4.1931
4.2008
4.1796
4.10987
4.03467
3.86746
16.893
17.5258
15.4926
11.9867
12.7426
14.188
13.8329
11.3222
7.07056
4.32696
3.27616
3.33266
3.56913
3.87813
4.11589
4.34149
4.38384
4.34721
4.27089
4.07002
15.4993
14.2633
11.9876
10.023
11.4077
14.6071
14.9771
13.0623
7.18741
2.34428
2.40222
2.61113
3.00129
3.53758
4.06578
4.41326
4.52473
4.49697
4.44273
4.27401
14.3719
13.3105
12.2975
10.682
1.85702
2.18758
2.3529
2.572
2.87636
3.34538
3.98174
4.54009
4.89298
4.90835
4.86856
4.65682
13.6736
13.6399
13.7572
14.26
2.73713
2.8871
2.89505
2.9322
3.03051
3.23325
3.64379
4.29806
4.80952
4.96248
4.95043
4.79025
12.6606
12.9472
13.4766
14.6347
3.30494
3.23909
3.15803
3.06574
3.06473
3.11722
3.28356
3.67816
4.27629
4.67204
4.92983
4.91026
11.1737
10.9483
11.0049
12.7199
3.1406
2.46476
2.56326
2.63307
2.6957
2.78054
2.91094
3.14172
3.58015
4.1074
4.56927
4.81927
9.33279
8.00297
6.84721
6.85689
1.85444
2.71317
3.27925
2.9871
0.525633
0.781333
1.17462
1.52026
1.78372
1.9697
2.13428
2.3448
2.6662
3.14166
3.63195
4.16293
7.82054
5.82306
4.18774
2.32749
2.19394
2.88398
3.18672
2.41297
0.845371
0.415094
0.50923
0.731943
1.01804
1.30091
1.54357
1.76633
2.04493
2.43475
2.85956
3.49149
6.55924
4.52337
3.16696
2.38169
2.3542
2.88748
3.10745
2.51801
1.25376
0.533004
0.406454
0.437901
0.574195
0.806231
1.07092
1.31749
1.55199
1.8562
2.20334
2.85007
5.78243
4.11385
3.23076
2.57664
2.56311
2.91904
3.02916
2.59652
1.59201
0.786378
0.451132
0.440693
0.464672
0.563284
0.757691
0.976186
1.18306
1.42822
1.72002
2.33939
5.3403
4.13103
3.48359
2.94943
2.85736
3.01719
3.03563
2.66662
1.83867
1.08802
0.611153
0.473898
0.480542
0.518373
0.604701
0.744827
0.921033
1.12935
1.38022
1.93744
5.05033
4.12754
3.82049
3.47774
3.31884
3.22698
3.10186
2.75994
2.01271
1.37139
0.865352
0.597591
0.530329
0.538471
0.578728
0.653209
0.780131
0.957787
1.17128
1.64565
4.9022
4.11334
4.05911
3.99068
3.94916
3.65318
3.28595
2.90327
2.17585
1.61328
1.14275
0.813648
0.640237
0.590958
0.604778
0.657536
0.744357
0.882689
1.04371
1.42193
4.82585
4.11628
4.27038
4.32833
4.49568
4.29809
3.69856
3.15338
2.39465
1.83991
1.39905
1.04646
0.801808
0.685387
0.673709
0.696204
0.759678
0.857074
0.960543
1.24639
4.75685
4.09216
4.30308
4.45254
4.83834
4.78944
4.28663
3.60824
2.73041
2.12737
1.64621
1.27078
0.995826
0.834352
0.780269
0.780752
0.806868
0.860403
0.91457
1.12001
4.65844
4.02272
4.26546
4.42802
4.84524
4.92132
4.66695
4.12542
3.20996
2.52722
1.96433
1.53479
1.22399
1.03466
0.941676
0.899301
0.877573
0.883821
0.916784
1.0833
4.57065
3.95128
4.19004
4.37604
4.79883
4.90638
4.92532
4.58355
3.68915
2.95164
2.32183
1.842
1.4912
1.26655
1.1211
1.02428
0.951949
0.933499
0.957441
1.103
4.37912
3.79442
3.99706
4.21369
4.5843
4.7472
4.90475
4.82776
4.20593
3.57564
2.96772
2.46866
2.0646
1.76364
1.52578
1.34236
1.19687
1.13119
1.13828
1.21136
15.2939
16.2556
16.6101
14.8145
13.7817
13.3781
12.4934
11.0288
9.22316
7.73882
6.47375
5.68202
5.25572
4.97964
4.84656
4.77087
4.70478
4.60952
4.52059
4.32053
16.2476
16.9451
17.1023
13.4669
12.8394
13.4609
12.8608
10.8622
7.96389
5.83789
4.51814
4.04469
4.04444
4.05864
4.05372
4.07028
4.05997
4.00127
3.92813
3.75959
16.5523
17.1037
13.9907
11.0724
12.2561
13.7531
13.3851
10.9036
6.80936
4.24982
3.1986
3.22225
3.40937
3.71444
3.94643
4.17435
4.2592
4.23634
4.1751
3.98629
14.7893
13.3064
10.8615
9.28824
10.9512
14.1252
14.4583
12.51
6.77701
2.25906
2.34259
2.54344
2.89036
3.38582
3.91696
4.30628
4.44788
4.42387
4.36913
4.19627
13.6839
12.5553
11.8149
10.2355
1.65156
2.03183
2.19998
2.42446
2.72305
3.15478
3.76947
4.3316
4.75425
4.83608
4.80325
4.6081
13.1886
13.1435
13.3913
13.7842
2.53689
2.69369
2.70123
2.73656
2.83214
3.01986
3.379
4.00641
4.60635
4.90876
4.90625
4.74843
12.2828
12.589
13.114
14.1363
3.10051
3.0378
2.95915
2.87972
2.8819
2.92851
3.06799
3.39167
3.96832
4.46701
4.79565
4.79075
10.8147
10.6262
10.7149
12.2684
2.93163
2.3152
2.39112
2.45619
2.5178
2.59733
2.71795
2.91347
3.2758
3.79205
4.28349
4.64171
9.0088
7.74694
6.6453
6.65282
1.65564
2.56224
3.11951
2.83352
0.474751
0.734629
1.09464
1.41657
1.66414
1.85107
2.00194
2.18279
2.44551
2.85679
3.3353
3.93368
7.52766
5.60565
4.04198
2.16357
2.02143
2.71989
3.02437
2.26524
0.746411
0.350533
0.447314
0.664998
0.931216
1.19599
1.43374
1.64127
1.87612
2.20469
2.60401
3.26084
6.28698
4.31631
3.0141
2.2389
2.17807
2.72199
2.94527
2.35781
1.1309
0.461142
0.343891
0.373225
0.49898
0.716451
0.973536
1.21465
1.42979
1.68655
1.99566
2.62639
5.51688
3.88061
3.05335
2.42879
2.37928
2.74617
2.86406
2.43675
1.47161
0.705086
0.381678
0.375856
0.400758
0.490455
0.671319
0.88798
1.08862
1.30189
1.55387
2.13401
5.10118
3.9091
3.26812
2.75594
2.65
2.82776
2.86558
2.50868
1.72326
0.993963
0.530281
0.408589
0.414349
0.446931
0.524808
0.653013
0.825467
1.02156
1.2386
1.75249
4.82943
3.94791
3.61486
3.24418
3.05564
3.00449
2.91308
2.59577
1.90338
1.26804
0.775634
0.523866
0.456194
0.464255
0.4992
0.572106
0.695663
0.860913
1.04814
1.48387
4.70278
3.95678
3.87168
3.79022
3.67162
3.35411
3.05642
2.72188
2.04813
1.50819
1.05249
0.730051
0.557153
0.508978
0.525003
0.580473
0.672026
0.803706
0.949145
1.29138
4.63746
3.97436
4.10005
4.21226
4.25542
3.97551
3.3868
2.92262
2.2286
1.71769
1.30263
0.959701
0.708973
0.595298
0.595513
0.62107
0.684935
0.782923
0.879066
1.13623
4.58075
3.96451
4.18583
4.38795
4.69033
4.57684
3.96488
3.29231
2.49852
1.95711
1.52072
1.16757
0.893737
0.73662
0.699778
0.702391
0.729819
0.785804
0.836121
1.02047
4.49541
3.90969
4.16119
4.36379
4.76821
4.84729
4.44823
3.80624
2.91987
2.29481
1.78288
1.38749
1.09528
0.915789
0.847452
0.816417
0.798652
0.805537
0.836565
0.984513
4.41517
3.84181
4.09915
4.30639
4.73002
4.83718
4.76799
4.29499
3.39497
2.69607
2.09874
1.65225
1.32549
1.11859
1.0078
0.928847
0.864376
0.848599
0.870042
1.00168
4.22983
3.68432
3.91462
4.13508
4.52939
4.68081
4.76466
4.63813
3.97419
3.34017
2.72967
2.24744
1.86189
1.58381
1.38046
1.21749
1.08588
1.02497
1.03201
1.10843
15.0631
15.9873
16.2649
14.2806
13.2535
12.9408
12.1249
10.6838
8.90776
7.47417
6.24411
5.47879
5.09431
4.84601
4.72713
4.65714
4.59383
4.50171
4.41335
4.21339
16.0071
16.6105
16.6332
12.8314
12.3146
13.0362
12.5219
10.5504
7.67994
5.60054
4.32777
3.87259
3.91096
3.97402
3.98285
4.0023
3.99229
3.93527
3.85976
3.68496
16.256
16.7516
13.0042
10.4751
11.7913
13.3736
13.0573
10.6183
6.53961
4.02949
3.03248
3.07294
3.28806
3.63885
3.89216
4.11738
4.20701
4.18427
4.12045
3.9257
14.3137
12.7057
10.2713
8.84506
10.3428
13.7033
14.042
12.1167
6.33265
2.09314
2.19569
2.40948
2.7611
3.28473
3.84805
4.296
4.43345
4.40508
4.33555
4.13754
13.2038
12.1155
11.5815
10.2528
1.59866
1.91662
2.08557
2.30163
2.58901
3.00094
3.60562
4.19755
4.65259
4.80356
4.77425
4.58252
12.8395
12.829
13.1606
13.4495
2.3955
2.58485
2.60107
2.63924
2.7247
2.88486
3.18027
3.73366
4.41261
4.85632
4.87586
4.7268
11.996
12.3471
12.884
13.815
2.94436
2.91933
2.85752
2.78819
2.78331
2.81489
2.92046
3.16402
3.65548
4.27133
4.68187
4.70163
10.5609
10.4139
10.4971
11.9379
2.75138
2.18072
2.27745
2.35411
2.42327
2.49298
2.59205
2.74799
3.02944
3.49193
4.03828
4.49076
8.77412
7.56416
6.47747
6.42133
1.60239
2.42472
2.94728
2.69622
0.417441
0.656156
1.0103
1.3449
1.59793
1.78764
1.93356
2.0869
2.29635
2.62657
3.07878
3.72972
7.33393
5.48532
3.95056
2.05366
1.89294
2.56784
2.8794
2.1715
0.706424
0.303683
0.396301
0.617006
0.880175
1.13934
1.37572
1.58567
1.78342
2.0479
2.39617
3.05694
6.10034
4.20449
2.92277
2.13547
2.04376
2.57422
2.81837
2.26282
1.07336
0.417037
0.298403
0.325782
0.44927
0.664097
0.920532
1.16768
1.37529
1.58248
1.84115
2.43628
5.32058
3.72763
2.93893
2.31731
2.24052
2.60257
2.74785
2.33525
1.40627
0.660194
0.333842
0.329144
0.354628
0.44713
0.620731
0.836392
1.04405
1.23104
1.44089
1.97172
4.91395
3.74064
3.10946
2.61719
2.50327
2.68109
2.74386
2.40553
1.64845
0.935815
0.474661
0.360644
0.369295
0.394063
0.464381
0.595276
0.772979
0.962775
1.15154
1.60913
4.65444
3.78336
3.42774
3.0699
2.87811
2.83687
2.77695
2.47927
1.8229
1.19169
0.704865
0.470217
0.400888
0.405431
0.436676
0.508504
0.636214
0.80255
0.962532
1.34905
4.53537
3.7987
3.68564
3.60839
3.44201
3.12029
2.88604
2.58217
1.95525
1.41672
0.967274
0.657724
0.486314
0.442078
0.458273
0.5165
0.615468
0.745336
0.871705
1.18284
4.47254
3.82699
3.9142
4.06123
4.02287
3.65643
3.13171
2.74157
2.10241
1.61569
1.20988
0.876812
0.62835
0.519694
0.5232
0.556693
0.627795
0.722906
0.815238
1.05239
4.42204
3.82796
4.04286
4.26108
4.48636
4.31389
3.6218
3.02633
2.31341
1.81425
1.41112
1.07997
0.805877
0.651821
0.627439
0.63626
0.66791
0.727924
0.775895
0.942899
4.34526
3.7879
4.03164
4.24888
4.66708
4.74071
4.20672
3.48762
2.65273
2.08631
1.62478
1.26716
0.988966
0.817678
0.76323
0.741417
0.73569
0.745437
0.769438
0.896514
4.27022
3.72588
3.98129
4.19681
4.64405
4.75447
4.59864
4.01804
3.10416
2.44199
1.89209
1.48452
1.18236
0.984271
0.897127
0.842952
0.794674
0.77518
0.793008
0.910365
4.09088
3.57206
3.80906
4.02682
4.46387
4.61369
4.62764
4.44927
3.73816
3.09898
2.49245
2.03175
1.66354
1.39928
1.23415
1.10329
0.984037
0.923081
0.93188
1.00719
14.9086
15.78
16.0177
13.9712
12.9649
12.7053
11.9174
10.4842
8.69144
7.27127
6.06889
5.31838
4.95113
4.7231
4.62335
4.57198
4.52374
4.44478
4.36364
4.16808
15.8058
16.3304
16.3067
12.4793
12.0714
12.8357
12.3381
10.3716
7.47053
5.40561
4.16945
3.72375
3.76657
3.85095
3.8904
3.93555
3.93756
3.89739
3.82938
3.65632
15.9698
16.4028
12.4845
10.1613
11.623
13.2021
12.8832
10.4609
6.33708
3.84769
2.88844
2.93107
3.14375
3.50839
3.78961
4.02276
4.1467
4.13686
4.08733
3.90452
13.9665
12.3401
9.96382
8.56167
10.1355
13.395
13.7295
11.8651
6.23212
1.98829
2.091
2.29567
2.62572
3.1326
3.7168
4.22329
4.40864
4.3921
4.32601
4.12109
12.9262
11.8899
11.3914
9.96133
1.51626
1.85057
2.00954
2.20839
2.47731
2.86738
3.45494
4.06732
4.55033
4.76836
4.75223
4.58003
12.6228
12.6292
13.0103
13.2749
2.33643
2.55037
2.55788
2.58541
2.65853
2.80283
3.06207
3.55908
4.24593
4.76839
4.85786
4.72747
11.8211
12.195
12.7374
13.5932
2.89406
2.90511
2.83842
2.76142
2.72898
2.75155
2.8381
3.04066
3.46159
4.09505
4.57338
4.6468
10.3992
10.2657
10.356
11.7317
2.70968
2.17505
2.26472
2.33088
2.39149
2.45184
2.53541
2.66636
2.90202
3.30434
3.85269
4.3735
8.62697
7.43516
6.34584
6.19109
1.47629
2.27768
2.81615
2.59913
0.394645
0.63529
0.98847
1.31884
1.56944
1.75889
1.9019
2.04043
2.22182
2.50209
2.91752
3.5876
7.21575
5.39056
3.87144
1.98252
1.80933
2.4769
2.80369
2.11654
0.688489
0.284621
0.373639
0.593486
0.857211
1.11251
1.33993
1.54063
1.72423
1.96202
2.27566
2.91989
6.01173
4.14814
2.88028
2.07593
1.96266
2.48626
2.74668
2.2015
1.04271
0.394008
0.278011
0.30524
0.424568
0.638614
0.885936
1.12203
1.3322
1.52786
1.76324
2.32231
5.24176
3.67369
2.90041
2.26701
2.15587
2.516
2.677
2.26689
1.3605
0.629779
0.312066
0.304245
0.331558
0.424624
0.588763
0.798523
1.01044
1.19128
1.37866
1.86471
4.83942
3.67917
3.06281
2.57313
2.41768
2.59105
2.66365
2.33115
1.59383
0.899185
0.445454
0.335968
0.345251
0.367146
0.432464
0.562027
0.743566
0.92977
1.09508
1.50965
4.58603
3.7195
3.36584
3.0289
2.79307
2.73632
2.68971
2.39706
1.76373
1.14364
0.665625
0.441384
0.37189
0.374783
0.402618
0.474545
0.605338
0.764627
0.906981
1.26324
4.467
3.73865
3.61693
3.55578
3.34136
2.99455
2.7822
2.48808
1.89237
1.35889
0.912357
0.616308
0.446903
0.40489
0.421426
0.48352
0.588973
0.711342
0.822846
1.11304
4.40319
3.76885
3.83527
4.00556
3.90897
3.48249
2.99226
2.62886
2.0273
1.55281
1.14948
0.828982
0.582798
0.477013
0.484191
0.525596
0.601356
0.685531
0.768152
0.99574
4.35249
3.77078
3.9685
4.20508
4.37593
4.14117
3.41892
2.87541
2.21358
1.73756
1.35455
1.03248
0.76013
0.609143
0.590779
0.602953
0.632574
0.685586
0.739588
0.903413
4.27678
3.73317
3.96248
4.19921
4.59902
4.64236
4.0237
3.28541
2.50771
1.98236
1.55052
1.20688
0.939282
0.76762
0.715595
0.693137
0.688335
0.705696
0.732801
0.840776
4.20257
3.67178
3.92068
4.15234
4.58725
4.70968
4.47098
3.82061
2.92947
2.3065
1.7942
1.40412
1.10858
0.91369
0.831872
0.781117
0.748989
0.735936
0.746593
0.846384
4.02322
3.51731
3.75886
3.98039
4.42873
4.58357
4.54253
4.31174
3.58297
2.95232
2.36689
1.91195
1.54782
1.29391
1.14399
1.02975
0.936369
0.861957
0.862816
0.932855
14.9008
15.7747
16.0096
13.9526
12.9531
12.7224
11.9357
10.4985
8.69102
7.26481
6.05993
5.30251
4.93302
4.70711
4.61399
4.57136
4.52925
4.4543
4.37437
4.17877
15.7941
16.319
16.3136
12.4453
12.082
12.879
12.3689
10.3897
7.47186
5.39978
4.16622
3.70376
3.74218
3.82591
3.87467
3.93101
3.93945
3.90495
3.84026
3.66767
15.965
16.3858
12.4393
10.089
11.6917
13.2748
12.9278
10.4793
6.34179
3.85435
2.89321
2.92217
3.11714
3.4715
3.76514
4.00936
4.15076
4.14487
4.09966
3.91879
13.9532
12.3271
9.97091
8.4605
10.319
13.4008
13.6864
11.808
6.13528
1.9902
2.09515
2.29641
2.61638
3.10762
3.69195
4.20312
4.4099
4.39879
4.33818
4.13756
12.9046
11.8332
11.2882
9.64166
1.43514
1.83006
1.99215
2.19209
2.45844
2.84372
3.42398
4.04099
4.53666
4.77382
4.76141
4.59439
12.5989
12.5796
12.9515
13.2094
2.29475
2.52449
2.5335
2.5623
2.63718
2.78371
3.04334
3.54239
4.23729
4.77685
4.87112
4.74031
11.7979
12.1676
12.7152
13.526
2.86405
2.88573
2.82472
2.75108
2.72293
2.74658
2.83492
3.03788
3.45878
4.09586
4.58047
4.65356
10.3848
10.251
10.3456
11.6731
2.70906
2.18228
2.26828
2.33075
2.39005
2.45117
2.53573
2.66697
2.90159
3.30458
3.85467
4.37896
8.63013
7.44217
6.36364
6.29212
1.41578
2.25072
2.79036
2.58816
0.392464
0.659267
1.01387
1.33996
1.58428
1.7653
1.90273
2.03805
2.21748
2.49834
2.91548
3.58678
7.22824
5.40062
3.87707
1.97534
1.81456
2.49616
2.82774
2.12837
0.679812
0.284074
0.379308
0.605071
0.869684
1.11839
1.34075
1.54184
1.72319
1.95898
2.27145
2.91455
6.03042
4.15975
2.89043
2.07467
1.97375
2.50519
2.77449
2.21938
1.03569
0.390721
0.277626
0.306453
0.42864
0.638953
0.881639
1.11976
1.33016
1.52093
1.75252
2.3108
5.26955
3.69476
2.91754
2.27858
2.17539
2.53535
2.70628
2.28903
1.35894
0.626699
0.311449
0.30559
0.331077
0.42258
0.585891
0.794885
1.00471
1.18183
1.36789
1.85357
4.87431
3.71498
3.09614
2.60669
2.44681
2.61222
2.69418
2.35633
1.60085
0.899812
0.445279
0.334963
0.344158
0.366862
0.431846
0.558724
0.736876
0.919952
1.08462
1.49924
4.62096
3.76308
3.41162
3.08696
2.8349
2.7605
2.72098
2.42393
1.7805
1.15349
0.669071
0.440068
0.372362
0.376031
0.404392
0.47504
0.601632
0.757574
0.89915
1.25461
4.49823
3.77538
3.66014
3.62046
3.40136
3.02626
2.8162
2.51607
1.91433
1.37403
0.920566
0.617401
0.450159
0.407752
0.424025
0.484967
0.589609
0.710687
0.820554
1.10786
4.42869
3.79885
3.878
4.06131
3.97004
3.52978
3.03199
2.65944
2.05214
1.56895
1.16045
0.835946
0.589187
0.481263
0.487854
0.528689
0.603336
0.687805
0.769166
0.993746
4.37054
3.79448
3.99242
4.23213
4.42174
4.19966
3.4668
2.91101
2.24005
1.75595
1.36808
1.04732
0.770442
0.615502
0.596024
0.607864
0.63606
0.688053
0.741174
0.90287
4.28746
3.74725
3.98013
4.21791
4.61778
4.69004
4.0788
3.32289
2.53457
2.00206
1.56907
1.22563
0.952574
0.77771
0.723784
0.698627
0.691121
0.707458
0.733269
0.839933
4.20763
3.67901
3.93013
4.16185
4.59974
4.73268
4.51389
3.8614
2.95758
2.32748
1.81604
1.42137
1.12298
0.924733
0.840562
0.786988
0.751985
0.73717
0.747351
0.845846
4.02217
3.51718
3.7582
3.97909
4.4318
4.59524
4.55685
4.343
3.61103
2.97352
2.38624
1.92717
1.56047
1.30459
1.15255
1.03655
0.941232
0.864478
0.865271
0.934024
15.0312
15.9561
16.2644
14.2759
13.258
12.9784
12.158
10.7003
8.88133
7.44003
6.21334
5.43903
5.05417
4.81445
4.71127
4.65693
4.60572
4.52248
4.43762
4.23861
15.9656
16.577
16.6412
12.8003
12.37
13.1269
12.5774
10.5768
7.63767
5.54806
4.29847
3.82779
3.86209
3.93056
3.95788
3.99843
3.99937
3.95559
3.88427
3.70952
16.1949
16.6899
12.9316
10.3975
11.9463
13.5104
13.1381
10.6516
6.48176
3.96893
2.99601
3.03186
3.23236
3.57948
3.84712
4.08664
4.21564
4.20477
4.14829
3.95453
14.2608
12.6368
10.1971
8.56035
10.5279
13.6264
13.8975
12.0028
6.24377
2.07332
2.1754
2.38354
2.72079
3.22677
3.79559
4.26262
4.43998
4.42198
4.36084
4.16777
13.151
12.0051
11.3799
9.65152
1.49137
1.89604
2.06271
2.26972
2.54628
2.9466
3.54048
4.14153
4.62184
4.81392
4.79143
4.60937
12.7801
12.7259
13.0515
13.2952
2.31043
2.56203
2.57611
2.61273
2.69742
2.85653
3.14481
3.68741
4.37974
4.86071
4.89225
4.74779
11.9431
12.2763
12.8084
13.6344
2.86933
2.90991
2.84921
2.77872
2.77307
2.80437
2.90889
3.14558
3.62483
4.25267
4.68147
4.71077
10.5157
10.3497
10.423
11.7867
2.6986
2.21154
2.29952
2.3692
2.43377
2.49986
2.59399
2.74434
3.0163
3.47281
4.02783
4.49369
8.75693
7.5231
6.41231
6.19815
1.47092
2.33197
2.87198
2.65148
0.400654
0.694116
1.05335
1.37997
1.62349
1.80389
1.94031
2.08514
2.28753
2.61385
3.06767
3.72565
7.34369
5.47868
3.93495
2.06233
1.90542
2.59066
2.91015
2.17902
0.68973
0.303661
0.406183
0.638129
0.902806
1.1537
1.37766
1.57932
1.77404
2.03673
2.38438
3.04573
6.13474
4.23144
2.95393
2.15698
2.06321
2.59863
2.84862
2.27523
1.05432
0.410509
0.297097
0.328261
0.45725
0.672086
0.923756
1.16206
1.36153
1.56914
1.82796
2.42096
5.37755
3.78477
2.98837
2.36086
2.26688
2.62857
2.77653
2.35337
1.39405
0.650016
0.329266
0.328615
0.354513
0.449641
0.620314
0.8296
1.03157
1.21677
1.42747
1.95837
4.98332
3.81576
3.18795
2.69745
2.54372
2.709
2.77085
2.42571
1.64684
0.927477
0.466597
0.356415
0.36723
0.393029
0.463331
0.589778
0.762357
0.948826
1.13657
1.59299
4.72335
3.86358
3.52044
3.19482
2.94674
2.86696
2.80334
2.49975
1.83268
1.19126
0.697305
0.462296
0.396954
0.403409
0.435675
0.506822
0.630726
0.792359
0.948216
1.33399
4.5946
3.86166
3.75842
3.73857
3.53975
3.16034
2.91363
2.60242
1.97168
1.42696
0.967983
0.652767
0.48258
0.440681
0.457545
0.5164
0.61731
0.745458
0.867633
1.1739
4.51952
3.87754
3.98106
4.16971
4.10899
3.71164
3.1634
2.76294
2.12187
1.63388
1.2227
0.883359
0.629819
0.519786
0.523957
0.559257
0.631274
0.727227
0.817551
1.04861
4.45532
3.86619
4.07039
4.30641
4.55824
4.38459
3.66189
3.05072
2.33366
1.83507
1.43201
1.09725
0.814588
0.655244
0.631491
0.640993
0.673196
0.733529
0.779637
0.940423
4.36526
3.80883
4.04911
4.27769
4.69698
4.7985
4.26608
3.51648
2.67614
2.10954
1.64633
1.28775
1.00275
0.827898
0.772164
0.748877
0.74128
0.750331
0.771091
0.895105
4.28026
3.73513
3.98836
4.20995
4.66452
4.79725
4.64298
4.06247
3.13866
2.46987
1.91504
1.50488
1.1994
1.00014
0.912228
0.854879
0.801991
0.778765
0.79543
0.909087
4.0897
3.56853
3.80299
4.0201
4.46839
4.63045
4.64922
4.48394
3.77412
3.13186
2.52092
2.05451
1.6843
1.42138
1.25471
1.11954
0.994316
0.927109
0.934401
1.00628
15.2814
16.2361
16.6034
14.8008
13.7788
13.3909
12.5043
11.0197
9.17977
7.69802
6.44624
5.6609
5.24033
4.97066
4.84792
4.78096
4.72138
4.63092
4.54401
4.34456
16.2176
16.9088
17.0596
13.4502
12.8826
13.52
12.8925
10.8665
7.89937
5.76567
4.47736
4.01836
4.03177
4.05534
4.05643
4.08053
4.07613
4.02395
3.95296
3.78425
16.4904
17.0629
13.9348
11.0576
12.3617
13.863
13.4446
10.9287
6.73623
4.15056
3.13538
3.17655
3.3871
3.71063
3.94815
4.18337
4.2799
4.25906
4.2
4.01176
14.748
13.252
10.8033
8.93372
10.8673
14.0022
14.2605
12.3179
6.48864
2.2242
2.30001
2.49954
2.8542
3.36417
3.90508
4.31479
4.47392
4.45227
4.39821
4.22459
13.6312
12.453
11.6793
9.91337
1.5571
2.01832
2.18134
2.39309
2.68209
3.11203
3.73597
4.31041
4.75176
4.85637
4.82641
4.63571
13.1278
13.0466
13.2867
13.5503
2.39827
2.66883
2.67757
2.7134
2.80743
2.99303
3.34839
3.97379
4.59342
4.92352
4.9244
4.7718
12.2181
12.5005
13.0233
13.8581
2.95176
3.01566
2.94087
2.8619
2.86359
2.91002
3.04983
3.36813
3.94098
4.46005
4.80325
4.80533
10.7667
10.5536
10.6227
11.997
2.78435
2.29935
2.38473
2.45453
2.51659
2.59384
2.71057
2.90136
3.25549
3.77187
4.27501
4.6495
8.98731
7.70166
6.57771
6.49596
1.53665
2.44443
2.99893
2.77224
0.453119
0.733043
1.10087
1.42951
1.68008
1.86351
2.00798
2.1825
2.44038
2.84947
3.33027
3.93546
7.52882
5.59105
4.01452
2.16081
2.01669
2.70955
3.03876
2.29722
0.755286
0.346581
0.448595
0.674598
0.944169
1.20694
1.44097
1.64642
1.87977
2.20659
2.60444
3.26054
6.30488
4.32241
3.01733
2.23995
2.18169
2.71564
2.96246
2.38329
1.13645
0.458003
0.338647
0.368934
0.498797
0.719766
0.978297
1.22066
1.43471
1.68714
1.99376
2.62335
5.55293
3.91297
3.07082
2.44216
2.39297
2.74703
2.88386
2.45706
1.47291
0.701063
0.373598
0.368746
0.394672
0.488089
0.672274
0.890461
1.09053
1.30092
1.55158
2.13237
5.14717
3.95449
3.31158
2.79936
2.67848
2.83637
2.8863
2.52579
1.72524
0.987417
0.517453
0.399112
0.406917
0.441684
0.521666
0.64975
0.822435
1.01763
1.23365
1.74905
4.87683
3.99685
3.6716
3.32255
3.1113
3.01941
2.93467
2.61141
1.90969
1.26277
0.760505
0.510102
0.447817
0.457912
0.494657
0.569585
0.692707
0.856447
1.04294
1.48139
4.74478
3.99672
3.91634
3.8744
3.75093
3.37725
3.0792
2.73715
2.05639
1.50678
1.04121
0.717127
0.547333
0.502544
0.520984
0.57932
0.673799
0.805838
0.951044
1.29314
4.67106
4.00828
4.14143
4.29191
4.33162
4.0053
3.4078
2.9376
2.23677
1.71852
1.2983
0.953465
0.698727
0.589711
0.592094
0.621381
0.687835
0.789102
0.885671
1.1394
4.60509
3.99164
4.20699
4.41866
4.75172
4.62843
3.99133
3.30683
2.50524
1.95892
1.52093
1.16631
0.887828
0.732138
0.697992
0.70384
0.73457
0.790533
0.838673
1.02168
4.51051
3.92706
4.17769
4.38403
4.80723
4.91006
4.49375
3.82579
2.92784
2.29745
1.78388
1.38743
1.09273
0.912031
0.847918
0.820572
0.802711
0.808112
0.838641
0.984995
4.42281
3.85089
4.10853
4.31715
4.76457
4.89394
4.80627
4.3224
3.4118
2.70329
2.10039
1.65039
1.32056
1.11652
1.01137
0.933782
0.866878
0.850395
0.871509
1.00092
4.22826
3.68231
3.91209
4.13089
4.55017
4.71406
4.79304
4.66425
3.99487
3.35363
2.73537
2.2468
1.85929
1.58682
1.38684
1.22307
1.08993
1.02621
1.03222
1.10672
15.5898
16.5698
16.9841
15.4712
14.4424
13.8739
12.9024
11.401
9.53791
8.01338
6.72413
5.91813
5.46484
5.17748
5.03602
4.95514
4.88202
4.77868
4.68497
4.48012
16.5221
17.3128
17.5528
14.3077
13.5757
14.0121
13.2859
11.2345
8.23142
6.02253
4.68531
4.23837
4.2282
4.21311
4.20147
4.20974
4.1893
4.12086
4.04683
3.88004
16.8407
17.4624
15.4161
12.0719
12.87
14.2737
13.8362
11.3069
7.06199
4.34088
3.28531
3.33954
3.57599
3.8803
4.11822
4.34544
4.38887
4.35321
4.2785
4.07906
15.4186
14.1212
11.8406
9.51595
11.2707
14.4259
14.6817
12.7401
6.92666
2.35091
2.41149
2.62158
3.01683
3.55467
4.06774
4.40537
4.52613
4.50138
4.45019
4.2839
14.3037
13.1748
12.1493
10.2436
1.68021
2.16598
2.32706
2.54825
2.86156
3.34266
3.97993
4.537
4.89356
4.91063
4.8703
4.65885
13.5979
13.5262
13.6545
13.9544
2.55093
2.84566
2.85544
2.89603
3.00229
3.21994
3.65306
4.3134
4.8167
4.9666
4.95343
4.79416
12.5937
12.8605
13.4033
14.2702
3.1084
3.20818
3.1297
3.04622
3.05065
3.11281
3.29193
3.70002
4.30175
4.69079
4.94141
4.92007
11.1244
10.8853
10.9495
12.3933
2.94349
2.46226
2.55725
2.6286
2.69433
2.78434
2.92025
3.15709
3.59947
4.12505
4.5829
4.83366
9.29451
7.958
6.81712
6.65654
1.69521
2.58438
3.14341
2.91065
0.49473
0.804238
1.19657
1.5389
1.80007
1.98427
2.14737
2.35849
2.68336
3.16244
3.65169
4.18095
7.79638
5.79222
4.16307
2.31635
2.18735
2.88511
3.21575
2.44329
0.83805
0.416158
0.513944
0.738948
1.02722
1.31183
1.55543
1.77924
2.0603
2.45304
2.88006
3.51232
6.54452
4.5025
3.15487
2.38001
2.35844
2.89178
3.13899
2.54836
1.25255
0.533016
0.405867
0.437888
0.575978
0.811567
1.07981
1.32903
1.56457
1.86962
2.21932
2.87009
5.77616
4.10558
3.22628
2.58704
2.57677
2.92791
3.06146
2.62755
1.59887
0.7886
0.451099
0.442152
0.466307
0.565746
0.762045
0.983288
1.19285
1.43987
1.73372
2.35728
5.3408
4.13576
3.49373
2.97352
2.87917
3.03017
3.06774
2.69918
1.85335
1.09389
0.615809
0.476711
0.481648
0.517573
0.604134
0.74642
0.925505
1.13531
1.38709
1.94924
5.05856
4.14155
3.84306
3.51235
3.3544
3.24353
3.13261
2.79361
2.03219
1.38163
0.873578
0.600437
0.528743
0.536349
0.576612
0.652908
0.781729
0.960879
1.17568
1.65501
4.91381
4.13739
4.09439
4.03622
4.00385
3.6706
3.31373
2.93333
2.19541
1.6251
1.15015
0.814543
0.635336
0.58718
0.602117
0.657192
0.74745
0.888462
1.05066
1.43121
4.84011
4.14191
4.31124
4.39999
4.5599
4.32321
3.71947
3.17674
2.41102
1.84971
1.40191
1.04376
0.795308
0.677864
0.671398
0.696085
0.763008
0.865056
0.969586
1.2562
4.77211
4.11763
4.33698
4.49868
4.89819
4.84219
4.3149
3.62557
2.74218
2.13347
1.64391
1.26327
0.986342
0.824636
0.776869
0.781196
0.811168
0.866764
0.920958
1.12854
4.67319
4.04584
4.29607
4.46553
4.90283
4.98599
4.70611
4.14434
3.22103
2.52958
1.95804
1.52302
1.21005
1.02318
0.937278
0.90047
0.881016
0.887702
0.92174
1.0883
4.58346
3.9702
4.21526
4.40516
4.85338
4.96639
4.96111
4.60636
3.7038
2.95469
2.31342
1.82758
1.47464
1.25439
1.11588
1.02355
0.953179
0.935346
0.959815
1.10602
4.38772
3.80596
4.01265
4.2298
4.62593
4.79095
4.93657
4.85252
4.22325
3.58063
2.96195
2.45652
2.05051
1.75298
1.51956
1.33902
1.19468
1.12868
1.1359
1.21036
16.3663
17.3659
17.7975
16.4993
15.419
14.7414
13.6876
12.1054
10.1747
8.56006
7.20938
6.36235
5.88667
5.59812
5.44486
5.34411
5.26106
5.15324
5.05671
4.84315
17.2935
18.1524
18.4378
15.4503
14.5393
14.7966
13.989
11.8587
8.75964
6.4483
5.04519
4.58198
4.57284
4.55259
4.54543
4.53744
4.50136
4.42333
4.3467
4.17619
17.6272
18.2623
17.267
13.3591
13.5131
14.8062
14.4296
11.8325
7.49524
4.66015
3.5697
3.63666
3.90269
4.21477
4.47608
4.68594
4.69265
4.64245
4.55177
4.33791
16.4282
15.2575
13.047
10.3144
11.6929
14.9198
15.1888
13.2554
7.29964
2.52605
2.60854
2.86584
3.32571
3.92443
4.42993
4.74262
4.80981
4.77811
4.71455
4.52888
15.29
14.2145
12.8853
10.7617
1.89386
2.32955
2.51861
2.78052
3.1534
3.7256
4.39607
4.95775
5.20198
5.18296
5.10992
4.86321
14.4613
14.3303
14.2407
14.4698
2.74029
3.0662
3.08934
3.15148
3.29015
3.56591
4.1079
4.79969
5.21536
5.24006
5.20721
5.00753
13.3818
13.5531
13.9942
14.8081
3.33488
3.45363
3.37055
3.30727
3.32643
3.42416
3.67319
4.18577
4.79528
5.12811
5.29868
5.22935
11.8355
11.4768
11.4265
12.8988
3.1832
2.64895
2.77193
2.85977
2.94445
3.05876
3.23372
3.54898
4.08584
4.63372
5.06388
5.21107
9.92822
8.42863
7.12135
6.79429
1.88798
2.77845
3.3728
3.11412
0.566604
0.868092
1.31013
1.68462
1.96772
2.17841
2.38677
2.65691
3.06286
3.60384
4.10952
4.58799
8.35542
6.20265
4.42721
2.4841
2.38798
3.10721
3.46149
2.66405
0.954039
0.494624
0.589968
0.832233
1.15488