/*--------------------------------*- C++ -*----------------------------------*\
  =========                 |
  \\      /  F ield         | OpenFOAM: The Open Source CFD Toolbox
   \\    /   O peration     | Website:  https://openfoam.org
    \\  /    A nd           | Version:  9
     \\/     M anipulation  |
\*---------------------------------------------------------------------------*/
FoamFile
{
    format      ascii;
    class       volScalarField;
    location    "0.0045";
    object      rhoE;
}
// * * * * * * * * * * * * * * * * * * * * * * * * * * * * * * * * * * * * * //

dimensions      [1 -1 -2 0 0 0 0];

internalField   nonuniform List<scalar> 
9720
(
4.87311e+07
4.99189e+07
5.05361e+07
4.69101e+07
4.38187e+07
4.14423e+07
3.81549e+07
3.41233e+07
2.95108e+07
2.50725e+07
2.13854e+07
1.90391e+07
1.78088e+07
1.73323e+07
1.72253e+07
1.74305e+07
1.77617e+07
1.81425e+07
1.8419e+07
1.88423e+07
4.96146e+07
4.99894e+07
5.0134e+07
4.22456e+07
4.00659e+07
4.07565e+07
3.8136e+07
3.28601e+07
2.51743e+07
1.8594e+07
1.46797e+07
1.34261e+07
1.35372e+07
1.37703e+07
1.41697e+07
1.46037e+07
1.50137e+07
1.53534e+07
1.56273e+07
1.60399e+07
4.99808e+07
4.9642e+07
4.65584e+07
3.65794e+07
3.72109e+07
4.04842e+07
3.91528e+07
3.26389e+07
2.15164e+07
1.30767e+07
1.01622e+07
1.07599e+07
1.17506e+07
1.28661e+07
1.39751e+07
1.50716e+07
1.56312e+07
1.61015e+07
1.63827e+07
1.67182e+07
4.64325e+07
4.1747e+07
3.62786e+07
3.05812e+07
3.18509e+07
4.15126e+07
4.19063e+07
3.69875e+07
2.13948e+07
7.38147e+06
8.0493e+06
9.05547e+06
1.04428e+07
1.20948e+07
1.39622e+07
1.53789e+07
1.60119e+07
1.65631e+07
1.69683e+07
1.74876e+07
4.32437e+07
3.94233e+07
3.63857e+07
3.13798e+07
5.88918e+06
8.54791e+06
9.16645e+06
1.0014e+07
1.11585e+07
1.28628e+07
1.47464e+07
1.65715e+07
1.77198e+07
1.80994e+07
1.83512e+07
1.85594e+07
4.07071e+07
3.98182e+07
3.94161e+07
4.03969e+07
1.12865e+07
1.25017e+07
1.25985e+07
1.28268e+07
1.32974e+07
1.41606e+07
1.56773e+07
1.75753e+07
1.89662e+07
1.92446e+07
1.94394e+07
1.95734e+07
3.72897e+07
3.70421e+07
3.80104e+07
4.08019e+07
1.44257e+07
1.49561e+07
1.4691e+07
1.4387e+07
1.43847e+07
1.46843e+07
1.54512e+07
1.69714e+07
1.877e+07
1.99154e+07
2.07833e+07
2.11298e+07
3.33969e+07
3.19561e+07
3.16359e+07
3.58127e+07
1.465e+07
1.2179e+07
1.2935e+07
1.33781e+07
1.38343e+07
1.43674e+07
1.51032e+07
1.63849e+07
1.84344e+07
2.03082e+07
2.2015e+07
2.29221e+07
2.8858e+07
2.44625e+07
2.07471e+07
1.97462e+07
5.91971e+06
1.09581e+07
1.42167e+07
1.40022e+07
2.80728e+06
4.13787e+06
6.081e+06
8.00232e+06
9.53616e+06
1.0636e+07
1.18335e+07
1.31283e+07
1.49219e+07
1.7265e+07
1.91956e+07
2.15896e+07
2.45066e+07
1.81303e+07
1.27802e+07
7.34314e+06
8.41106e+06
1.20742e+07
1.43735e+07
1.17422e+07
4.33294e+06
2.4818e+06
2.79152e+06
3.8863e+06
5.62799e+06
7.33005e+06
8.79216e+06
1.02048e+07
1.19622e+07
1.42301e+07
1.63607e+07
1.96575e+07
2.09316e+07
1.44119e+07
1.00464e+07
8.00888e+06
9.08156e+06
1.22247e+07
1.41926e+07
1.25002e+07
6.45737e+06
2.8228e+06
2.29129e+06
2.51754e+06
3.31504e+06
4.72947e+06
6.22194e+06
7.68413e+06
9.23138e+06
1.13255e+07
1.34328e+07
1.72109e+07
1.86345e+07
1.32137e+07
1.06286e+07
9.01178e+06
9.93824e+06
1.24839e+07
1.40292e+07
1.29578e+07
8.30833e+06
4.18429e+06
2.50286e+06
2.59144e+06
2.73754e+06
3.31894e+06
4.42281e+06
5.83836e+06
7.26599e+06
9.10593e+06
1.09829e+07
1.47433e+07
1.73974e+07
1.32703e+07
1.15549e+07
1.03327e+07
1.10656e+07
1.29952e+07
1.40806e+07
1.34556e+07
9.74079e+06
5.98687e+06
3.51593e+06
2.78192e+06
2.73764e+06
2.93617e+06
3.46573e+06
4.53358e+06
5.81894e+06
7.35823e+06
8.99162e+06
1.25055e+07
1.68957e+07
1.34761e+07
1.26317e+07
1.18669e+07
1.26672e+07
1.38897e+07
1.44354e+07
1.40405e+07
1.07582e+07
7.65517e+06
5.06146e+06
3.53027e+06
2.99948e+06
3.16119e+06
3.43103e+06
4.02898e+06
4.99266e+06
6.26992e+06
7.66403e+06
1.07609e+07
1.67681e+07
1.3837e+07
1.37017e+07
1.35736e+07
1.44123e+07
1.54014e+07
1.52368e+07
1.48152e+07
1.19036e+07
9.07995e+06
6.57209e+06
4.71658e+06
3.66617e+06
3.50009e+06
3.57264e+06
3.95786e+06
4.52695e+06
5.45749e+06
6.62554e+06
9.36965e+06
1.69736e+07
1.42498e+07
1.47425e+07
1.49432e+07
1.6132e+07
1.71892e+07
1.67297e+07
1.61298e+07
1.31935e+07
1.04655e+07
8.03079e+06
6.16071e+06
4.81948e+06
4.24418e+06
4.05416e+06
4.14168e+06
4.5336e+06
5.16936e+06
6.12313e+06
8.38791e+06
1.73091e+07
1.46473e+07
1.52866e+07
1.56651e+07
1.73346e+07
1.85459e+07
1.84018e+07
1.81607e+07
1.49849e+07
1.22227e+07
9.59842e+06
7.61783e+06
6.15149e+06
5.3164e+06
4.77691e+06
4.63253e+06
4.82374e+06
5.32594e+06
5.99104e+06
7.71551e+06
1.76969e+07
1.49866e+07
1.5749e+07
1.62317e+07
1.77483e+07
1.88738e+07
1.95662e+07
1.99587e+07
1.72293e+07
1.44608e+07
1.17202e+07
9.52409e+06
7.79269e+06
6.70278e+06
5.84331e+06
5.41354e+06
5.43409e+06
5.67381e+06
6.10334e+06
7.50482e+06
1.79866e+07
1.52716e+07
1.60379e+07
1.6664e+07
1.8036e+07
1.90982e+07
2.04874e+07
2.1713e+07
1.91435e+07
1.65399e+07
1.38079e+07
1.14417e+07
9.49159e+06
8.16961e+06
7.08749e+06
6.52452e+06
6.22265e+06
6.25152e+06
6.49737e+06
7.59543e+06
1.8444e+07
1.57147e+07
1.64074e+07
1.72378e+07
1.83063e+07
1.93119e+07
2.08991e+07
2.26994e+07
2.1517e+07
1.97949e+07
1.75435e+07
1.52203e+07
1.30875e+07
1.13731e+07
9.95114e+06
8.97121e+06
8.20739e+06
7.88658e+06
7.85249e+06
8.42046e+06
4.61627e+07
4.73299e+07
4.79102e+07
4.35717e+07
4.07073e+07
3.8843e+07
3.57963e+07
3.20429e+07
2.76026e+07
2.33865e+07
1.98391e+07
1.7571e+07
1.63985e+07
1.58943e+07
1.57847e+07
1.60122e+07
1.63349e+07
1.66801e+07
1.69204e+07
1.7278e+07
4.71e+07
4.73542e+07
4.75256e+07
3.90105e+07
3.74333e+07
3.86388e+07
3.62167e+07
3.11215e+07
2.37353e+07
1.74369e+07
1.36245e+07
1.23631e+07
1.24236e+07
1.26175e+07
1.29623e+07
1.34133e+07
1.3839e+07
1.41769e+07
1.44269e+07
1.47773e+07
4.75221e+07
4.72663e+07
4.11671e+07
3.32525e+07
3.57877e+07
3.9208e+07
3.75904e+07
3.12928e+07
2.03987e+07
1.23327e+07
9.35417e+06
9.86465e+06
1.07176e+07
1.17053e+07
1.26895e+07
1.38207e+07
1.44551e+07
1.49375e+07
1.52455e+07
1.55797e+07
4.34656e+07
3.87543e+07
3.31572e+07
2.84426e+07
3.15086e+07
4.03761e+07
4.05211e+07
3.5523e+07
2.04024e+07
6.96688e+06
7.49477e+06
8.34564e+06
9.55231e+06
1.09615e+07
1.26483e+07
1.40885e+07
1.49043e+07
1.54276e+07
1.58366e+07
1.63613e+07
4.03078e+07
3.66239e+07
3.43446e+07
2.95231e+07
5.46618e+06
8.16029e+06
8.69512e+06
9.42487e+06
1.0402e+07
1.17992e+07
1.35203e+07
1.51353e+07
1.65877e+07
1.70171e+07
1.73396e+07
1.76148e+07
3.81543e+07
3.75996e+07
3.78995e+07
3.91461e+07
1.11006e+07
1.2086e+07
1.20922e+07
1.22104e+07
1.25402e+07
1.32146e+07
1.44258e+07
1.61537e+07
1.7598e+07
1.8283e+07
1.84974e+07
1.86982e+07
3.49373e+07
3.51335e+07
3.65058e+07
3.94417e+07
1.43531e+07
1.45779e+07
1.4219e+07
1.37532e+07
1.36811e+07
1.38313e+07
1.43727e+07
1.55957e+07
1.73545e+07
1.84256e+07
1.95757e+07
1.99832e+07
3.12279e+07
3.02339e+07
3.0367e+07
3.44327e+07
1.4517e+07
1.17973e+07
1.24014e+07
1.27496e+07
1.30664e+07
1.3489e+07
1.405e+07
1.50396e+07
1.67963e+07
1.86104e+07
2.0218e+07
2.1525e+07
2.68627e+07
2.30071e+07
1.9675e+07
1.93688e+07
5.6104e+06
1.06622e+07
1.38336e+07
1.35055e+07
2.70537e+06
3.91653e+06
5.71842e+06
7.47153e+06
8.89924e+06
9.91549e+06
1.09076e+07
1.19922e+07
1.34642e+07
1.5595e+07
1.74382e+07
1.999e+07
2.27116e+07
1.68435e+07
1.19105e+07
6.9088e+06
8.08553e+06
1.18228e+07
1.41244e+07
1.14093e+07
4.13785e+06
2.18786e+06
2.56792e+06
3.52572e+06
5.10061e+06
6.67705e+06
8.00395e+06
9.21581e+06
1.07396e+07
1.27486e+07
1.47223e+07
1.79308e+07
1.92741e+07
1.31629e+07
9.04722e+06
7.39591e+06
8.59367e+06
1.18046e+07
1.37647e+07
1.19969e+07
6.07444e+06
2.5481e+06
1.99667e+06
2.19061e+06
2.90834e+06
4.12953e+06
5.48945e+06
6.83454e+06
8.22301e+06
1.00727e+07
1.19454e+07
1.54846e+07
1.70925e+07
1.19792e+07
9.55458e+06
8.17068e+06
9.25939e+06
1.18899e+07
1.33709e+07
1.23517e+07
7.77162e+06
3.73892e+06
2.17668e+06
2.27213e+06
2.376e+06
2.81346e+06
3.83635e+06
5.1368e+06
6.43123e+06
8.04101e+06
9.66331e+06
1.30946e+07
1.59591e+07
1.20918e+07
1.04019e+07
9.31342e+06
1.01797e+07
1.22167e+07
1.33289e+07
1.26748e+07
9.0879e+06
5.41231e+06
3.05073e+06
2.38655e+06
2.31784e+06
2.51219e+06
3.00529e+06
3.9559e+06
5.06043e+06
6.34969e+06
7.74133e+06
1.1022e+07
1.54512e+07
1.23209e+07
1.1456e+07
1.07166e+07
1.15225e+07
1.29084e+07
1.35289e+07
1.31357e+07
1.00116e+07
6.98347e+06
4.41474e+06
2.96624e+06
2.55659e+06
2.71574e+06
2.98403e+06
3.46126e+06
4.21173e+06
5.29231e+06
6.5968e+06
9.53639e+06
1.53261e+07
1.26477e+07
1.24498e+07
1.23049e+07
1.31941e+07
1.41615e+07
1.41211e+07
1.37524e+07
1.09657e+07
8.28215e+06
5.82622e+06
4.10251e+06
3.18095e+06
3.03559e+06
3.10057e+06
3.3644e+06
3.85494e+06
4.7106e+06
5.81034e+06
8.3476e+06
1.55593e+07
1.30761e+07
1.35301e+07
1.37203e+07
1.47994e+07
1.58509e+07
1.53868e+07
1.4813e+07
1.20665e+07
9.48577e+06
7.20477e+06
5.47195e+06
4.25706e+06
3.6472e+06
3.4658e+06
3.51297e+06
3.8807e+06
4.53647e+06
5.41109e+06
7.45655e+06
1.58853e+07
1.34846e+07
1.41328e+07
1.45834e+07
1.6232e+07
1.72865e+07
1.70871e+07
1.6618e+07
1.35885e+07
1.10494e+07
8.64717e+06
6.83548e+06
5.45192e+06
4.53672e+06
4.07818e+06
4.01204e+06
4.20845e+06
4.65213e+06
5.22086e+06
6.70485e+06
1.62365e+07
1.38153e+07
1.46061e+07
1.51194e+07
1.66553e+07
1.79001e+07
1.81605e+07
1.83729e+07
1.57039e+07
1.30873e+07
1.05642e+07
8.55316e+06
6.86903e+06
5.75037e+06
5.07292e+06
4.80159e+06
4.76138e+06
4.96192e+06
5.31173e+06
6.47848e+06
1.64892e+07
1.40718e+07
1.49074e+07
1.55374e+07
1.69727e+07
1.81227e+07
1.93297e+07
2.00428e+07
1.75112e+07
1.5049e+07
1.24689e+07
1.02585e+07
8.34109e+06
7.13269e+06
6.26765e+06
5.81295e+06
5.48065e+06
5.44976e+06
5.58731e+06
6.51976e+06
1.68818e+07
1.44482e+07
1.52549e+07
1.60864e+07
1.72616e+07
1.83558e+07
1.97807e+07
2.13477e+07
2.00255e+07
1.82259e+07
1.60022e+07
1.37357e+07
1.17029e+07
1.01917e+07
8.94775e+06
8.04732e+06
7.22593e+06
6.83661e+06
6.7638e+06
7.28602e+06
4.55422e+07
4.66185e+07
4.72437e+07
4.22908e+07
3.92188e+07
3.78207e+07
3.49273e+07
3.1229e+07
2.68947e+07
2.27372e+07
1.92514e+07
1.70055e+07
1.59085e+07
1.54319e+07
1.53361e+07
1.55535e+07
1.58606e+07
1.61997e+07
1.64289e+07
1.67455e+07
4.65376e+07
4.64861e+07
4.66502e+07
3.74112e+07
3.60533e+07
3.75225e+07
3.52883e+07
3.03234e+07
2.30871e+07
1.69856e+07
1.32413e+07
1.19134e+07
1.20246e+07
1.22673e+07
1.26003e+07
1.30633e+07
1.34974e+07
1.38512e+07
1.40906e+07
1.4391e+07
4.68958e+07
4.64834e+07
3.73375e+07
3.10748e+07
3.47143e+07
3.81248e+07
3.65409e+07
3.03554e+07
1.96314e+07
1.211e+07
9.12084e+06
9.51724e+06
1.02661e+07
1.12813e+07
1.2244e+07
1.33638e+07
1.41038e+07
1.45952e+07
1.49282e+07
1.52669e+07
4.19222e+07
3.66427e+07
3.04459e+07
2.67218e+07
3.02846e+07
3.92304e+07
3.93142e+07
3.41665e+07
1.92893e+07
6.83862e+06
7.28487e+06
8.11517e+06
9.27987e+06
1.06611e+07
1.23107e+07
1.38653e+07
1.4721e+07
1.51968e+07
1.55646e+07
1.60121e+07
3.87883e+07
3.50732e+07
3.33284e+07
2.82367e+07
4.88637e+06
7.70565e+06
8.29343e+06
9.06891e+06
1.00716e+07
1.14366e+07
1.32242e+07
1.48613e+07
1.6527e+07
1.71295e+07
1.74032e+07
1.76093e+07
3.71605e+07
3.64645e+07
3.69428e+07
3.81819e+07
1.0288e+07
1.15106e+07
1.15671e+07
1.17178e+07
1.20745e+07
1.27697e+07
1.39846e+07
1.59171e+07
1.76511e+07
1.88053e+07
1.89563e+07
1.89967e+07
3.41936e+07
3.43887e+07
3.56491e+07
3.8254e+07
1.36117e+07
1.41024e+07
1.38245e+07
1.34599e+07
1.34464e+07
1.36063e+07
1.41399e+07
1.5292e+07
1.72655e+07
1.86862e+07
1.99892e+07
2.02392e+07
3.04486e+07
2.94964e+07
2.96819e+07
3.33457e+07
1.3818e+07
1.14852e+07
1.19932e+07
1.24091e+07
1.27314e+07
1.31882e+07
1.3762e+07
1.46873e+07
1.63171e+07
1.84127e+07
2.0101e+07
2.18157e+07
2.6168e+07
2.24261e+07
1.91259e+07
1.88572e+07
4.92867e+06
1.03687e+07
1.36374e+07
1.33804e+07
2.52451e+06
3.79419e+06
5.54626e+06
7.22643e+06
8.64984e+06
9.71588e+06
1.06025e+07
1.16728e+07
1.29846e+07
1.50226e+07
1.71011e+07
1.99603e+07
2.20596e+07
1.63334e+07
1.15355e+07
6.56738e+06
7.60891e+06
1.14961e+07
1.3888e+07
1.1119e+07
3.80194e+06
1.85962e+06
2.41019e+06
3.34918e+06
4.82932e+06
6.3446e+06
7.72603e+06
8.90097e+06
1.03013e+07
1.21047e+07
1.41712e+07
1.76431e+07
1.86366e+07
1.26304e+07
8.5578e+06
6.98764e+06
8.1454e+06
1.15337e+07
1.36094e+07
1.17224e+07
5.72372e+06
2.3393e+06
1.8191e+06
1.95637e+06
2.61239e+06
3.80033e+06
5.22869e+06
6.57675e+06
7.85961e+06
9.5032e+06
1.13128e+07
1.49258e+07
1.64312e+07
1.1374e+07
8.9899e+06
7.76277e+06
8.81825e+06
1.16339e+07
1.32239e+07
1.21905e+07
7.49564e+06
3.47433e+06
1.93029e+06
2.00833e+06
2.13892e+06
2.58287e+06
3.55548e+06
4.83387e+06
6.04944e+06
7.51338e+06
9.09531e+06
1.24655e+07
1.53496e+07
1.15271e+07
9.8222e+06
8.87568e+06
9.72858e+06
1.19334e+07
1.32028e+07
1.25248e+07
8.90802e+06
5.12196e+06
2.70682e+06
2.13688e+06
2.11365e+06
2.27821e+06
2.68924e+06
3.53007e+06
4.62591e+06
5.91166e+06
7.24717e+06
1.03599e+07
1.48753e+07
1.1846e+07
1.09186e+07
1.0244e+07
1.10034e+07
1.2575e+07
1.33599e+07
1.30116e+07
9.91758e+06
6.70604e+06
4.07544e+06
2.71023e+06
2.29309e+06
2.41696e+06
2.64607e+06
3.12917e+06
3.88952e+06
4.92144e+06
6.13046e+06
8.88339e+06
1.47908e+07
1.22255e+07
1.19407e+07
1.18243e+07
1.2757e+07
1.37255e+07
1.3899e+07
1.36042e+07
1.07813e+07
8.09311e+06
5.60755e+06
3.83337e+06
2.83625e+06
2.67776e+06
2.79764e+06
3.09473e+06
3.61899e+06
4.41572e+06
5.41975e+06
7.75117e+06
1.50294e+07
1.26824e+07
1.30558e+07
1.34716e+07
1.44068e+07
1.55678e+07
1.50508e+07
1.45418e+07
1.18322e+07
9.28251e+06
7.02155e+06
5.19791e+06
3.82393e+06
3.25006e+06
3.18308e+06
3.24668e+06
3.5941e+06
4.21356e+06
4.98252e+06
6.89016e+06
1.53567e+07
1.3111e+07
1.38014e+07
1.44414e+07
1.60963e+07
1.72791e+07
1.69763e+07
1.61733e+07
1.31578e+07
1.07003e+07
8.34421e+06
6.47354e+06
4.99939e+06
4.13791e+06
3.79547e+06
3.70578e+06
3.856e+06
4.2544e+06
4.78168e+06
6.19914e+06
1.57201e+07
1.34715e+07
1.42892e+07
1.49302e+07
1.66959e+07
1.82811e+07
1.83231e+07
1.82016e+07
1.52052e+07
1.25286e+07
1.00251e+07
7.98744e+06
6.34432e+06
5.27573e+06
4.70183e+06
4.43463e+06
4.34445e+06
4.51624e+06
4.91026e+06
6.00597e+06
1.59736e+07
1.3724e+07
1.46148e+07
1.53001e+07
1.69695e+07
1.84086e+07
1.95954e+07
1.98689e+07
1.72112e+07
1.45716e+07
1.18391e+07
9.6316e+06
7.74426e+06
6.5577e+06
5.79199e+06
5.32254e+06
4.98988e+06
5.01846e+06
5.17932e+06
6.01898e+06
1.63358e+07
1.4056e+07
1.49543e+07
1.57642e+07
1.71918e+07
1.84826e+07
1.98733e+07
2.1526e+07
1.99618e+07
1.79315e+07
1.54123e+07
1.30596e+07
1.0967e+07
9.46928e+06
8.29941e+06
7.43162e+06
6.66528e+06
6.32182e+06
6.23934e+06
6.73557e+06
4.47659e+07
4.57645e+07
4.62027e+07
4.08013e+07
3.77489e+07
3.6528e+07
3.38344e+07
3.02102e+07
2.59584e+07
2.19548e+07
1.855e+07
1.636e+07
1.5372e+07
1.49683e+07
1.4917e+07
1.5141e+07
1.54342e+07
1.57587e+07
1.59704e+07
1.62553e+07
4.57747e+07
4.54941e+07
4.5322e+07
3.57068e+07
3.46999e+07
3.62888e+07
3.4319e+07
2.94552e+07
2.23073e+07
1.63153e+07
1.26881e+07
1.14035e+07
1.15927e+07
1.19751e+07
1.23549e+07
1.2816e+07
1.32366e+07
1.35815e+07
1.37994e+07
1.40483e+07
4.59771e+07
4.55445e+07
3.48598e+07
2.95068e+07
3.33979e+07
3.70235e+07
3.56211e+07
2.95937e+07
1.88372e+07
1.14575e+07
8.61106e+06
9.06757e+06
9.8807e+06
1.10288e+07
1.20735e+07
1.31779e+07
1.39212e+07
1.43958e+07
1.47023e+07
1.49867e+07
4.06384e+07
3.51478e+07
2.88906e+07
2.55198e+07
2.86078e+07
3.81667e+07
3.82068e+07
3.30592e+07
1.79614e+07
6.4695e+06
6.89403e+06
7.75519e+06
8.98741e+06
1.05061e+07
1.21633e+07
1.38823e+07
1.46698e+07
1.50819e+07
1.53673e+07
1.56824e+07
3.75017e+07
3.40992e+07
3.2808e+07
2.83482e+07
4.99333e+06
7.57998e+06
8.16537e+06
8.91424e+06
9.90234e+06
1.12331e+07
1.30326e+07
1.47142e+07
1.63985e+07
1.71833e+07
1.74185e+07
1.75464e+07
3.61897e+07
3.56318e+07
3.63397e+07
3.72358e+07
1.02635e+07
1.16101e+07
1.16697e+07
1.18196e+07
1.21329e+07
1.2721e+07
1.37546e+07
1.55803e+07
1.76082e+07
1.91003e+07
1.9241e+07
1.91723e+07
3.33842e+07
3.37536e+07
3.50578e+07
3.74514e+07
1.36811e+07
1.42241e+07
1.39658e+07
1.36082e+07
1.35516e+07
1.3647e+07
1.40688e+07
1.50076e+07
1.68427e+07
1.8839e+07
2.0208e+07
2.0389e+07
2.97371e+07
2.89534e+07
2.91381e+07
3.245e+07
1.37056e+07
1.13184e+07
1.19042e+07
1.23984e+07
1.2745e+07
1.3139e+07
1.36506e+07
1.44059e+07
1.57564e+07
1.78443e+07
1.99033e+07
2.18487e+07
2.54436e+07
2.18805e+07
1.86474e+07
1.81997e+07
4.84792e+06
1.01632e+07
1.34185e+07
1.31779e+07
2.29473e+06
3.49985e+06
5.27309e+06
7.09649e+06
8.57679e+06
9.73207e+06
1.05137e+07
1.1492e+07
1.26159e+07
1.43355e+07
1.65483e+07
1.96617e+07
2.14462e+07
1.59397e+07
1.12416e+07
6.30864e+06
7.34356e+06
1.13325e+07
1.37837e+07
1.10614e+07
3.75804e+06
1.61811e+06
2.21132e+06
3.21008e+06
4.66867e+06
6.17422e+06
7.58344e+06
8.79839e+06
1.00704e+07
1.1589e+07
1.35092e+07
1.70812e+07
1.80375e+07
1.22718e+07
8.27028e+06
6.6578e+06
7.86029e+06
1.13576e+07
1.35494e+07
1.16198e+07
5.6092e+06
2.21462e+06
1.67776e+06
1.77985e+06
2.39272e+06
3.56193e+06
5.06365e+06
6.49854e+06
7.74781e+06
9.08514e+06
1.06963e+07
1.41687e+07
1.58053e+07
1.09111e+07
8.62548e+06
7.40662e+06
8.53138e+06
1.14715e+07
1.32082e+07
1.20918e+07
7.41495e+06
3.36171e+06
1.76988e+06
1.79653e+06
1.91823e+06
2.40773e+06
3.40695e+06
4.68722e+06
5.88231e+06
7.11952e+06
8.56692e+06
1.17479e+07
1.47441e+07
1.1025e+07
9.33502e+06
8.47177e+06
9.43435e+06
1.17602e+07
1.31679e+07
1.24435e+07
8.81731e+06
4.93344e+06
2.45131e+06
1.90246e+06
1.94776e+06
2.1024e+06
2.46319e+06
3.26254e+06
4.33486e+06
5.54471e+06
6.85595e+06
9.71728e+06
1.42885e+07
1.1319e+07
1.03617e+07
9.77411e+06
1.06437e+07
1.23314e+07
1.32746e+07
1.28702e+07
9.84543e+06
6.45859e+06
3.74065e+06
2.47785e+06
2.08853e+06
2.1871e+06
2.35518e+06
2.80389e+06
3.58382e+06
4.62804e+06
5.77339e+06
8.26115e+06
1.42186e+07
1.16909e+07
1.13656e+07
1.13001e+07
1.22957e+07
1.33124e+07
1.37118e+07
1.33998e+07
1.05817e+07
7.80876e+06
5.28456e+06
3.56893e+06
2.53589e+06
2.35595e+06
2.46991e+06
2.79414e+06
3.37476e+06
4.16723e+06
5.09509e+06
7.2072e+06
1.44443e+07
1.21651e+07
1.24484e+07
1.30151e+07
1.39204e+07
1.50281e+07
1.46415e+07
1.41637e+07
1.15072e+07
8.98759e+06
6.73373e+06
4.89137e+06
3.4019e+06
2.83767e+06
2.82221e+06
2.95541e+06
3.35392e+06
3.94331e+06
4.66601e+06
6.38992e+06
1.47598e+07
1.26035e+07
1.33028e+07
1.40012e+07
1.56186e+07
1.69363e+07
1.64223e+07
1.55072e+07
1.26129e+07
1.02578e+07
7.99125e+06
6.10417e+06
4.49858e+06
3.66824e+06
3.45097e+06
3.41536e+06
3.57395e+06
3.95833e+06
4.41561e+06
5.70362e+06
1.51214e+07
1.29926e+07
1.38083e+07
1.44711e+07
1.65227e+07
1.83921e+07
1.82542e+07
1.75411e+07
1.43506e+07
1.17862e+07
9.39512e+06
7.37467e+06
5.70561e+06
4.74689e+06
4.30475e+06
4.0848e+06
4.02541e+06
4.13855e+06
4.46869e+06
5.48091e+06
1.53705e+07
1.32497e+07
1.41546e+07
1.48235e+07
1.67924e+07
1.8514e+07
1.95888e+07
1.94828e+07
1.65021e+07
1.3715e+07
1.09926e+07
8.84004e+06
7.06228e+06
5.95587e+06
5.29788e+06
4.88461e+06
4.56488e+06
4.53672e+06
4.74752e+06
5.52935e+06
1.57164e+07
1.35622e+07
1.45062e+07
1.5253e+07
1.69953e+07
1.85097e+07
1.98394e+07
2.13841e+07
1.95065e+07
1.71996e+07
1.44379e+07
1.20781e+07
1.00447e+07
8.60418e+06
7.57036e+06
6.77641e+06
6.03556e+06
5.72477e+06
5.70842e+06
6.18366e+06
4.42802e+07
4.51294e+07
4.54417e+07
3.99528e+07
3.69976e+07
3.58705e+07
3.32701e+07
2.96575e+07
2.53269e+07
2.13691e+07
1.80446e+07
1.58703e+07
1.49197e+07
1.45663e+07
1.45819e+07
1.48655e+07
1.51949e+07
1.55525e+07
1.57755e+07
1.60537e+07
4.51472e+07
4.46502e+07
4.43903e+07
3.4766e+07
3.41142e+07
3.57162e+07
3.38153e+07
2.89456e+07
2.16783e+07
1.57223e+07
1.2212e+07
1.09425e+07
1.11292e+07
1.15624e+07
1.20402e+07
1.25921e+07
1.30449e+07
1.34439e+07
1.36859e+07
1.3925e+07
4.51298e+07
4.4538e+07
3.35722e+07
2.86545e+07
3.2917e+07
3.65064e+07
3.51276e+07
2.91008e+07
1.8264e+07
1.09242e+07
8.16386e+06
8.60624e+06
9.40963e+06
1.05905e+07
1.17239e+07
1.28543e+07
1.37135e+07
1.42359e+07
1.45902e+07
1.49054e+07
3.96872e+07
3.4156e+07
2.80753e+07
2.47373e+07
2.7987e+07
3.72311e+07
3.73591e+07
3.23922e+07
1.76779e+07
6.17549e+06
6.54838e+06
7.37658e+06
8.56834e+06
1.00736e+07
1.17581e+07
1.36668e+07
1.45948e+07
1.50277e+07
1.53122e+07
1.55868e+07
3.67944e+07
3.35957e+07
3.23535e+07
2.76634e+07
4.70252e+06
7.39917e+06
7.95508e+06
8.65282e+06
9.61191e+06
1.09095e+07
1.26946e+07
1.44348e+07
1.62051e+07
1.7213e+07
1.74879e+07
1.76655e+07
3.56256e+07
3.51216e+07
3.5938e+07
3.69081e+07
1.03166e+07
1.16909e+07
1.17184e+07
1.18317e+07
1.21093e+07
1.26433e+07
1.35776e+07
1.52369e+07
1.73382e+07
1.90883e+07
1.9518e+07
1.94766e+07
3.29391e+07
3.33794e+07
3.46861e+07
3.69465e+07
1.38626e+07
1.44299e+07
1.41444e+07
1.37649e+07
1.35657e+07
1.36237e+07
1.39802e+07
1.4796e+07
1.63939e+07
1.85831e+07
2.01521e+07
2.054e+07
2.93252e+07
2.8585e+07
2.87652e+07
3.19563e+07
1.38588e+07
1.14804e+07
1.204e+07
1.25042e+07
1.28232e+07
1.31631e+07
1.36171e+07
1.4252e+07
1.54059e+07
1.72569e+07
1.94624e+07
2.16716e+07
2.50387e+07
2.15039e+07
1.82502e+07
1.75404e+07
4.50303e+06
9.86885e+06
1.33027e+07
1.31525e+07
2.20721e+06
3.45451e+06
5.22979e+06
7.07616e+06
8.56175e+06
9.7615e+06
1.05165e+07
1.14139e+07
1.24299e+07
1.3876e+07
1.59941e+07
1.92366e+07
2.11265e+07
1.56489e+07
1.09548e+07
6.10136e+06
7.15178e+06
1.12144e+07
1.3764e+07
1.10268e+07
3.75083e+06
1.52203e+06
2.1097e+06
3.13161e+06
4.60857e+06
6.11527e+06
7.48278e+06
8.63509e+06
9.87001e+06
1.12669e+07
1.30157e+07
1.65177e+07
1.78066e+07
1.2129e+07
8.14708e+06
6.46929e+06
7.68658e+06
1.12481e+07
1.35298e+07
1.15347e+07
5.53257e+06
2.14262e+06
1.6123e+06
1.72293e+06
2.26738e+06
3.42085e+06
4.9015e+06
6.32412e+06
7.61417e+06
8.87822e+06
1.03519e+07
1.36069e+07
1.55834e+07
1.07732e+07
8.51567e+06
7.26453e+06
8.36688e+06
1.13687e+07
1.31856e+07
1.19782e+07
7.29559e+06
3.26394e+06
1.7159e+06
1.67819e+06
1.77707e+06
2.28596e+06
3.28526e+06
4.55167e+06
5.76605e+06
6.89087e+06
8.21391e+06
1.11544e+07
1.45156e+07
1.08418e+07
9.15719e+06
8.35499e+06
9.28409e+06
1.16511e+07
1.30969e+07
1.23063e+07
8.67558e+06
4.80522e+06
2.3208e+06
1.75848e+06
1.84387e+06
2.00633e+06
2.3405e+06
3.10224e+06
4.16213e+06
5.32112e+06
6.54119e+06
9.17451e+06
1.40685e+07
1.11146e+07
1.01397e+07
9.67215e+06
1.0506e+07
1.21845e+07
1.3176e+07
1.26851e+07
9.70407e+06
6.2769e+06
3.54264e+06
2.33386e+06
1.97839e+06
2.07197e+06
2.19004e+06
2.61583e+06
3.39492e+06
4.41335e+06
5.50061e+06
7.79868e+06
1.39987e+07
1.14928e+07
1.11389e+07
1.11618e+07
1.21278e+07
1.31034e+07
1.3554e+07
1.31728e+07
1.03953e+07
7.58791e+06
5.01954e+06
3.40383e+06
2.37538e+06
2.18053e+06
2.27032e+06
2.61831e+06
3.24183e+06
4.0129e+06
4.85975e+06
6.80391e+06
1.42217e+07
1.19735e+07
1.21902e+07
1.28542e+07
1.37038e+07
1.47019e+07
1.43851e+07
1.38475e+07
1.12657e+07
8.72661e+06
6.4788e+06
4.69941e+06
3.17301e+06
2.60084e+06
2.61015e+06
2.80242e+06
3.2434e+06
3.76835e+06
4.411e+06
6.02872e+06
1.45243e+07
1.2411e+07
1.30568e+07
1.38154e+07
1.54121e+07
1.66664e+07
1.59708e+07
1.50398e+07
1.22827e+07
9.96615e+06
7.7666e+06
5.89678e+06
4.23194e+06
3.40602e+06
3.25439e+06
3.26405e+06
3.41168e+06
3.7319e+06
4.18104e+06
5.42681e+06
1.48736e+07
1.27998e+07
1.35705e+07
1.42752e+07
1.64439e+07
1.83693e+07
1.79926e+07
1.69015e+07
1.37956e+07
1.13645e+07
9.07765e+06
7.02601e+06
5.38427e+06
4.45382e+06
4.06761e+06
3.8462e+06
3.77136e+06
3.88449e+06
4.20366e+06
5.12884e+06
1.51087e+07
1.30487e+07
1.39353e+07
1.46194e+07
1.67385e+07
1.87027e+07
1.9477e+07
1.90046e+07
1.59022e+07
1.31509e+07
1.0542e+07
8.39489e+06
6.65263e+06
5.59627e+06
4.97323e+06
4.5472e+06
4.27608e+06
4.24824e+06
4.46368e+06
5.16974e+06
1.54264e+07
1.33342e+07
1.43009e+07
1.50048e+07
1.6972e+07
1.86922e+07
1.98805e+07
2.11381e+07
1.90431e+07
1.66093e+07
1.38327e+07
1.14324e+07
9.42149e+06
8.03946e+06
7.05694e+06
6.31862e+06
5.70851e+06
5.33259e+06
5.31411e+06
5.75465e+06
4.42774e+07
4.51398e+07
4.54146e+07
3.98971e+07
3.69789e+07
3.59327e+07
3.33396e+07
2.97187e+07
2.53359e+07
2.1351e+07
1.80194e+07
1.58221e+07
1.48629e+07
1.45113e+07
1.45462e+07
1.48591e+07
1.52118e+07
1.55875e+07
1.58181e+07
1.60991e+07
4.51331e+07
4.46367e+07
4.44246e+07
3.46609e+07
3.41806e+07
3.58634e+07
3.39233e+07
2.90222e+07
2.16908e+07
1.57154e+07
1.22045e+07
1.08885e+07
1.10614e+07
1.14785e+07
1.19796e+07
1.25725e+07
1.30465e+07
1.34681e+07
1.37276e+07
1.39734e+07
4.51381e+07
4.44895e+07
3.34559e+07
2.8426e+07
3.31162e+07
3.67384e+07
3.52762e+07
2.91765e+07
1.82778e+07
1.0955e+07
8.16392e+06
8.5787e+06
9.3444e+06
1.04782e+07
1.16353e+07
1.28004e+07
1.37176e+07
1.42586e+07
1.46376e+07
1.49681e+07
3.96307e+07
3.412e+07
2.81097e+07
2.44109e+07
2.83909e+07
3.72743e+07
3.72071e+07
3.2197e+07
1.74142e+07
6.16915e+06
6.53123e+06
7.35533e+06
8.52825e+06
9.99447e+06
1.167e+07
1.35946e+07
1.45963e+07
1.50514e+07
1.53596e+07
1.56534e+07
3.66899e+07
3.33824e+07
3.20393e+07
2.67766e+07
4.40022e+06
7.28436e+06
7.85316e+06
8.55981e+06
9.51733e+06
1.08052e+07
1.25718e+07
1.43309e+07
1.6157e+07
1.72401e+07
1.75336e+07
1.77338e+07
3.55629e+07
3.49857e+07
3.57673e+07
3.65744e+07
1.00999e+07
1.15329e+07
1.15702e+07
1.16937e+07
1.19858e+07
1.25356e+07
1.34821e+07
1.51608e+07
1.73021e+07
1.91411e+07
1.9596e+07
1.95528e+07
3.28569e+07
3.32852e+07
3.462e+07
3.67301e+07
1.3801e+07
1.43027e+07
1.40431e+07
1.369e+07
1.3522e+07
1.35902e+07
1.39596e+07
1.47833e+07
1.63844e+07
1.85959e+07
2.01975e+07
2.05856e+07
2.92697e+07
2.85394e+07
2.87459e+07
3.17771e+07
1.3885e+07
1.149e+07
1.20234e+07
1.24707e+07
1.2791e+07
1.31357e+07
1.36002e+07
1.42369e+07
1.53904e+07
1.72504e+07
1.94705e+07
2.17035e+07
2.50482e+07
2.15466e+07
1.83375e+07
1.78995e+07
4.31246e+06
9.87493e+06
1.33302e+07
1.32222e+07
2.21246e+06
3.59872e+06
5.37168e+06
7.203e+06
8.6485e+06
9.79502e+06
1.05221e+07
1.13977e+07
1.24028e+07
1.38507e+07
1.59765e+07
1.92262e+07
2.11662e+07
1.56828e+07
1.09816e+07
6.10417e+06
7.20219e+06
1.13342e+07
1.39204e+07
1.11245e+07
3.69929e+06
1.51881e+06
2.14354e+06
3.19647e+06
4.67495e+06
6.15641e+06
7.50324e+06
8.66264e+06
9.87922e+06
1.12569e+07
1.29953e+07
1.6483e+07
1.78684e+07
1.21716e+07
8.17744e+06
6.48444e+06
7.76354e+06
1.13669e+07
1.37084e+07
1.16676e+07
5.50911e+06
2.14431e+06
1.60978e+06
1.72325e+06
2.28904e+06
3.43079e+06
4.8874e+06
6.32726e+06
7.62114e+06
8.83987e+06
1.02881e+07
1.35339e+07
1.56702e+07
1.08364e+07
8.55938e+06
7.31495e+06
8.48216e+06
1.14939e+07
1.33779e+07
1.21354e+07
7.30141e+06
3.25752e+06
1.71717e+06
1.69292e+06
1.77773e+06
2.2725e+06
3.26337e+06
4.53223e+06
5.73836e+06
6.83312e+06
8.13997e+06
1.10775e+07
1.46243e+07
1.09423e+07
9.23966e+06
8.47242e+06
9.4353e+06
1.17892e+07
1.32959e+07
1.248e+07
8.72378e+06
4.8082e+06
2.33605e+06
1.77246e+06
1.84176e+06
1.99453e+06
2.32813e+06
3.07456e+06
4.11508e+06
5.25587e+06
6.47345e+06
9.10651e+06
1.4183e+07
1.125e+07
1.02753e+07
9.86262e+06
1.07033e+07
1.23401e+07
1.33803e+07
1.28706e+07
9.80769e+06
6.33368e+06
3.5787e+06
2.33824e+06
1.98538e+06
2.07573e+06
2.19803e+06
2.6146e+06
3.36906e+06
4.37004e+06
5.45187e+06
7.74256e+06
1.41054e+07
1.16152e+07
1.12797e+07
1.13964e+07
1.23939e+07
1.32954e+07
1.37757e+07
1.33673e+07
1.0531e+07
7.68198e+06
5.08376e+06
3.40601e+06
2.39285e+06
2.19937e+06
2.29282e+06
2.62674e+06
3.24453e+06
4.00654e+06
4.84253e+06
6.76893e+06
1.43121e+07
1.20765e+07
1.23362e+07
1.30689e+07
1.39767e+07
1.49589e+07
1.46367e+07
1.4056e+07
1.14291e+07
8.82521e+06
6.53618e+06
4.72461e+06
3.21182e+06
2.6321e+06
2.6386e+06
2.8188e+06
3.25373e+06
3.78144e+06
4.41854e+06
6.02437e+06
1.4593e+07
1.24984e+07
1.31433e+07
1.3938e+07
1.56385e+07
1.69779e+07
1.62603e+07
1.52759e+07
1.24588e+07
1.00788e+07
7.82317e+06
5.96532e+06
4.29113e+06
3.44673e+06
3.28542e+06
3.2869e+06
3.42919e+06
3.74577e+06
4.19067e+06
5.43345e+06
1.4918e+07
1.28564e+07
1.36352e+07
1.43668e+07
1.65623e+07
1.86415e+07
1.83173e+07
1.71535e+07
1.39742e+07
1.1483e+07
9.16363e+06
7.12151e+06
5.46246e+06
4.51143e+06
4.10613e+06
3.8693e+06
3.7834e+06
3.89131e+06
4.2076e+06
5.13391e+06
1.51337e+07
1.30808e+07
1.39704e+07
1.46743e+07
1.68236e+07
1.88667e+07
1.97431e+07
1.92785e+07
1.60862e+07
1.32778e+07
1.06612e+07
8.49629e+06
6.73696e+06
5.65122e+06
5.01082e+06
4.57449e+06
4.28741e+06
4.24991e+06
4.46787e+06
5.16762e+06
1.54271e+07
1.33374e+07
1.42951e+07
1.50097e+07
1.70014e+07
1.87883e+07
2.00022e+07
2.13565e+07
1.92281e+07
1.6747e+07
1.39527e+07
1.15283e+07
9.49397e+06
8.09295e+06
7.09905e+06
6.3466e+06
5.7198e+06
5.33315e+06
5.31603e+06
5.75023e+06
4.46628e+07
4.5702e+07
4.61803e+07
4.08063e+07
3.78164e+07
3.66704e+07
3.39664e+07
3.02901e+07
2.58974e+07
2.1846e+07
1.845e+07
1.62241e+07
1.52335e+07
1.48498e+07
1.48542e+07
1.51302e+07
1.5468e+07
1.58295e+07
1.60573e+07
1.63509e+07
4.5635e+07
4.5425e+07
4.53779e+07
3.56481e+07
3.4944e+07
3.65836e+07
3.45067e+07
2.95618e+07
2.22011e+07
1.6154e+07
1.25915e+07
1.12505e+07
1.14339e+07
1.18188e+07
1.22518e+07
1.27898e+07
1.3248e+07
1.36478e+07
1.38888e+07
1.41438e+07
4.58263e+07
4.53779e+07
3.46977e+07
2.92596e+07
3.38441e+07
3.74238e+07
3.58677e+07
2.96862e+07
1.87089e+07
1.13026e+07
8.5009e+06
8.9256e+06
9.70619e+06
1.083e+07
1.19036e+07
1.30583e+07
1.3943e+07
1.44746e+07
1.48168e+07
1.51144e+07
4.04625e+07
3.49378e+07
2.87029e+07
2.46624e+07
2.8948e+07
3.7967e+07
3.78216e+07
3.2794e+07
1.77264e+07
6.38098e+06
6.78951e+06
7.64807e+06
8.85202e+06
1.03264e+07
1.19746e+07
1.37591e+07
1.46834e+07
1.51443e+07
1.54705e+07
1.58187e+07
3.72968e+07
3.37439e+07
3.22547e+07
2.67873e+07
4.60673e+06
7.48742e+06
8.06749e+06
8.7938e+06
9.75536e+06
1.10509e+07
1.28093e+07
1.45201e+07
1.63088e+07
1.72527e+07
1.75245e+07
1.76986e+07
3.60407e+07
3.53743e+07
3.60403e+07
3.68416e+07
1.01206e+07
1.15362e+07
1.15924e+07
1.17394e+07
1.20515e+07
1.26326e+07
1.36433e+07
1.54449e+07
1.75419e+07
1.91949e+07
1.93787e+07
1.9328e+07
3.32118e+07
3.35447e+07
3.48435e+07
3.70041e+07
1.36637e+07
1.41786e+07
1.39348e+07
1.35749e+07
1.35227e+07
1.36212e+07
1.40448e+07
1.49674e+07
1.67664e+07
1.88313e+07
2.02628e+07
2.04844e+07
2.96217e+07
2.88056e+07
2.8953e+07
3.20802e+07
1.37075e+07
1.14726e+07
1.20037e+07
1.24708e+07
1.27975e+07
1.31654e+07
1.36506e+07
1.43736e+07
1.56815e+07
1.77523e+07
1.9866e+07
2.18868e+07
2.54006e+07
2.17679e+07
1.84467e+07
1.75595e+07
4.49214e+06
1.00815e+07
1.35709e+07
1.33954e+07
2.24197e+06
3.73515e+06
5.54207e+06
7.33812e+06
8.75238e+06
9.83476e+06
1.05737e+07
1.15001e+07
1.25867e+07
1.4276e+07
1.64916e+07