/*--------------------------------*- C++ -*----------------------------------*\
  =========                 |
  \\      /  F ield         | OpenFOAM: The Open Source CFD Toolbox
   \\    /   O peration     | Website:  https://openfoam.org
    \\  /    A nd           | Version:  9
     \\/     M anipulation  |
\*---------------------------------------------------------------------------*/
FoamFile
{
    format      ascii;
    class       volVectorField;
    location    "0.0045";
    object      rhoU;
}
// * * * * * * * * * * * * * * * * * * * * * * * * * * * * * * * * * * * * * //

dimensions      [1 -2 -1 0 0 0 0];

internalField   nonuniform List<vector> 
9720
(
(-15068.9 -15136.8 -1599.34)
(-12356 -16737 -1462.79)
(-10347.6 -17738.6 -1758.81)
(-8021.61 -17961.8 -2052.17)
(-5088.53 -18265.5 -1876.3)
(-1455 -18090.1 -1763.55)
(2209.13 -16887.5 -1730.86)
(5456.07 -15032.9 -1468.39)
(7878.3 -12362.4 -1344.07)
(8832.92 -9388.51 -958.71)
(8889.63 -6883.92 -943.204)
(8707.51 -5202.4 -806.046)
(8641.51 -4120.4 -700.232)
(8732.53 -3445.06 -703.782)
(8885.64 -2912.45 -719.864)
(9136.62 -2548.93 -672.556)
(9411.42 -2265.83 -684.321)
(9668.16 -2102.2 -727.413)
(9860.11 -1922.46 -760.097)
(10101.7 -1718.76 -770.098)
(-16571.4 -12352.9 -1413.13)
(-13663.8 -13715.1 -1246.98)
(-11881.4 -14647.1 -1514.26)
(-9920.98 -14529.4 -1642.38)
(-6233.33 -16241.9 -1749.12)
(-2195.42 -17437.4 -1712.31)
(2061.66 -16447.7 -1646.02)
(6004.07 -14131.2 -1281.53)
(8382.03 -9806.84 -1052.8)
(8189.17 -5781.45 -625.577)
(7400.96 -3393.6 -587.857)
(7143.48 -2296.86 -521.372)
(7344.91 -1763.55 -492.383)
(7539.01 -1435.76 -520.82)
(7787.64 -1289.36 -561.29)
(8055.56 -1181.76 -536.925)
(8299.87 -1085.4 -544.936)
(8494.95 -1022.48 -576.293)
(8647.67 -957.799 -615.341)
(8844.01 -883.657 -649.197)
(-17536.8 -10326.9 -1600.44)
(-14497.2 -11840.3 -1370.5)
(-12339.3 -12314.6 -1290.24)
(-10845.2 -11973.2 -1349.28)
(-6689.74 -15336.2 -1602.01)
(-2480.3 -17221 -1592.03)
(1939.74 -16586.8 -1517.92)
(6468.25 -13696.9 -1155.98)
(8254 -7665.84 -754.969)
(6505.13 -3189.87 -451.48)
(5528.42 -1719.83 -404.879)
(5991.24 -1238.72 -365.655)
(6538.8 -964.763 -431.51)
(7118.89 -739.041 -495.445)
(7704.72 -576.251 -515.476)
(8309.92 -513.587 -469.953)
(8632.49 -437.338 -438.798)
(8902.6 -395.994 -437.532)
(9065.33 -371.098 -436.308)
(9224.7 -357.111 -480.175)
(-17775 -7881.13 -1773.52)
(-14373.5 -9696.21 -1279.55)
(-11920.9 -10722.7 -1040.85)
(-10388.4 -10242.8 -1148.54)
(-8231.37 -12359.7 -1369.19)
(-4024.11 -17130.5 -1791.66)
(929.599 -17121.2 -1761.84)
(5772.45 -14967.3 -1546.01)
(8139.49 -7535.66 -889.149)
(4236.54 -1197.77 -272.08)
(4654.18 -1017.69 -326.936)
(5229.41 -833.901 -368.103)
(5975.88 -643.066 -400.513)
(6798.3 -359.846 -504.114)
(7706.83 -104.26 -621.924)
(8444.02 -49.9586 -667.561)
(8802.99 43.0692 -646.059)
(9111.89 123.494 -660.339)
(9337.22 191.532 -630.238)
(9592.73 210.765 -615.779)
(-17998.3 -4979.85 -1786.82)
(-15976.1 -6143.76 -1611.09)
(-15077.4 -6567.93 -1385.33)
(-12331 -7966.05 -1135.56)
(3482.66 -946.838 -285.452)
(4956.56 -673.126 -323.444)
(5300.56 -612.882 -375.959)
(5764.98 -533.381 -435.325)
(6382.17 -436.571 -497.405)
(7268.5 -281.298 -619.137)
(8192.6 -12.7954 -735.677)
(9057.16 366.468 -715.701)
(9632.59 580.176 -722.077)
(9834.94 683.826 -749.739)
(9977.64 763.063 -730.515)
(10092.4 771.147 -722.445)
(-17801.5 -1366.83 -1728.7)
(-17129.1 -2108.14 -1666.48)
(-16893.4 -2382 -1565.83)
(-16714 -3886.37 -1720.92)
(6442.65 -367.338 -490.155)
(7037.22 -142.168 -486.529)
(7082.18 -154.726 -513.507)
(7199.45 -138.453 -532.729)
(7445.57 -79.5892 -559.311)
(7900.45 53.8487 -609.473)
(8692.27 236.853 -707.396)
(9625.56 546.914 -727.856)
(10272.1 957.488 -761.449)
(10393.3 1175.83 -792.699)
(10481.3 1325.1 -785.353)
(10540.9 1351.52 -796.228)
(-16526.8 2253.34 -1729.74)
(-16041.2 2107.79 -1668.03)
(-16199.5 1975.84 -1558.87)
(-16765 1000.48 -1805.28)
(8014.25 363.113 -599.636)
(8204.35 648.58 -544.218)
(8062.02 656.116 -549.586)
(7908.25 656.342 -552.704)
(7911.08 668.937 -562.658)
(8065.12 748.967 -583.576)
(8460.08 923.069 -647.792)
(9239.75 1220.11 -684.394)
(10102.8 1703.6 -709.976)
(10609.2 2021.24 -784.445)
(11023.1 2149.16 -816.076)
(11177.4 2159.05 -836.072)
(-14727.5 5432.49 -1494.44)
(-13782.2 5951.85 -1328.07)
(-13330.5 6416.41 -1224.15)
(-14559.4 5721.65 -1564.63)
(7955.81 1270.7 -571.6)
(6514.51 1563.81 -402.533)
(6895.15 1563.31 -453.352)
(7138.2 1520.62 -479.866)
(7380.79 1481.87 -497.928)
(7667.14 1446.55 -506.754)
(8047.01 1501.68 -524.082)
(8692.81 1669.77 -571.205)
(9718.16 1979.13 -613.373)
(10629.2 2390.66 -658.387)
(11457 2573.19 -758.085)
(11895.6 2610.44 -803.406)
(-12074.3 7791.31 -1401.53)
(-9510.79 8234.71 -1150.01)
(-7353.57 8055.99 -881.205)
(-6865.15 7735.72 -962.207)
(-929.803 3498.69 -320.266)
(-406.991 6271.78 -501.621)
(357.233 7925.94 -605.994)
(1303.86 7639.63 -540.848)
(1042.47 1156.19 -126.183)
(2008.68 1140.07 -143.651)
(3073.97 1455.65 -249.143)
(4074.46 1733.35 -296.708)
(4879.18 1883.19 -303.675)
(5472.71 1933.97 -332.981)
(6081.43 1996 -408.941)
(6754.21 2086.82 -475.998)
(7657.42 2335.82 -521.39)
(8793.21 2775.86 -545.432)
(9754.37 3098.17 -586.406)
(10911.2 3324.2 -665.67)
(-9146.82 8702.25 -1053.17)
(-5610.75 8032.06 -752.447)
(-3094.02 6380.42 -574.483)
(-1185.89 4211.8 -324.522)
(-709.528 4883.56 -348.321)
(-176.841 6838.78 -477.596)
(636.905 7938.95 -531.188)
(1571.38 6326.61 -359.253)
(1156.02 2165.32 -152.945)
(943.115 986.866 -102.845)
(1252.2 945.461 -69.969)
(1850.74 1171.99 -99.051)
(2707.86 1541.21 -169.17)
(3569.82 1839.04 -236.199)
(4331.34 2030.84 -302.655)
(5056.92 2187.06 -349.66)
(5941.47 2395.07 -363.18)
(7038.13 2789.19 -373.5)
(8068.6 3196.63 -402.235)
(9643.7 3640.01 -505.066)
(-6706.31 8749.68 -1035.95)
(-3312.57 7284.98 -701.237)
(-1694.14 5464.18 -506.782)
(-1012.75 4624.28 -396.101)
(-656.677 5254.11 -409.269)
(-173.378 6909.55 -510.602)
(631.614 7836.65 -546.949)
(1555.78 6713.75 -413.821)
(1523.46 3292.53 -226.625)
(937.948 1310.32 -93.6476)
(903.743 932.759 -48.3599)
(1091.33 899.887 -62.9419)
(1496.38 1086.69 -107.352)
(2171.54 1442.01 -160.64)
(2912.98 1770.29 -204.766)
(3645.79 2030.72 -216.018)
(4408.14 2272.61 -256.088)
(5409.61 2607.2 -323.665)
(6401.17 3032.69 -377.168)
(8165.81 3665.5 -467.351)
(-5063.31 8555.47 -888.29)
(-2249.06 7035.84 -620.673)
(-1236.99 5913.55 -471.126)
(-843.607 5195.49 -436.994)
(-577.744 5724.27 -463.003)
(-149.322 7042.05 -535.061)
(634.056 7751.26 -562.118)
(1503.27 6967.97 -448.98)
(1786.64 4255.4 -258.844)
(1247.52 2010.8 -108.166)
(883.879 1117.79 -76.3139)
(1014.8 1035.18 -88.5787)
(1157.93 1004.3 -116.86)
(1455.43 1142.26 -114.782)
(1969.91 1434.26 -107.417)
(2619.98 1768.87 -112.569)
(3290.06 2070.22 -178.144)
(4150.31 2399.87 -275.753)
(5029.62 2804.83 -319.478)
(6770.59 3529.77 -377.368)
(-4000.54 8467.91 -772.243)
(-1721.28 7204.14 -575.741)
(-969.705 6427.32 -525.399)
(-664.895 5904.62 -474.778)
(-466.283 6332.57 -518.414)
(-87.4306 7307.91 -563.096)
(646.859 7779.88 -571.313)
(1462.15 7231.75 -471.219)
(1911.7 5010.48 -264.942)
(1625.42 2899 -149.515)
(1140.92 1601.23 -118.623)
(1004 1197.01 -122.137)
(1086.14 1106.41 -121.952)
(1224.47 1108.16 -68.7639)
(1490.84 1221.57 -41.5623)
(1942 1511.09 -73.52)
(2513.33 1835.05 -134.285)
(3219.34 2167.31 -237.313)
(3964.16 2550.11 -278.194)
(5547.09 3299.73 -314.115)
(-3335.72 8534.55 -772.958)
(-1403.83 7381.4 -599.104)
(-750.695 6985.09 -580.038)
(-415.43 6668.11 -570.432)
(-311.007 7164.59 -624.183)
(40.0515 7777 -611.879)
(726.308 7961.46 -589.737)
(1424.52 7542.52 -485.756)
(1944.21 5564.07 -299.761)
(1903.18 3748.53 -202.847)
(1529.25 2332.11 -161.356)
(1203.6 1553.26 -125.802)
(1116.53 1266.47 -73.2277)
(1231.64 1247.11 -36.6542)
(1396.6 1277.19 -50.8605)
(1666.28 1421.53 -100.862)
(2081.67 1682.12 -128.786)
(2636.07 1998.75 -208.207)
(3235.79 2355.36 -216.448)
(4596.73 3065.5 -217.545)
(-2817.66 8668.85 -782.775)
(-1257.62 7611.5 -631.86)
(-585.52 7552.96 -594.35)
(-165.972 7502.52 -669.918)
(-57.8385 8019.83 -716.495)
(206.196 8561.11 -704.824)
(897.911 8373.34 -647.323)
(1482.08 7939.87 -506.443)
(1995.14 6150.06 -382.897)
(2077.12 4493.65 -271.311)
(1854.1 3087.1 -192.425)
(1520.64 2102.67 -105.252)
(1283.34 1577.24 -47.9345)
(1289.87 1434.14 -54.8283)
(1385.82 1399.55 -92.8757)
(1584.97 1477.7 -107.046)
(1847.24 1613.08 -99.6855)
(2240.81 1851.55 -128.702)
(2699.03 2177.65 -99.768)
(3845.61 2857.8 -110.512)
(-2469.93 8914.66 -734.909)
(-1153.35 7869.25 -605.074)
(-516.011 8135.48 -545.662)
(-89.147 8214.7 -707.412)
(317.201 8830.44 -715.17)
(500.584 9431.75 -729.144)
(1181.32 9136.45 -673.384)
(1646.56 8601.46 -552.32)
(2081.09 6821.98 -454.396)
(2220.61 5209.54 -314.776)
(2102.26 3823.62 -187.836)
(1852.83 2771.75 -96.6781)
(1592.46 2063.71 -74.0687)
(1485.91 1750.59 -105.42)
(1497.29 1628.25 -112.636)
(1594.64 1605.56 -81.9735)
(1786.28 1685.68 -66.6874)
(2056.6 1837.26 -60.1857)
(2394.53 2109.75 -44.4572)
(3304.42 2692.74 -93.4897)
(-2199.95 9188.42 -741.562)
(-1059.47 8108.52 -607.283)
(-439.189 8451.73 -509.621)
(15.2087 8621.91 -686.539)
(523.274 9432.71 -742.625)
(894.555 10061.8 -774.585)
(1646.65 9930.92 -701.954)
(1941.41 9615.18 -593.389)
(2324.54 7724.84 -496.072)
(2423.59 6095.25 -326.877)
(2340.38 4599.77 -219.963)
(2153.08 3462.72 -157.433)
(1923.16 2659.47 -128.531)
(1778.72 2207.37 -131.699)
(1691.39 1940.64 -105.378)
(1713.9 1824.31 -66.6412)
(1829.34 1827.77 -41.0745)
(2044.5 1934.23 -29.0208)
(2278.47 2116 -59.8163)
(2954.13 2560.68 -124.842)
(-2044.49 9446.96 -779.495)
(-998.763 8304.09 -633.623)
(-397.764 8718.46 -505.153)
(99.8106 8936.64 -703.585)
(625.065 9653.14 -782.205)
(1110.73 10210 -815.702)
(1934.28 10449.5 -789.753)
(2318.01 10485.9 -653.336)
(2737.17 8815.76 -516.076)
(2801.03 7181.94 -335.845)
(2674.03 5617.09 -290.161)
(2491.17 4357.24 -253.268)
(2276.76 3411.18 -227.712)
(2120.59 2812.42 -206.87)
(1973.53 2385.39 -130.883)
(1924.05 2137.47 -56.4944)
(1980.8 2071.74 -27.0822)
(2099.87 2090.1 -40.4247)
(2255.13 2192.79 -110.972)
(2786.72 2557.04 -175.907)
(-1871.85 9644.43 -804.33)
(-936.458 8462.85 -664.874)
(-374.451 8885.23 -498.806)
(166.371 9175.34 -676.419)
(706.455 9814.6 -771.144)
(1258.73 10314.1 -808.727)
(2064.14 10889.2 -824.469)
(2491.82 11330.6 -748.588)
(3028.83 9765.66 -566.305)
(3181.85 8191.95 -370.282)
(3083.26 6607.06 -343.182)
(2897.75 5259.34 -292.66)
(2674.32 4191.6 -262.066)
(2497.21 3451.44 -205.136)
(2319.58 2882.06 -86.6672)
(2244.86 2534.97 -27.0987)
(2201.96 2345.6 -43.6597)
(2246.3 2295.16 -102.966)
(2348.95 2336.12 -169.454)
(2759.72 2641.69 -177.812)
(-1676.71 9902.52 -805.16)
(-865.376 8675.45 -687.839)
(-360.576 9062.5 -529.6)
(188.206 9460.49 -657.448)
(721.767 9962.18 -761.466)
(1291.93 10414 -817.01)
(2079.61 11074.7 -845.543)
(2533.47 11805.7 -793.814)
(3258.05 10904.8 -644.615)
(3605.67 9745.11 -474.872)
(3685.59 8357.41 -430.103)
(3604.71 7014.79 -345.013)
(3425.99 5820.02 -288.419)
(3222.13 4867.32 -193.151)
(3022.17 4087.71 -82.8016)
(2873.81 3525.28 -64.0761)
(2720.76 3122.96 -98.3673)
(2679.68 2912.21 -159.289)
(2741.13 2832.48 -171.47)
(2965.91 2940.09 -138.908)
(-14421.5 -14503.1 -861.375)
(-11814.9 -16055.6 -640.84)
(-9916.29 -17061.2 -714.776)
(-7736.64 -17057 -709.48)
(-4882.7 -17372.2 -797.05)
(-1432.68 -17326.7 -861.627)
(2062.92 -16170.1 -888.447)
(5154.31 -14382.7 -732.59)
(7438.45 -11779.6 -682.642)
(8305.35 -8925.94 -424.106)
(8330.68 -6518.95 -466.192)
(8122.53 -4906.18 -375.79)
(8041.65 -3880.73 -299.585)
(8095.98 -3234.9 -311.937)
(8231.48 -2733.58 -343.791)
(8478.49 -2397.54 -328.474)
(8739.33 -2136.06 -355.254)
(8972.72 -1985.07 -399.608)
(9142.14 -1818.68 -434.417)
(9346.74 -1625.75 -451.046)
(-15883.4 -11862.9 -638.633)
(-13057.1 -13186 -313.183)
(-11381.4 -14199.4 -282.023)
(-9642.84 -13793.4 -319.839)
(-5943.38 -15699.6 -796.412)
(-2083.63 -16958.2 -890.594)
(1962.25 -15979.1 -874.12)
(5713.03 -13644.2 -642.085)
(7950.83 -9434.06 -532.067)
(7724.15 -5546.06 -258.441)
(6921.19 -3242.7 -288.283)
(6644.15 -2193.26 -232.103)
(6816.27 -1678.45 -180.595)
(6986.19 -1355.64 -204.576)
(7202.55 -1204.68 -252.425)
(7472.93 -1110.19 -255.651)
(7721.31 -1026.09 -283.208)
(7912.38 -973.359 -321.592)
(8050.87 -919.257 -363.634)
(8214.94 -851.862 -397.813)
(-16869.1 -9934.28 -673.256)
(-13995.3 -11439.3 -251.613)
(-11339.4 -11472.8 218.367)
(-10171.2 -11368.4 -406.372)
(-6378.59 -15189.3 -940.704)
(-2319.03 -17062.3 -977.365)
(1944.03 -16284.2 -884.661)
(6238.11 -13414.6 -637.068)
(7858.49 -7424.68 -348.308)
(6174.92 -3083.35 -194.074)
(5130.86 -1639.55 -199.681)
(5544.38 -1195.26 -181.354)
(6037.99 -926.879 -188.168)
(6559.03 -721.253 -189.281)
(7080.56 -551.747 -184.092)
(7693.64 -491.408 -157.102)
(8052.05 -430.194 -162.036)
(8323.52 -393.398 -184.153)
(8496.5 -371.906 -213.306)
(8653.6 -364.208 -275.183)
(-16941.6 -7613.44 -554.055)
(-13609.8 -9510.21 -86.1481)
(-11228.6 -10291.5 -268.582)
(-9775.6 -9974.29 -525.298)
(-7862.94 -12560.4 -941.4)
(-3829.72 -17134.7 -1180.27)
(933.919 -17053.9 -1144.98)
(5535.53 -14804.5 -938.145)
(7753.91 -7414.58 -346.426)
(4027.28 -1132.75 -80.9152)
(4369.96 -944.546 -129.417)
(4862.34 -778.795 -171.632)
(5524.79 -603.69 -173.013)
(6248.61 -375.224 -204.244)
(7077.04 -119.223 -304.199)
(7813.2 -57.3774 -356.681)
(8266.16 12.6419 -375.475)
(8555.44 84.8793 -398.57)
(8779.22 147.644 -388.321)
(9036.47 162.777 -392.55)
(-17141.5 -4807.48 -736.705)
(-15294 -5893.31 -685.436)
(-14630.7 -6271.81 -816.573)
(-11880.7 -7719.27 -695.503)
(3247.62 -907.38 -144.728)
(4729.64 -655.839 -211.518)
(5034.66 -599.878 -239.018)
(5443.03 -526.265 -271.904)
(5981.15 -428.248 -298.239)
(6728.59 -278.351 -348.278)
(7604.98 -70.4601 -368.148)
(8379.68 299.114 -312.745)
(9097.38 526.005 -369.421)
(9320.74 620.696 -428.731)
(9492.44 693.744 -465.496)
(9634.2 700.789 -505.18)
(-17054.4 -1370.55 -842.745)
(-16582.5 -2051.02 -880.604)
(-16602.1 -2280.76 -991.735)
(-16640.8 -3762.29 -1169.61)
(6293.27 -392.565 -353.254)
(6784.06 -161.8 -342.769)
(6787.64 -168.911 -344.628)
(6852.01 -149.71 -345.161)
(7030.7 -96.7304 -347.706)
(7394.61 21.7487 -367.415)
(8048.59 184.528 -376.059)
(8941.17 448.821 -269.3)
(9623.32 838.157 -331.999)
(9949.31 1053.26 -454.208)
(10038.2 1212.73 -514.312)
(10122.3 1247.25 -567.182)
(-15815 2081.61 -918.428)
(-15571.1 1947.66 -934.595)
(-15908.6 1890.23 -942.327)
(-16677 970.014 -1181.32)
(7912.04 320.66 -448.285)
(7961.33 605.745 -392.787)
(7776.98 605.372 -374.732)
(7543.58 599.35 -356.205)
(7513.22 604.539 -346.269)
(7595.45 663.632 -340.358)
(7882.7 803.562 -364.243)
(8533.64 1037.3 -322.466)
(9418.71 1482.46 -214.461)
(9912.5 1838.68 -316.336)
(10453.3 1994.55 -437.863)
(10635.6 2012.13 -504.3)
(-14050.4 5100.58 -779.232)
(-13318.3 5625.53 -732.058)
(-13081.2 6134.66 -761.881)
(-14392.2 5454.98 -1003.33)
(7815.89 1199.09 -422.044)
(6277.03 1470.29 -270.776)
(6584.16 1457.19 -285.123)
(6778.01 1413.2 -283.916)
(6953.93 1368.05 -288.553)
(7183.44 1325.23 -279.751)
(7481.93 1349.27 -266.414)
(7988.31 1475.81 -267.111)
(8883.99 1729.14 -237.571)
(9797.23 2101.39 -160.104)
(10594.3 2355.99 -281.326)
(11220.8 2437.39 -372.059)
(-11478.4 7311.68 -748.492)
(-9168.07 7764.53 -655.899)
(-7157.08 7635.73 -532.127)
(-6970.59 7513.33 -467.113)
(-908.19 3332.85 -173.323)
(-443.311 6086.92 -349.764)
(286.4 7682.83 -426.954)
(1191.66 7324.31 -375.074)
(975.058 1104.45 -72.3039)
(1887.84 1042.94 -102.498)
(2876.51 1327.83 -152.058)
(3800.87 1572.84 -163.623)
(4550.4 1712.63 -167.508)
(5094.16 1758.56 -182.056)
(5601.2 1797.53 -220.764)
(6166.7 1860.2 -235.17)
(6924.18 2040.61 -224.185)
(7977.7 2409.74 -160.848)
(8905.29 2770.59 -150.581)
(10149.1 3036.48 -237.891)
(-8669.42 8131.42 -509.296)
(-5371.59 7504.53 -378.665)
(-2982.04 5988.64 -319.652)
(-1126.22 3995.66 -143.933)
(-702.387 4693.11 -227.616)
(-208.396 6667.85 -332.094)
(564.178 7751.86 -372.384)
(1462.68 6096.61 -247.761)
(1055.56 2042.62 -99.9526)
(817.73 857.953 -69.8987)
(1136.66 846.361 -22.757)
(1678.89 1040.38 -36.2661)
(2456.66 1367.54 -91.9302)
(3248.28 1640.49 -124.478)
(3936.04 1814.49 -137.447)
(4569.17 1938.04 -163.961)
(5345.34 2103.48 -156.405)
(6329.91 2429.37 -103.048)
(7290.54 2816.08 -65.2651)
(8834.37 3274.76 -116.355)
(-6321.82 8143 -540.419)
(-3140.93 6717.16 -371.868)
(-1604.72 4976.53 -266.175)
(-947.513 4314.57 -171.5)
(-649.024 4984.26 -246.476)
(-204.666 6660.04 -327.055)
(556.979 7568.71 -358.218)
(1437.15 6403.52 -260.522)
(1383.97 3075.08 -114.133)
(825.474 1169.85 -35.0923)
(779.838 801.646 -10.0834)
(945.727 766.792 -38.9392)
(1306.63 932.992 -48.2855)
(1895.52 1237.72 -52.6353)
(2575.79 1536.64 -66.1063)
(3254.2 1778.37 -83.7677)
(3939.23 1993.17 -124.038)
(4828.2 2273.85 -131.525)
(5712.28 2648.85 -112.582)
(7377.67 3257.32 -128.422)
(-4755.9 7932.08 -434.824)
(-2125.17 6453 -286.599)
(-1182.83 5383.32 -223.109)
(-796.609 4766.18 -183.571)
(-576.49 5360.87 -258.752)
(-181.411 6708.52 -321.528)
(549.037 7371.76 -342.945)
(1386.22 6605.92 -263.713)
(1619.49 3969.6 -115.637)
(1086.88 1799.46 -32.1384)
(753.364 965.662 -44.7643)
(875.293 893.329 -44.2767)
(990.158 859.425 -37.7452)
(1235.63 955.574 -28.7028)
(1717.58 1228 -30.1277)
(2313.63 1543.03 -37.7859)
(2915.83 1812.75 -79.6905)
(3671.42 2088.08 -115.303)
(4433.63 2438.19 -86.487)
(6043.3 3103.16 -74.1833)
(-3759.15 7850.35 -352.198)
(-1628.61 6645.97 -228.229)
(-925.371 5870.87 -210.505)
(-639.712 5395.97 -158.739)
(-467.932 5871.99 -260.144)
(-127.627 6885.75 -318.161)
(553.039 7357.3 -329.834)
(1334.39 6789.64 -273.141)
(1734.67 4666.28 -123.405)
(1436.6 2620.33 -62.7951)
(971.109 1384.85 -50.4947)
(851.426 1013.38 -40.2174)
(915.113 929.884 -43.9343)
(1049.26 942.796 -25.7243)
(1295.54 1051.72 0.5313)
(1693.78 1305.53 -6.23217)
(2184.43 1579.05 -22.4826)
(2783.57 1852.39 -68.6787)
(3434.77 2177.11 -70.6157)
(4925.82 2880.91 -67.9095)
(-3129.12 7892.24 -363.591)
(-1325.45 6830.31 -257.564)
(-733.052 6421.55 -223.943)
(-444.409 6118.48 -177.461)
(-322.328 6593.03 -278.614)
(-17.327 7259.52 -323.155)
(615.095 7466.49 -317.95)
(1290.06 7039.22 -260.447)
(1761.26 5168.08 -142.026)
(1699.58 3413.01 -86.0546)
(1313.45 2033.2 -45.25)
(999.245 1310.56 -31.066)
(948.282 1080.03 -26.8617)
(1055.72 1068.15 -6.63728)
(1207.06 1102.21 8.44044)
(1427.74 1211.6 -9.06349)
(1766.14 1404.01 -10.078)
(2245.07 1674.75 -62.256)
(2812.09 2011.25 -70.2146)
(4102.56 2696.87 -46.2443)
(-2643.74 8012.69 -393.544)
(-1181.6 7037.12 -305.75)
(-572.723 6948.62 -230.144)
(-195.6 6903.75 -284.45)
(-123.107 7443.88 -282.711)
(131.275 7933.64 -313.383)
(756.171 7782.66 -327.572)
(1315.9 7366.54 -238.088)
(1791.12 5660.85 -183.012)
(1859.85 4092.23 -100.411)
(1620.22 2741.64 -45.3085)
(1307.74 1839.83 -17.9396)
(1108.75 1371.69 -1.87955)
(1113.2 1237.08 5.30695)
(1196.9 1205.97 -4.82724)
(1352.28 1248.81 -4.1458)
(1586.97 1364.95 8.04493)
(1954.94 1590.94 -25.3967)
(2388.97 1902.66 -9.84115)
(3447.23 2529.65 15.3659)
(-2326.21 8257.98 -379.109)
(-1091.43 7296.74 -309.586)
(-507.084 7541.58 -215.689)
(-105.753 7624.85 -355.444)
(247.972 8209.1 -273.716)
(384.762 8796.75 -227.645)
(991.743 8454.76 -267.878)
(1446.68 7910.55 -229.597)
(1853.78 6237.03 -198.178)
(1977.02 4726.08 -117.759)
(1860.32 3442.33 -44.0672)
(1635.51 2471.79 -13.1119)
(1398.61 1822.8 -3.52756)
(1271.29 1502.27 -11.2792)
(1276.14 1395.46 -8.34675)
(1358.84 1365.39 13.285)
(1540.99 1445.16 16.5517)
(1819.34 1610.7 4.20667)
(2128.57 1860.68 25.6612)
(2947.35 2379.66 24.9326)
(-2077.14 8518.17 -401.492)
(-1008.73 7537.39 -333.285)
(-443.306 7884.53 -223.944)
(-23.0752 8102.24 -387.462)
(461.91 8915.55 -362.733)
(757.131 9471.68 -321.127)
(1433.61 9303.51 -178.07)
(1696.3 8831.44 -189.158)
(2037.01 7020.37 -180.914)
(2144.2 5521.62 -105.733)
(2079.98 4157.12 -74.6901)
(1916.25 3114.08 -50.712)
(1693.34 2356.97 -11.3921)
(1509.65 1892.58 -4.82819)
(1438.7 1670.13 8.14162)
(1489.43 1588.83 18.6563)
(1605.2 1601.25 24.6954)
(1794.81 1694.24 35.0218)
(1987.29 1843.13 31.0029)
(2575.4 2220.65 7.31357)
(-1933.26 8753.21 -441.353)
(-956.623 7725.55 -367.907)
(-404.544 8152.09 -245.713)
(54.7034 8396.34 -419.642)
(550.734 9137.45 -438.68)
(986.719 9762.02 -448.609)
(1749.06 9797.28 -306.768)
(2052.26 9712.49 -128.987)
(2396.92 8068.53 -114.141)
(2463.37 6523.91 -52.3382)
(2363.2 5081.34 -88.0395)
(2207.92 3921.74 -88.1125)
(1994.42 3011.66 -52.1435)
(1815.61 2429.44 -50.7774)
(1711.91 2090.13 -17.9632)
(1707.66 1908.81 9.89174)
(1742.59 1822.52 34.2579)
(1839.75 1824.68 42.7112)
(1966.52 1902.66 -0.32076)
(2422.92 2206.25 -36.39)
(-1772.51 8927.61 -469.514)
(-903.224 7867.27 -403.277)
(-382.784 8321.02 -269.631)
(117.197 8623.36 -417.115)
(624.463 9307.68 -486.546)
(1149.18 9856.11 -510.381)
(1911.09 10348.2 -426.261)
(2287.8 10533.3 -262.48)
(2730.65 8976.84 -121.069)
(2832.06 7481.56 -23.4991)
(2731.7 5986.44 -71.3157)
(2565.36 4725.07 -54.9453)
(2333.89 3702.41 -47.6101)
(2169.59 3037.58 -48.5353)
(2048.96 2568.18 10.7881)
(1999.72 2270.75 43.4792)
(1942.37 2064.03 45.5055)
(1959.57 1998.62 7.35752)
(2030.81 2016.21 -38.9913)
(2389.04 2276.82 -39.153)
(-1586.49 9148.67 -478.704)
(-836.566 8044.6 -428.019)
(-372.024 8484.26 -317.307)
(137.571 8892.47 -420.164)
(639.457 9456.45 -524.418)
(1185.32 9957.86 -562.576)
(1938.98 10549.7 -496.65)
(2361.76 11158.8 -350.58)
(2985.47 10197.2 -208.831)
(3270.18 9008.97 -80.3891)
(3316.98 7651.97 -88.9063)
(3218.59 6358.36 -40.3824)
(3036.44 5238.41 -37.5357)
(2869.96 4388.6 -15.4855)
(2704.45 3695.47 45.6757)
(2566.84 3172.69 54.8543)
(2396.35 2753.13 34.4071)
(2328.34 2536.48 -17.3832)
(2373.62 2456.9 -29.6204)
(2584.89 2559.24 -7.64819)
(-14409.9 -14358.1 -601.329)
(-11836.1 -15883.2 -397.023)
(-10016.4 -16983.5 -395.494)
(-7913.64 -16834.2 -349.704)
(-4826.56 -17106.6 -484.405)
(-1448.25 -17186.1 -564.517)
(1985.91 -16035.9 -578.722)
(5033.85 -14235 -497.745)
(7255.98 -11642.6 -443.979)
(8074.77 -8817.85 -237.212)
(8091.44 -6444.52 -290.88)
(7869.04 -4852.97 -227.127)
(7806.06 -3863.71 -163.073)
(7864.13 -3234.63 -170.209)
(8002.57 -2753.19 -203.844)
(8238.85 -2429.12 -210.177)
(8489.66 -2169.72 -236.586)
(8717.73 -2022.14 -272.383)
(8880.27 -1861.05 -302.627)
(9064.59 -1668.04 -317.585)
(-15868.1 -11775.1 -403.105)
(-13054.7 -13018.2 -94.7609)
(-11443.4 -14162.7 8.81315)
(-9756.41 -13444.4 -18.593)
(-5837.16 -15506.4 -421.725)
(-2038.95 -16775.4 -524.4)
(1903.31 -15822.8 -529.261)
(5612.11 -13489.9 -419.504)
(7753.59 -9284.58 -317.211)
(7531.8 -5472.08 -85.7815)
(6735.76 -3215.99 -147.569)
(6414.03 -2186.31 -115.429)
(6613.57 -1695.45 -67.2141)
(6806.75 -1373.85 -81.6949)
(7016.9 -1208.49 -126.904)
(7287.63 -1133.79 -146.386)
(7537.87 -1061.23 -177.574)
(7735.22 -1016.48 -211.67)
(7867.4 -966.404 -249.032)
(8007.1 -896.703 -277.643)
(-16803.2 -9947.47 -404.384)
(-14015.8 -11390 -61.6074)
(-10940 -10955.2 373.377)
(-9786.31 -10942.9 -118.154)
(-6316.64 -14963.9 -444.031)
(-2223.63 -16812.8 -529.118)
(1962.15 -16062.5 -494.857)
(6130 -13195.3 -367.314)
(7595.7 -7192.39 -167.943)
(6074.49 -3024.47 -59.6397)
(5010.94 -1609.21 -88.8623)
(5360.1 -1185.44 -75.8723)
(5806.32 -919.92 -61.9705)
(6345.2 -739.619 -62.3186)
(6854.26 -573.338 -69.7093)
(7452.87 -530.035 -52.9471)
(7866.26 -491.497 -67.6743)
(8138.07 -464.773 -93.6257)
(8322.45 -441.389 -131.436)
(8483.5 -428.24 -188.924)
(-16608.4 -7772.32 -346.272)
(-13099 -9564.2 -101.451)
(-10703.8 -9713.09 -250.741)
(-9424.37 -9554.69 -310.796)
(-7613.09 -12241.9 -354.14)
(-3718.85 -16910.9 -667.976)
(927.818 -16841 -673.094)
(5389.78 -14490.2 -504.13)
(7372.4 -7109.65 -188.695)
(3956.46 -1120.54 -16.7406)
(4265.6 -876.001 -30.0158)
(4745.64 -711.492 -57.2808)
(5384.34 -536.547 -45.8823)
(6099.96 -360.74 -41.4281)
(6907.78 -126.528 -142.183)
(7693.49 -27.2435 -212.66)
(8166.39 -7.42343 -249.192)
(8430.53 22.5672 -276.948)
(8634.19 60.8043 -279.062)
(8856.51 69.333 -289.722)
(-16867.8 -4837.53 -493.991)
(-15074.3 -5815.01 -508.494)
(-14443.5 -6178.69 -594.345)
(-11450.1 -7476.33 -442.056)
(2913.28 -840.412 -113.127)
(4470.58 -639.041 -144.652)
(4800.39 -611.51 -155.477)
(5232.67 -567.229 -172.495)
(5786.44 -488.019 -174.555)
(6524.87 -328.117 -196.548)
(7449.9 -110.701 -224.263)
(8249.46 247.758 -195.584)
(9064.94 510.163 -262.052)
(9379.5 580.539 -312.705)
(9522.23 629.412 -355.605)
(9627.32 622.168 -396.362)
(-16907.7 -1460.2 -531.979)
(-16352.2 -2056.16 -502.44)
(-16359.9 -2207.37 -541.769)
(-16554.7 -3667.37 -700.507)
(5862.12 -379.652 -238.251)
(6459.66 -190.562 -210.37)
(6485.27 -188.788 -202.287)
(6563.27 -171.076 -203.477)
(6755.02 -130.016 -202.917)
(7126.98 -36.8529 -219.522)
(7778.21 134.86 -241.575)
(8791.29 375.091 -149.094)
(9643.17 705.58 -189.001)
(10206.4 928.065 -347.927)
(10263.7 1094.11 -429.059)
(10263.5 1136.34 -476.749)
(-15732.1 1921.88 -589.361)
(-15474.9 1793.66 -542.824)
(-15728.7 1857.36 -485.791)
(-16449.6 926.409 -665.587)
(7522.34 296.663 -299.676)
(7677.69 537.715 -235.808)
(7524.33 527.254 -237.271)
(7335.78 529.078 -225.321)
(7331.27 533.485 -221.06)
(7417.85 573.866 -208.446)
(7697.43 683.456 -218.518)
(8306.64 886.968 -215.478)
(9319.79 1272.71 -114.642)
(10025.8 1650.86 -138.439)
(10635.1 1877.15 -343.766)
(10742.6 1891.28 -408.267)
(-13912.3 4910.88 -499.781)
(-13174.5 5439.56 -422.336)
(-12948.6 5953.01 -388.776)
(-14171.1 5279.84 -581.688)
(7435.34 1148.53 -254.337)
(6080.07 1373.01 -132.73)
(6333.65 1355.81 -149.283)
(6546.02 1320.76 -166.697)
(6721.61 1281.83 -169.718)
(6958.43 1247.15 -175.069)
(7261.61 1245.81 -165.565)
(7731.73 1337.86 -160.85)
(8554.09 1551.53 -152.563)
(9608.77 1889.86 -67.8335)
(10463.2 2208.23 -131.412)
(11294.5 2314.98 -270.457)
(-11371.1 7082.26 -500.038)
(-9096.01 7525.32 -405.686)
(-7103.91 7364.64 -288.54)
(-7019.25 7177.54 -373.065)
(-860.53 2934.5 -135.222)
(-437.308 5903.98 -234.456)
(252.445 7541.98 -287.995)
(1117.88 7205.78 -269.072)
(993.941 920.099 -45.7382)
(1832.36 961.839 -57.2061)
(2780.88 1231.07 -54.615)
(3664.15 1455.38 -50.7881)
(4392.86 1600.53 -85.3953)
(4951.51 1656.2 -108.682)
(5411.38 1683.18 -125.836)
(5952.86 1729.05 -136.592)
(6624.8 1855.75 -131.014)
(7629.88 2151.31 -91.1688)
(8653.99 2547.1 -62.4095)
(10051.4 2874.39 -156.419)
(-8589.12 7868.97 -323.655)
(-5327.01 7265.09 -191.172)
(-2960.4 5801.35 -148.666)
(-1160.6 3792.15 -86.5531)
(-659.482 4420.86 -129.782)
(-214.653 6463.4 -198.057)
(514.53 7584.68 -222.074)
(1367.7 5906.82 -140.858)
(964.402 1847.54 -77.3907)
(702.23 718.539 -48.6223)
(1057.35 753.792 -7.14348)
(1585.57 948.815 1.62499)
(2318.16 1249.3 -50.1668)
(3075.04 1507.83 -75.3256)
(3775.11 1693.19 -62.6463)
(4384.59 1808.32 -60.2147)
(5083.94 1946.14 -92.5302)
(5975.38 2181.58 -61.2513)
(6965.43 2558.93 -27.864)
(8623.59 3070.3 -59.5048)
(-6256.83 7862.84 -375.664)
(-3114.89 6447.56 -234.149)
(-1576.9 4718.68 -137.104)
(-938.198 4089.59 -60.4507)
(-623.331 4725.63 -145.619)
(-220.199 6479.01 -193.416)
(504.532 7431.78 -216.637)
(1355.49 6207.94 -158.556)
(1274.42 2868.91 -70.0386)
(742.171 1053.23 -4.84763)
(698.439 702.757 -6.86492)
(839.087 659.687 -46.4156)
(1168.71 815.037 -35.3493)
(1737.12 1105.47 -7.16196)
(2429.04 1419 -7.41352)
(3103.48 1660.54 -25.7939)
(3739.98 1850.32 -78.8479)
(4529.2 2072.88 -111.026)
(5379.39 2399.32 -76.624)
(7069.04 3009.37 -76.5062)
(-4696.36 7624.14 -309.507)
(-2114.73 6140.73 -201.541)
(-1185.91 5082.3 -136.668)
(-803.841 4542.31 -73.421)
(-578.084 5104.96 -155.352)
(-205.788 6531.13 -195.099)
(504.111 7234.58 -200.354)
(1316.64 6450.99 -170.831)
(1513.65 3798.64 -51.6817)
(984.999 1661.04 2.88151)
(655.045 842.246 -42.9967)
(768.507 772.386 -45.538)
(883.342 753.416 4.26809)
(1118.66 852.098 11.6112)
(1574.23 1108.73 -13.5417)
(2161.59 1417.91 -34.5484)
(2738.19 1667.69 -57.264)
(3418.76 1912.88 -90.9138)
(4150.73 2212.32 -40.3695)
(5721.85 2843.1 -20.6847)
(-3731.43 7551.23 -244.014)
(-1639.66 6358.47 -152.469)
(-932.178 5574.15 -135.786)
(-647.4 5162.54 -81.7765)
(-495.427 5610.45 -159.776)
(-172.216 6691.82 -197.739)
(506.875 7226.43 -195.991)
(1272.26 6639.48 -160.112)
(1645.8 4530.49 -72.6826)
(1324.84 2463.36 -37.7762)
(850.13 1222.65 -32.5775)
(754.994 891.517 2.96071)
(824.548 824.125 6.61657)
(941.904 829.661 -19.3586)
(1151.77 922.223 -13.3849)
(1511.69 1143.55 -9.29703)
(1996.16 1413.82 3.14002)
(2575.73 1691.97 -13.8455)
(3190.46 1977.41 -21.3512)
(4610.26 2617.83 -26.8719)
(-3123.8 7601.09 -244.505)
(-1344.69 6587.96 -159.007)
(-770.325 6150.78 -134.493)
(-495.753 5881.71 -107.662)
(-360.635 6303.25 -195.696)
(-91.6957 7036.45 -216.346)
(544.507 7312.14 -188.029)
(1231.63 6893.73 -160.021)
(1683.75 5066.37 -89.8058)
(1588.71 3252.57 -55.5884)
(1189.32 1866.01 -3.09657)
(899.185 1179.62 10.2145)
(838.509 952.759 -18.6528)
(931.942 934.602 -23.7314)
(1064.25 960.794 3.5059)
(1280.66 1074.83 12.4968)
(1617.08 1268.71 26.287)
(2068.8 1529.18 -10.5796)
(2594.07 1821.64 -43.5959)
(3808.41 2442.19 -33.6915)
(-2662.86 7738.69 -267.336)
(-1199.24 6817.6 -188.825)
(-617.907 6690.57 -125.53)
(-243.978 6668.27 -181.07)
(-199.215 7217.72 -221.581)
(55.6643 7657.26 -232.228)
(647.739 7596 -203.493)
(1222.33 7208.39 -151.997)
(1699.75 5514.23 -112.988)
(1762.75 3960 -43.7461)
(1518.88 2610.73 8.39919)
(1197.69 1698.92 0.810981)
(976.898 1213.33 -9.78359)
(972.267 1081.41 2.14788)
(1066.62 1069.37 12.046)
(1228.49 1125.88 26.4028)
(1475.83 1251.37 43.4858)
(1824.72 1457.97 4.21341)
(2226.99 1730.4 -7.28795)
(3202.68 2292.58 11.3907)
(-2357.46 7982.42 -266.615)
(-1124.28 7087.87 -199.325)
(-566.275 7288.22 -110.133)
(-125.868 7492.01 -236.548)
(138.467 8027.77 -180.986)
(255.036 8628.79 -148.776)
(838.313 8208.06 -199.36)
(1312.81 7686.13 -149.103)
(1736.82 6049.27 -129.424)
(1869.35 4578.08 -44.6336)
(1760.97 3318.63 0.349099)
(1521.2 2326.9 -9.31536)
(1241.91 1632.69 -5.25717)
(1117.96 1328.16 7.40119)
(1155.22 1262.45 21.4608)
(1240.71 1241.97 41.908)
(1418.4 1316.26 37.408)
(1691.65 1467.95 9.40225)
(1971.14 1686.33 19.2564)
(2730.53 2159.29 29.0829)
(-2110.69 8241.88 -284.044)
(-1048.71 7337.69 -221.735)
(-519.312 7707.63 -124.77)
(-86.7941 8023.57 -271.943)
(401.707 8852.39 -246.329)
(573.73 9469.38 -195.966)
(1204.44 9200.55 -108.955)
(1517.87 8513.53 -139.357)