/*--------------------------------*- C++ -*----------------------------------*\
  =========                 |
  \\      /  F ield         | OpenFOAM: The Open Source CFD Toolbox
   \\    /   O peration     | Website:  https://openfoam.org
    \\  /    A nd           | Version:  9
     \\/     M anipulation  |
\*---------------------------------------------------------------------------*/
FoamFile
{
    format      ascii;
    class       volScalarField;
    location    "0.0045";
    object      T;
}
// * * * * * * * * * * * * * * * * * * * * * * * * * * * * * * * * * * * * * //

dimensions      [0 0 0 1 0 0 0];

internalField   nonuniform List<scalar> 
9720
(
1294.74
1304.46
1309.17
1294.5
1280.13
1270.62
1257.36
1236.08
1208.4
1186.76
1170.71
1161.1
1155.18
1150.69
1150.08
1149.42
1148.03
1145.34
1141.85
1135.17
1303.63
1313.04
1316.24
1281.81
1267.7
1270.55
1261.19
1232.25
1184.95
1147.13
1122.33
1115.67
1118.3
1120.87
1122.52
1122.45
1121.49
1118.78
1115.21
1108.58
1307.41
1314.8
1312.59
1258.9
1254.36
1270.44
1267.36
1234
1169.5
1120.89
1095.74
1100.11
1111.22
1122.83
1130.76
1133.41
1132.57
1129.55
1124.78
1115.97
1293.41
1280.54
1257.84
1225.5
1230.98
1274.58
1279.78
1259.04
1172.13
1047.56
1051.69
1064.47
1085.52
1110.89
1131.48
1138.39
1137.77
1135.52
1132.04
1124.8
1278.93
1265.81
1251.11
1229.01
1015.96
1035.62
1045.36
1057.34
1073.47
1097.29
1123.37
1143.17
1148.58
1147.55
1144.62
1136.5
1268.37
1267.08
1266.36
1271.11
1054.01
1063.6
1065.3
1068.45
1074.66
1085.56
1105.75
1132.99
1146.54
1146.49
1144.73
1138.17
1254.37
1257.03
1263.01
1275.85
1078.92
1077.3
1074.12
1071.34
1072.13
1075.9
1085.27
1104.71
1127.7
1140.36
1144.28
1142.33
1233.02
1228.37
1229.11
1254.33
1071.59
1041.48
1047.29
1050.8
1053.95
1058.73
1066.23
1079.37
1101.38
1122.6
1137.43
1140.58
1205.39
1181.16
1164.97
1162.27
1014.78
1053.74
1079.12
1067.97
961.288
966.744
985.602
998.373
1007.66
1015.35
1024.97
1038.44
1058.04
1082.63
1103.56
1120.54
1183.83
1143.95
1118.36
1047.7
1035.37
1063.12
1075.7
1038.21
966.374
954.683
956.364
962.914
973.676
985.544
996.819
1008.36
1024.37
1046.69
1068.22
1096.02
1167.95
1120.05
1094.86
1052.6
1045.84
1065.1
1072.87
1045.17
986.834
958.213
939.237
941.447
952.516
966.939
978.269
987.395
998.106
1015.85
1035.53
1069.6
1158.63
1114.26
1099.14
1065.55
1058.22
1068.45
1071.24
1049.82
1000.63
966.97
943.801
939.139
942.499
951.662
963.187
972.834
981.797
995.972
1012.45
1047.3
1152.73
1116.87
1109.94
1085.69
1074.35
1074.93
1072.41
1053.76
1010.46
978.38
957.271
945.435
943.77
945.283
952.508
963.335
974.1
986.516
998.644
1029
1148.22
1119.33
1121.88
1109.63
1097.09
1086.03
1076.66
1059.17
1018.43
990.083
972.476
957.884
947.324
947.489
952.46
962.111
972.815
983.214
991.325
1016.47
1147.59
1120.63
1129.64
1128.9
1121.88
1106.09
1086.38
1067.1
1028.27
1001.38
983.769
969.589
956.929
954.362
956.84
963.811
972.148
980.85
987.341
1009.54
1146.95
1120.39
1131.56
1136.27
1141.42
1132.26
1105.58
1080.57
1042
1013.11
992.975
978.684
968.43
965.664
966.385
968.687
973.147
979.57
985.515
1005.97
1145.59
1119.26
1130.61
1135.97
1147.44
1145.34
1127.27
1102.26
1061.52
1029.25
1003.99
987.607
979.32
977.525
976.591
975.46
976.374
980.464
985.63
1003.34
1142.97
1116.5
1127.55
1134.2
1146.56
1145.35
1139.49
1122.44
1085.02
1051.12
1021.76
1001.97
992.421
989.035
986.256
983.465
982.481
983.785
986.847
1003.36
1139.59
1113.03
1122.9
1131.07
1143.79
1143.76
1143.8
1137.18
1105.12
1071.81
1040.95
1018.5
1005.17
997.956
993.143
990.513
988.486
988.555
991.503
1005.4
1133.21
1106.73
1114.4
1124.11
1135.83
1137.7
1142.16
1140.72
1121.74
1098.71
1073.81
1052.67
1035.52
1023.22
1015.35
1011.58
1008.44
1007.46
1008.35
1013.06
1287.51
1297.5
1302.06
1283.15
1268.28
1260.41
1247.67
1226.72
1198.5
1176.75
1160.27
1150.39
1144.56
1139.71
1139.2
1138.92
1137.73
1134.96
1131.32
1124.35
1296.88
1305.85
1309.26
1269.39
1255.91
1261.51
1252.96
1224.08
1176.33
1138.62
1113.22
1105.23
1107.55
1110.31
1112.3
1112.64
1112.02
1109.48
1105.8
1098.77
1300.88
1308.35
1292.81
1244.71
1246.74
1264.25
1260.42
1226.76
1161.86
1113.74
1086.7
1089.8
1099.34
1111.09
1119.53
1124.05
1123.65
1121.2
1116.81
1108.07
1283.61
1269
1243.01
1212.61
1228.84
1268.66
1273.07
1251.51
1164.81
1041.27
1044.14
1055.04
1073.84
1097.37
1119.33
1129.57
1129.55
1127.8
1124.61
1117.59
1267.91
1253.82
1241.17
1218.06
1008.05
1027.73
1037.25
1048.57
1063.22
1084.35
1110.2
1130.98
1140.48
1140.17
1138.04
1130.74
1258.19
1257.72
1259.69
1264.71
1046.58
1055.06
1056.08
1058.35
1063.6
1073.06
1090.47
1117.2
1135.73
1138.55
1137.68
1132.25
1244.53
1248.81
1256.31
1269.24
1072.04
1068.66
1064.85
1060.44
1060.57
1063.07
1070.37
1087.18
1111.23
1126.23
1134.57
1133.7
1223.15
1219.8
1222.36
1247.3
1063.93
1031.67
1036.13
1039.07
1041.45
1045.25
1051.45
1062.25
1082.06
1104.33
1121.45
1129.57
1194.75
1172.04
1157.57
1158.61
1005.8
1045.86
1071.65
1058.43
971.698
965.163
976.737
986.969
995.356
1001.95
1009.63
1020.97
1038.25
1062.22
1084.42
1105.82
1172.85
1134.03
1109.51
1040.09
1026.76
1055.39
1067.37
1027.51
963.644
958.345
953.945
956.417
962.871
971.826
981.071
991.212
1005.98
1027.05
1048.38
1078.55
1156.77
1108.71
1082.49
1042.7
1036.19
1056.05
1063.51
1033.27
977.767
955.204
935.865
937.697
944.787
954.626
964.199
972.594
982.033
997.792
1015.72
1050.58
1147.79
1102.59
1085.96
1052.88
1047.2
1057.98
1059.58
1037.29
989.429
959.229
938.902
932.146
933.518
941.109
953.109
961.481
967.968
979.14
993.095
1027.98
1142.24
1105.42
1096.46
1071.14
1061.6
1063.19
1060.06
1040.4
998.136
967.101
948.008
935.114
934.998
937.349
944.034
952.618
959.982
968.802
979.729
1011.37
1137.3
1108.5
1109.76
1094.89
1082.53
1072.91
1063.15
1044.92
1004.84
976.673
959.648
946.206
939.528
939.515
942.853
949.763
958.625
968.797
977.482
1002.6
1136.62
1110.3
1118.46
1115.96
1108.17
1090.94
1071.18
1051.9
1012.81
986.37
970.215
959.619
949.233
944.878
946.047
951.155
959.355
970.031
977.189
997.597
1136.23
1110.36
1122.1
1127.03
1129.42
1117.55
1088.71
1063.63
1024.7
996.948
979.426
968.513
959.464
953.949
954.071
956.534
962.372
971
976.463
994.346
1134.97
1109.52
1121.54
1127.47
1139.35
1135.55
1112.33
1084.1
1042.6
1012.1
989.613
975.945
967.86
964.008
964.294
965.37
967.868
971.303
974.36
989.942
1132.23
1106.84
1118.97
1126.16
1138.96
1137.85
1127.04
1105.86
1066.37
1033.26
1005.8
987.997
977.901
975.193
975.765
975.637
974.004
972.671
974.516
989.297
1128.73
1103.27
1114.66
1123.3
1136.72
1136.97
1135.12
1123.09
1087.93
1054.07
1023.68
1002.34
989.218
984.892
983.271
981.841
978.471
976.121
978.252
991.02
1122.17
1096.69
1106.29
1116.63
1129.42
1131.78
1134.41
1130.92
1108.64
1083.28
1057.3
1036.07
1020.12
1010.73
1004.42
1000.64
996.228
993.76
994.26
998.769
1285.76
1295.95
1300.41
1277.41
1260.67
1254.82
1242.91
1221.79
1193.66
1171.86
1155.44
1145.82
1140.56
1136.09
1135.55
1135.38
1134.36
1131.74
1128.13
1120.99
1295.74
1304.14
1307.09
1261.89
1248.28
1255.96
1248.41
1219.43
1172.05
1135.2
1109.65
1101.06
1103.42
1107.2
1109.55
1110.22
1109.75
1107.45
1103.77
1096.37
1299.66
1306.86
1274.24
1232.93
1241.41
1259.91
1255.89
1221.68
1157.7
1112.9
1085.12
1086.81
1094.89
1107
1116.06
1121.68
1121.56
1119.69
1115.76
1107.07
1277.28
1259.86
1229.64
1201.64
1223.44
1264.33
1268.38
1245.65
1158.1
1038.09
1042.4
1053.12
1070.74
1093.33
1117.16
1129.85
1129.85
1128
1124.56
1116.9
1260.12
1244.99
1235.58
1212.52
999.949
1018.66
1029.43
1042.13
1057.54
1078.3
1105.12
1127.05
1139.85
1140.09
1138.3
1131.04
1252.82
1252.33
1255.74
1260.24
1037.58
1045.66
1046.63
1048.98
1054.3
1063.86
1080.45
1107.48
1131.58
1138.93
1138.19
1132.6
1240.32
1245.12
1252.65
1264.61
1062.43
1058.79
1055.07
1051.15
1051.34
1053.77
1060.4
1075.06
1099.94
1119.66
1131.85
1131.49
1218.65
1215.87
1219.01
1242.57
1053.46
1021.3
1025.07
1028.47
1031.25
1035.08
1041.17
1050.83
1067.95
1091.15
1111.38
1124.81
1189.94
1167.86
1153.89
1154.8
998.657
1038.85
1063.89
1049.71
983.608
963.401
968.577
977.148
985.842
993.32
1000.34
1010.24
1024.89
1046.79
1070.18
1096.98
1167.81
1129.56
1105.89
1032.13
1017.72
1047.69
1059.13
1017.66
962.283
959.662
953.412
954.719
958.174
964.431
972.573
981.628
994.219
1012.8
1033.84
1067.38
1151.67
1103.61
1077.27
1035.86
1027.49
1048.16
1055.27
1022.84
969.041
952.352
937.985
939.532
943.573
950.581
958.694
966.214
974.077
986.812
1002.67
1037.93
1142.76
1096.59
1079.7
1046.22
1038.86
1049.78
1051.18
1027.43
979.45
955.558
939.717
933.239
934.965
940.575
950.902
958.689
962.958
970.209
981.511
1015.5
1137.6
1099.48
1089.45
1063.32
1053.08
1054.55
1051.45
1031.14
988.955
961.407
945.636
936.053
935.269
937.841
944.326
950.369
956.581
963.826
971.596
1000.43
1132.81
1103.89
1103.91
1086.75
1072.96
1063.57
1053.97
1035.66
996.439
969.046
955.258
945.01
939.401
939.552
942.131
948.938
957.526
965.591
972.653
994.835
1132.19
1107.06
1113.99
1110.82
1100.1
1079.74
1060.81
1042.2
1003.44
977.866
965.066
957.368
948.87
943.835
945.214
950.85
959.744
970.185
976.085
992.618
1131.95
1107.5
1119.93
1126.97
1123.52
1106.58
1075.81
1052.19
1013.52
987.307
973.194
965.527
956.786
952.441
953.256
956.785
963.391
972.887
976.93
991.256
1130.94
1106.85
1119.66
1127.96
1137.91
1130.97
1100.7
1069.67
1028.64
1000.15
981.154
970.4
962.655
962.355
963.721
965.832
969.372
973.227
975.638
988.525
1128.48
1104.45
1117.6
1126.42
1138.39
1137.68
1120.19
1092.84
1050.94
1018.97
994.062
978.305
969.781
970.749
974.427
976.306
975.484
973.771
974.73
986.336
1125.15
1100.96
1113.68
1123.16
1136.63
1136.87
1132.07
1113.03
1074.04
1039.76
1010
989.995
978.485
978.331
980.45
980.85
978.905
975.691
977.042
987.498
1118.54
1094.11
1105.36
1115.95
1129.63
1131.53
1131.73
1126.01
1099.93
1072.18
1044.37
1023.21
1008.28
1001.88
998.557
996.588
993.882
990.757
990.583
994.888
1284.21
1294.66
1298.55
1272.34
1254.4
1249.61
1238.43
1217.15
1188.71
1167.27
1150.93
1141.89
1137.11
1133.11
1132.92
1132.71
1131.62
1128.96
1125.32
1118.01
1294.59
1302.54
1304.12
1254.99
1241.85
1251.01
1244.48
1215.26
1167.08
1130.07
1104.36
1096.89
1099.83
1104.97
1108.17
1108.79
1108.24
1105.88
1102.11
1094.37
1298.2
1305.04
1261.06
1224.59
1235.66
1255.78
1252.28
1217.94
1152.64
1107.11
1079.42
1081.76
1091.33
1105.53
1115.95
1121.41
1121.22
1119.19
1115.03
1105.89
1272.88
1253.37
1220.78
1194.77
1214.76
1259.91
1264.21
1241.23
1151.32
1030.81
1035.94
1047.35
1065.79
1090.5
1116.87
1131.83
1131.61
1129.17
1124.91
1115.97
1254.42
1239.73
1233.02
1213.62
996.037
1012.04
1023.38
1036.22
1051.8
1072.7
1100.96
1125.12
1140.23
1140.86
1139.06
1131.35
1248.75
1248.76
1253.3
1256.92
1029.37
1040.24
1041.78
1044.21
1049.16
1057.81
1072.67
1098.22
1127.44
1139.65
1139.07
1133.07
1236.91
1242.39
1250.15
1261.54
1054.48
1053.3
1050.19
1046.46
1046.35
1048.06
1053.42
1065.2
1088.13
1113.51
1129.27
1129.73
1215.3
1213.15
1216.05
1238.74
1043.79
1013.99
1018.74
1022.64
1025.85
1029.12
1034.25
1042.27
1056.18
1078.07
1102.02
1120.06
1186.2
1164.58
1150.83
1151.95
996.093
1032.24
1055.99
1042.4
981.132
960.563
964.542
973.049
981.729
989.348
995.807
1003.89
1015.64
1033.84
1057.15
1088.56
1164.21
1126.82
1103.92
1027.67
1010.91
1040.62
1052.79
1011.58
957.287
954.751
951.182
954.082
957.383
962.5
969.499
977.963
987.902
1002.9
1021.77
1057.38
1147.68
1100.57
1074.31
1031.71
1020.98
1041.31
1049.47
1016.74
963.193
948.338
937.167
938.349
942.312
949.051
956.929
964.602
971.315
980.317
993.087
1027.14
1138.03
1091.57
1075.66
1041.77
1032.73
1043.14
1045.53
1021.04
973.124
952.42
937.954
931.19
934.586
941.611
950.364
957.796
961.916
965.879
973.878
1005.4
1132.89
1094.1
1083.83
1058.04
1047.27
1047.87
1045.52
1024.98
982.436
957.354
942.656
934.97
933.3
934.785
941.585
948.898
954.972
960.647
966.184
991.24
1128.42
1098.76
1097.58
1080.75
1066.68
1056.36
1047.35
1028.92
990.137
963.261
950.326
943.379
935.776
935.055
937.791
945.344
955.486
962.937
967.528
986.48
1127.51
1102.19
1108.06
1106.09
1093.73
1070.71
1052.94
1034.53
996.61
970.467
958.653
952.977
944.455
938.696
940.392
947.171
958.112
968.269
972.077
986.424
1127.29
1102.96
1115.1
1124.55
1118.06
1095.41
1064.83
1042.86
1004.91
979.028
966.122
960.326
952.2
947.018
948.255
953.297
961.734
971.472
974.76
986.262
1126.38
1102.56
1115.33
1125.42
1134.67
1124.09
1087.64
1056.96
1017.11
989.651
972.87
964.281
956.889
956.89
959.46
962.872
967.408
972.765
974.262
984.461
1124.07
1100.53
1113.92
1123.89
1136.42
1136.07
1112.12
1078.87
1036.01
1005.51
982.955
968.902
961.423
963.333
968.961
973.075
973.918
972.286
971.458
980.714
1120.84
1097.21
1110.35
1120.42
1134.97
1135.58
1127.44
1102.22
1059.35
1024.99
996.636
977.424
967.396
968.416
973.207
976.629
976.186
972.301
972.515
981.168
1114.21
1090.3
1102.11
1112.77
1128.22
1130.11
1128.04
1119.73
1090.04
1060.32
1030.96
1009.34
994.387
989.609
989.655
989.539
988.027
984.649
983.912
987.893
1282.8
1293.2
1296.8
1269.17
1250.79
1246.67
1235.75
1214.27
1185.03
1163.44
1147.31
1138.39
1133.73
1129.8
1130.16
1130.35
1129.63
1127.29
1123.85
1116.59
1292.95
1300.41
1301.53
1250.75
1238.83
1248.57
1242.17
1212.61
1162.91
1125.05
1099.22
1091.86
1094.89
1100.49
1105.17
1106.69
1106.39
1104.51
1101.1
1093.46
1295.85
1302.09
1253.82
1219.45
1233.63
1253.87
1250.19
1215.59
1148.12
1101.15
1073.22
1075.68
1085.55
1100.81
1112.41
1119.27
1119.29
1117.85
1114.23
1105.4
1269.25
1248.86
1216.16
1190.15
1211.82
1256.49
1260.77
1237.97
1147.9
1025.05
1030.52
1041.75
1059.5
1084.43
1112.11
1131.3
1131.62
1129.56
1125.25
1115.77
1250.95
1236.71
1230.43
1209.13
991.288
1009.09
1019.99
1031.87
1046.74
1067.08
1095.86
1121.64
1139.12
1140.64
1139.06
1131.68
1246.08
1246.25
1251.5
1254.92
1027.8
1039.73
1040.44
1042.07
1046.36
1054.29
1067.95
1091.93
1122.67
1138.86
1138.95
1133.68
1234.69
1240.5
1248.37
1259.08
1053.62
1053.25
1049.69
1045.33
1043.85
1045.12
1049.63
1059.78
1080.37
1107.51
1126.21
1128.23
1212.99
1211.01
1213.98
1236.09
1042.53
1014.1
1018.02
1021.12
1023.98
1026.76
1031.13
1038.01
1049.98
1069.65
1094.63
1115.96
1183.68
1162.04
1148.18
1147.58
988.873
1025.09
1051.01
1038.51
979.452
961.777
964.617
971.654
979.662
987.361
993.74
1000.9
1011
1026.66
1048.69
1082.35
1161.93
1124.36
1101.6
1024.08
1005.55
1036.02
1049.51
1008.74
958.477
954.425
950.014
953.52
957.067
961.698
967.489
974.669
983.367
996.922
1014.37
1050.5
1145.76
1098.74
1072.58
1028.84
1016.28
1036.98
1046.26
1013.28
962.389
946.883
937.596
937.861
941.151
948.152
954.82
960.996
967.79
976.139
987.776
1020.44
1135.93
1089.4
1074.1
1039.52
1028.23
1038.87
1042.15
1017.06
970.035
950.834
936.725
927.428
932.438
940.911
948.113
954.926
959.594
962.573
968.815
997.809
1130.7
1091.77
1081.91
1056.31
1043.22
1043.42
1041.6
1020.76
978.279
955.39
940.942
932.495
929.901
931.451
937.824
945.863
952.705
957.15
960.77
983.325
1126.43
1096.39
1094.99
1079.41
1063.35
1051.62
1043.07
1024.3
985.861
960.159
947.605
941.068
931.71
929.23
932.191
940.963
953.167
959.157
962.025
979.297
1125.38
1099.94
1105.57
1104.99
1090.87
1065.42
1047.96
1029.39
992.311
966.364
954.096
948.936
939.196
932.389
934.498
943.117
956.461
964.759
966.818
979.98
1125.09
1100.74
1112.45
1123.38
1115.2
1089.1
1058.58
1036.98
1000.01
974.302
961.156
956.032
947.445
940.905
942.97
950.048
959.942
967.579
969.584
980.233
1124.12
1100.36
1112.67
1124.1
1132.58
1118.85
1079.47
1049.61
1010.98
984.077
968.405
960.333
952.607
952.535
955.725
959.713
963.573
968.137
970.106
979.894
1121.79
1098.4
1111.46
1122.58
1134.84
1134.29
1105.68
1069.79
1027.85
998.678
977.415
963.65
956.065
957.801
963.454
967.412
968.3
968.618
967.573
975.392
1118.54
1095.11
1108.19
1119.06
1133.5
1134.4
1123.46
1094.32
1050.43
1016.98
989.953
970.906
960.209
961.24
966.203
969.944
970.776
968.592
966.938
973.846
1111.79
1088.1
1100.15
1110.96
1126.94
1129.42
1125.52
1114.79
1083.38
1053.1
1023.66
1001.13
985.252
980.911
981.803
982.624
982.888
979.25
976.03
980.304
1282.62
1293.23
1296.86
1269.05
1250.64
1246.85
1235.96
1214.48
1185.03
1163.31
1147.13
1137.91
1133.22
1129.31
1129.81
1130.27
1129.72
1127.55
1124.17
1116.93
1292.71
1300.29
1301.73
1250.32
1239.11
1249.14
1242.56
1212.88
1162.99
1125.02
1099.32
1091.02
1093.87
1099.37
1104.37
1106.44
1106.27
1104.62
1101.39
1093.84
1295.69
1301.74
1252.92
1217.77
1234.64
1254.78
1250.76
1215.86
1148.39
1101.56
1073.43
1075.19
1084.18
1098.95
1110.93
1118.86
1119.08
1117.91
1114.56
1105.87
1269.08
1248.56
1216.16
1187.78
1214.68
1256.63
1260.3
1237.26
1146.29
1025.15
1030.76
1041.78
1058.93
1083.06
1110.51
1130.84
1131.54
1129.67
1125.58
1116.28
1250.69
1235.84
1228.92
1203.96
985.466
1007.77
1019
1030.99
1045.8
1065.94
1094.5
1120.53
1138.75
1140.68
1139.18
1132
1245.8
1245.63
1250.77
1254.06
1026.43
1038.54
1039.28
1040.93
1045.27
1053.37
1067.13
1091.17
1122.27
1138.98
1139.12
1133.86
1234.4
1240.18
1248.12
1258.3
1052.24
1052.17
1048.86
1044.65
1043.35
1044.71
1049.35
1059.52
1080.06
1107.28
1126.14
1128.18
1212.79
1210.81
1213.86
1235.43
1042.15
1013.36
1017.29
1020.36
1023.39
1026.29
1030.77
1037.71
1049.64
1069.31
1094.3
1115.78
1183.73
1162.28
1148.71
1149.26
988.966
1022.53
1049.15
1037.44
986.979
963.56
965.481
971.633
979.375
986.808
993.03
1000.11
1010.2
1025.98
1048.14
1081.91
1162.2
1124.8
1102.17
1023.81
1005.55
1036.43
1050.07
1009.69
961.543
955.705
950.763
954.066
957.268
961.158
966.579
973.881
982.555
996.095
1013.57
1049.82
1146.18
1099.18
1073.22
1028.75
1016.56
1037.43
1047.08
1014.31
964.225
948.843
938.11
939.051
942.335
947.859
953.46
959.753
966.747
974.874
986.409
1019.36
1136.64
1090.35
1074.92
1039.98
1028.91
1039.37
1043.22
1018.15
971.21
952.928
938.848
929.042
933.209
940.565
947.155
953.727
958.029
960.578
966.727
996.303
1131.47
1092.88
1083.15
1057.77
1044.35
1043.93
1042.65
1021.98
979.537
957.347
942.872
933.868
930.205
931.281
937.194
944.723
951.291
955.477
959.029
981.72
1127.22
1097.71
1096.43
1081.66
1065.02
1052.26
1044.19
1025.53
987.443
962.302
949.642
942.479
932.299
929.772
932.351
940.485
951.965
957.638
960.495
977.809
1126.16
1101.05
1107.06
1107.56
1093.08
1066.39
1049.2
1030.6
993.957
968.354
956.233
950.226
940.117
932.861
934.775
942.883
955.729
963.781
965.767
978.836
1125.75
1101.66
1113.54
1124.78
1117.34
1090.7
1060.03
1038.24
1001.61
975.905
962.927
957.61
948.785
941.502
943.373
950.231
959.88
967.341
969.132
979.523
1124.62
1101.14
1113.58
1125.1
1133.93
1120.77
1081.12
1050.99
1012.44
985.461
969.885
962.336
954.144
953.612
956.451
960.379
963.98
968.215
969.903
979.486
1122.1
1098.94
1112.12
1123.33
1135.44
1135.39
1107.39
1071.1
1029.07
999.83
978.974
965.621
957.693
959.266
964.699
968.167
968.738
968.728
967.457
975.353
1118.67
1095.41
1108.53
1119.45
1133.96
1135.25
1124.65
1095.58
1051.48
1017.95
991.46
972.463
961.781
962.616
967.342
970.696
971.314
968.829
966.972
973.804
1111.72
1088.1
1100.11
1110.89
1127.03
1129.73
1125.9
1115.64
1084.2
1053.79
1024.52
1001.99
986.255
981.904
982.679
983.383
983.568
979.675
976.18
980.284
1283.71
1294.58
1298.89
1272.43
1254.35
1249.96
1238.79
1217.38
1188.32
1166.76
1150.48
1140.99
1136.11
1132
1132.3
1132.55
1131.89
1129.58
1126.09
1118.82
1293.92
1302.28
1304.57
1254.66
1242.8
1252.12
1245.13
1215.61
1166.27
1128.81
1103.52
1095.11
1097.83
1102.88
1106.87
1108.44
1108.16
1106.29
1102.84
1095.22
1297.36
1304.19
1259.77
1222.5
1237.98
1257.51
1253.27
1218.39
1151.35
1105.08
1077.58
1079.71
1088.65
1102.7
1113.44
1120.59
1120.87
1119.57
1115.86
1106.87
1272.29
1252.33
1219.66
1189.27
1217.73
1259.25
1262.71
1239.82
1148.17
1029.15
1034.59
1045.94
1063.69
1087.79
1114.12
1131.42
1131.63
1129.7
1125.73
1116.99
1253.79
1238.09
1230.08
1204.16
989.075
1011.3
1022.61
1034.86
1049.89
1070.38
1098.57
1123.31
1139.82
1141.08
1139.44
1132.02
1248.06
1247.46
1251.95
1255.04
1026.83
1039.82
1041.02
1043.2
1048.05
1056.7
1071.42
1096.62
1126.59
1139.81
1139.32
1133.37
1236.24
1241.52
1249.22
1259.49
1051.98
1052.77
1049.58
1045.69
1045.53
1047.27
1052.64
1064.18
1086.64
1112.48
1128.85
1129.57
1214.62
1212.18
1214.97
1236.83
1041.28
1013.89
1018.4
1022.15
1025.42
1028.61
1033.54
1041.31
1054.78
1076.43
1100.8
1119.5
1185.9
1163.84
1149.6
1147.41
987.843
1027.7
1052.54
1040.03
986.062
962.468
965.603
973.035
981.299
988.716
994.874
1002.58
1013.99
1032.1
1055.61
1087.59
1164.5
1126.77
1103.55
1028.26
1012.02
1041.82
1053.81
1012.83
962.161
957.588
952.915
955.805
958.265
962.171
967.961
975.822
985.706
1000.84
1019.93
1056.01
1148.46
1101.28
1075.55
1033.12
1022.42
1042.52
1050.52
1017.8
965.774
951.821
939.172
940.764
944.383
949.942
956.419
962.605
968.605
977.953
991.095
1025.52
1139.27
1093.49
1077.67
1044.29
1034.32
1044.31
1046.55
1022.05
974.504
955.738
940.349
932.825
936.212
942.68
949.754
955.754
958.824
962.386
970.578
1003.21
1134.2
1096.22
1086.68
1062.07
1049.37
1048.94
1046.44
1025.86
983.64
960.061
944.766
936.474
933.459
934.402
940.526
946.842
952.502
958.111
963.55
988.685
1129.81
1101.01
1100.33
1086.05
1070.09
1057.44
1048.18
1029.65
991.492
965.588
952.189
944.317
935.263
934.391
936.823
943.881
953.52
960.661
964.984
984.062
1128.85
1103.66
1110.35
1111.8
1098.11
1072.26
1053.76
1035.12
997.88
972.653
960.723
953.786
943.837
937.858
939.509
946.152
957.121
966.866
970.318
984.596
1128.42
1104.2
1116.36
1127.24
1121.74
1097.82
1065.84
1043.42
1005.98
980.985
968.424
961.98
952.678
946.445
947.698
953.033
961.681
971.309
974.154
984.931
1127.23
1103.6
1116.27
1127.25
1136.94
1126.72
1088.95
1057.59
1017.92
991.132
975.042
966.201
958.023
957.232
959.547
963.191
968.025
973.266
974.109
983.701
1124.6
1101.22
1114.43
1125.1
1137.61
1137.69
1113.91
1079.56
1036.7
1006.58
984.538
970.484
962.836
964.56
969.933
973.885
974.736
972.779
971.528
980.729
1121.05
1097.5
1110.46
1120.9
1135.8
1136.87
1128.56
1103.39
1060.29
1025.86
997.807
978.62
968.898
969.929
974.791
977.975
977.351
972.829
972.815
981.141
1114.03
1090.05
1101.68
1112.27
1128.2
1130.59
1128.55
1120.49
1090.79
1061.05
1031.83
1010.26
995.719
991.319
991.527
991.294
989.452
985.41
983.769
987.426
1285.52
1296.06
1300.72
1277.37
1260.48
1254.84
1242.98
1221.66
1193.04
1171.42
1155.26
1145.67
1140.25
1135.67
1135.48
1135.57
1134.83
1132.44
1128.94
1121.78
1295.23
1303.91
1307.09
1261.8
1248.86
1256.55
1248.71
1219.46
1170.91
1133.6
1108.43
1100.34
1102.72
1106.6
1109.28
1110.39
1110.11
1108.13
1104.66
1097.28
1298.85
1306.29
1273.4
1232.31
1242.9
1261.19
1256.58
1222.1
1156.25
1109.72
1082.33
1084.82
1093.91
1106.67
1115.83
1122.06
1122.1
1120.42
1116.63
1108
1276.78
1259.01
1228.49
1195.59
1222.45
1263.31
1266.61
1243.66
1153.47
1036.32
1040.2
1050.98
1069.18
1092.61
1116.8
1130.62
1130.79
1129.08
1125.67
1117.98
1259.54
1243.64
1233.68
1208
991.885
1018.55
1028.92
1040.89
1056.02
1077.08
1104.71
1127.23
1140.63
1140.93
1139.18
1131.85
1252.11
1251.17
1254.53
1257.81
1031.23
1044.97
1045.9
1048.17
1053.49
1063.12
1079.9
1107.12
1132.1
1139.71
1138.92
1133.14
1239.47
1244.01
1251.56
1261.82
1055.29
1057.57
1053.9
1049.95
1050.16
1052.68
1059.49
1074.16
1099.15
1119.57
1132.05
1131.77
1217.91
1214.77
1217.66
1239.4
1045.26
1019.58
1023.81
1027.51
1030.41
1034.2
1040.18
1049.68
1066.51
1089.89
1110.74
1124.77
1189.55
1167.03
1152.66
1152.83
995.118
1034.4
1058.96
1046.39
982.462
963.225
968.451
977.259
986.115
993.315
999.842
1009.28
1023.65
1045.59
1069.35
1096.67
1167.89
1129.24
1105.15
1032.79
1018.26
1047.65
1060.12
1019.78
962.762
960.038
954.291
955.861
958.949
964.574
972.206
981.043
993.517
1012.04
1033.14
1066.91
1152.03
1103.67
1077.45
1036.7
1028.56
1048.31
1056.25
1024.39
969.992
953.615
937.983
939.146
943.255
950.476
958.663
966.152
973.817
986.283
1002.07
1037.41
1143.32
1097.49
1080.52
1047.65
1040.42
1050.23
1052.09
1028.47
980.225
956.879
939.815
932.33
934.239
940.205
950.736
958.325
962.039
968.733
980.049
1014.79
1138.15
1100.56
1091.11
1066.08
1055.3
1055.25
1052.32
1031.83
989.587
962.241
945.528
934.81
934.414
936.835
943.346
949.102
955.323
962.663
970.452
999.642
1133.51
1105.05
1105.58
1090.45
1076.34
1064.51
1054.79
1036.07
997.002
969.536
954.896
943.43
938.007
938.355
940.997
947.9
956.467
964.53
971.624
994.268
1132.91
1107.69
1115.02
1115.22
1104.47
1081.06
1061.6
1042.45
1003.77
978.156
964.852
956.279
947.25
942.556
944.225
950.206
959.345
969.717
975.668
992.388
1132.61
1108.12
1120.43
1129.13
1127.43
1108.35
1076.48
1052.32
1013.56
987.324
973.158
965.043
955.115
951.413
952.511
956.648
963.725
973.457
977.197
991.083
1131.47
1107.46
1120.11
1129.23
1139.98
1133
1101.5
1069.69
1028.38
999.849
980.981
969.837
961.688
961.754
963.308
966.02
970.143
973.919
975.899
988.514
1128.78
1104.92
1117.92
1127.25
1139.88
1139.37
1121.48
1092.99
1050.54
1018.37
993.513
977.453
969.311
970.348
974.456
976.853
976.096
974.157
975.113
986.495
1125.18
1101.11
1113.72
1123.38
1137.61
1138.36
1132.93
1113.4
1073.9
1039.15
1009.22
988.909
977.69
978.066
980.835
981.396
979.382
976.025
977.337
987.464
1118.22
1093.76
1104.86
1115.3
1129.82
1132.25
1132.2
1126.25
1099.84
1071.75
1043.67
1022.31
1007.49
1001.85
998.966
997.096
994.46
991.085
990.248
994.285
1287.34
1297.42
1302.22
1283.4
1268.19
1260.32
1247.53
1226.47
1198.32
1176.71
1160.37
1150.54
1144.74
1139.94
1139.58
1139.39
1138.3
1135.57
1131.89
1124.82
1296.56
1305.56
1309.23
1270.17
1256.74
1261.92
1252.88
1223.97
1176.3
1138.83
1113.57
1105.75
1108.04
1110.71
1112.69
1113.1
1112.55
1110.08
1106.39
1099.25
1300.33
1307.79
1291.91
1245.9
1248.31
1265.17
1260.44
1226.68
1161.96
1114.42
1087.25
1090.23
1099.79
1111.43
1120
1124.55
1124.18
1121.74
1117.32
1108.45
1282.77
1267.4
1240.99
1204.54
1227.43
1267.28
1270.49
1248.23
1161.15
1042.12
1045.04
1056.01
1075.25
1098.84
1120.01
1129.93
1129.94
1128.3
1125.18
1118.07
1267.27
1252.27
1239.25
1212.14
1000.72
1027.02
1036.29
1047.92
1063.41
1085.3
1111.16
1131.99
1141.18
1140.76
1138.48
1130.94
1257.31
1256.37
1258.51
1261.73
1039.18
1053.59
1054.67
1057.13
1062.77
1073.06
1091.61
1118.73
1136.76
1139.15
1138.16
1132.48
1243.64
1247.72
1255.42
1265.74
1062.72
1067.03
1063.43
1059.51
1059.86
1062.86
1070.85
1088.42
1112.63
1127.29
1135.1
1134.03
1222.39
1218.85
1221.6
1243.7
1053.47
1030.41
1035.14
1038.46
1041.14
1045.24
1051.73
1062.84
1082.84
1105.09
1122.1
1130.05
1194.08
1171.21
1156.76
1155.16
997.17
1040.02
1064.98
1053.2
976.529
964.987
976.907
987.495
996.067
1002.61
1010.15
1021.45
1038.87
1063.01
1085.29
1106.54
1172.4
1133.25
1108.4
1039.31
1026.9
1055.09
1067.51
1028.2
963.827
958.9
954.024
956.53
963.216
972.357
981.676
991.852
1006.72
1027.91
1049.35
1079.48
1156.39
1107.97
1081.67
1042.59
1036.92
1055.97
1063.95
1033.86
977.645
955.417
935.699
937.497
945.005
955.256
965.08
973.547
982.943
998.659
1016.67
1051.64
1147.44
1102.24
1085.51
1053.5
1048.32
1058.15
1060.24
1037.9
989.43
959.552
939.13
932.82
934.149
941.734
953.852
962.286
968.752
979.904
993.966
1029.08
1141.84
1105.24
1096.62
1072.41
1063.05
1063.55
1060.7
1041.12
998.441
967.399
948.758
935.968
935.222
937.482
944.316
953.048
960.414
969.186
980.135
1012.25
1137.09
1108.61
1110.27
1096.34
1084.42
1073.45
1063.76
1045.62
1005.25
976.944
960.386
946.617
939.301
939.367
942.902
950.139
959.251
969.333
978.051
1003.5
1136.71
1110.81
1119.31
1118.1
1110.69
1091.46
1071.67
1052.37
1013.09
986.48
970.44
959.397
948.39
944.457
945.933
951.515
960.073
970.951
978.085
998.5
1136.43
1110.96
1122.98
1128.88
1131.86
1118.35
1088.89
1063.7
1024.64
996.736
978.955
967.64
958.234
953.221
953.673
956.804
963.186
972.147
977.529
995.336
1135.21
1110.14
1122.32
1128.87
1140.9
1136.94
1112.68
1083.79
1042.11
1011.47
988.561
974.546
966.109
963.217
963.798
965.471
968.677
972.387
975.351
991.043
1132.43
1107.39
1119.59
1127.09
1140.32
1139.2
1127.69
1105.63
1065.72
1032.25
1004.34
986.22
975.649
974.231
975.3
975.654
974.53
973.39
975.241
989.663
1128.81
1103.63
1115.07
1123.76
1137.83
1138.15
1135.59
1122.88
1087.37
1053.02
1022.06
1000.38
986.934
983.636
982.673
981.638
978.668
976.373
978.491
991.073
1122.06
1096.72
1106.32
1116.53
1130.05
1132.35
1134.58
1130.77
1108.18
1082.35
1055.93
1034.39
1018.38
1009.38
1003.49
1000.05
995.827
993.222
993.589
997.966
1294.71
1304.39
1309.11
1293.95
1279.43
1270.24
1257.04
1235.9
1208.41
1186.73
1170.49
1160.77
1155.08
1150.83
1150.49
1149.97
1148.66
1145.95
1142.37
1135.52
1303.45
1312.83
1316.12
1281.8
1267.9
1270.71
1260.88
1232.22
1185.25
1147.98
1123.09
1115.89
1118.44
1121.21
1123.11
1123.08
1122.18
1119.42
1115.72
1108.85
1307.12
1314.46
1312.22
1259.96
1256.13
1271.25
1266.9
1233.46
1169.8
1122.8
1097.37
1100.86
1111
1122.46
1131.17
1133.91
1133.07
1130
1125.11
1116.05
1293.1
1279.33
1255.5
1216.27
1232.48
1271.93
1275.12
1253.7
1166.75
1049.45
1053.81
1066.8
1087.75
1112.07
1131.06
1138.17
1137.77
1135.74
1132.27
1124.81
1278.51
1264.31
1248.27
1218.69
1009.77
1034.96
1045.34
1058.28
1075.38
1099.1
1124.09
1143.64
1148.38
1147.3
1144.32
1136.07
1267.31
1265.45
1264.77
1266.78
1047.47
1062.93
1064.73
1068.11
1074.81
1086.56
1107.72
1134.3
1146.42
1146.25
1144.42
1137.79
1253.27
1255.6
1261.87
1270.81
1073.48
1077.38
1073.73
1070.92
1071.91
1076.16
1086.3
1106.5
1128.95
1140.94
1144.32
1142.22
1231.92
1227
1227.79
1249.23
1066.02
1041.66
1047.21
1050.63
1053.75
1058.63
1066.43
1080.1
1102.53
1123.35
1137.85
1140.61
1204.27
1179.4
1162.61
1156.3
1010.07
1048.77
1074.02
1062.05
967.248
967.128
985.663
998.225
1007.51
1015.25
1025.04
1038.78
1058.82
1083.53
1104.35
1120.99
1182.89
1142.12
1115.59
1047.08
1036.68
1064.19
1077.19
1039.76
967.712
955.539
956.955
962.962
973.487
985.352
996.631
1008.3
1024.64
1047.26
1068.93
1096.67
1167.11
1118.37
1092.78
1052.33
1047.15
1065.9
1073.98
1046.34
988.065
959.099
939.841
942.057
952.849
966.819
977.926
987.111
998.029
1016.05
1035.98
1070.26
1157.98
1113.43
1097.59
1065.5
1059.3
1069.04
1071.93
1050.69
1001.62
967.843
944.576
939.349
942.523
951.468
962.906
972.553
981.652
995.996
1012.65
1047.85
1152.14
1116.32
1109.28
1085.79
1075.19
1075.35
1072.99
1054.48
1011.22
979.009
957.853
945.713
943.642
945.092
952.327
963.194
973.945
986.319
998.579
1029.42
1147.79
1119.22
1122.03
1109.86
1097.75
1086.29
1077.13
1059.77
1018.98
990.429
972.694
958.012
947.108
947.3
952.33
962.123
972.837
983.226
991.42
1016.84