/*--------------------------------*- C++ -*----------------------------------*\
  =========                 |
  \\      /  F ield         | OpenFOAM: The Open Source CFD Toolbox
   \\    /   O peration     | Website:  https://openfoam.org
    \\  /    A nd           | Version:  9
     \\/     M anipulation  |
\*---------------------------------------------------------------------------*/
FoamFile
{
    format      ascii;
    class       volVectorField;
    location    "0.0045";
    object      U;
}
// * * * * * * * * * * * * * * * * * * * * * * * * * * * * * * * * * * * * * //

dimensions      [0 1 -1 0 0 0 0];

internalField   nonuniform List<vector> 
9720
(
(-920.786 -924.935 -97.7279)
(-711.048 -963.158 -84.179)
(-580.94 -995.887 -98.7442)
(-484.744 -1085.43 -124.012)
(-329.106 -1181.34 -121.352)
(-98.5771 -1225.61 -119.481)
(161.09 -1231.44 -126.214)
(449.995 -1239.86 -121.107)
(773.421 -1213.63 -131.949)
(1030.65 -1095.48 -111.866)
(1230.81 -953.107 -130.59)
(1365.56 -815.87 -126.409)
(1466.63 -699.309 -118.842)
(1561.19 -615.903 -125.821)
(1635.77 -536.158 -132.521)
(1714.22 -478.233 -126.186)
(1793.81 -431.867 -130.431)
(1881.38 -409.08 -141.551)
(1955.43 -381.257 -150.741)
(2092.18 -355.977 -159.497)
(-957.204 -713.532 -81.6258)
(-751.53 -754.352 -68.5857)
(-643.661 -793.489 -82.0327)
(-642.013 -940.235 -106.283)
(-429.673 -1119.58 -120.569)
(-148.609 -1180.34 -115.907)
(147.144 -1173.9 -117.479)
(505.576 -1189.93 -107.912)
(957.68 -1120.47 -120.286)
(1274.56 -899.821 -97.3643)
(1469.94 -674.016 -116.757)
(1557.02 -500.633 -113.641)
(1603.48 -385.004 -107.493)
(1654.4 -315.07 -114.291)
(1713.13 -283.634 -123.473)
(1776.85 -260.665 -118.432)
(1846.16 -241.428 -121.211)
(1923.38 -231.505 -130.481)
(1992.85 -220.724 -141.805)
(2121.82 -212.004 -155.753)
(-993.011 -584.755 -90.6238)
(-791.794 -646.68 -74.8525)
(-712.403 -710.977 -74.4915)
(-815.688 -900.522 -101.482)
(-500.697 -1147.85 -119.903)
(-168.272 -1168.33 -108.009)
(134.063 -1146.37 -104.909)
(544.948 -1153.96 -97.3912)
(1102.99 -1024.39 -100.887)
(1412.58 -692.674 -98.0381)
(1562.62 -486.114 -114.44)
(1651.75 -341.509 -100.809)
(1667.09 -245.97 -110.015)
(1676.52 -174.047 -116.679)
(1713.75 -128.175 -114.657)
(1769.68 -109.374 -100.081)
(1836.83 -93.0572 -93.3678)
(1915.83 -85.2173 -94.1563)
(1990.68 -81.4904 -95.8101)
(2126.78 -82.333 -110.706)
(-1079.59 -478.671 -107.717)
(-934.91 -630.681 -83.2274)
(-901.012 -810.454 -78.6704)
(-953.39 -940.027 -105.407)
(-710.97 -1067.55 -118.261)
(-265.347 -1129.57 -118.141)
(59.4983 -1095.83 -112.765)
(421.487 -1092.87 -112.885)
(1073.72 -994.065 -117.292)
(1698.35 -480.162 -109.072)
(1805.41 -394.774 -126.822)
(1845.25 -294.25 -129.889)
(1810.49 -194.827 -121.342)
(1731.94 -91.6749 -128.429)
(1723.82 -23.3204 -139.109)
(1762.05 -10.4251 -139.303)
(1822.55 8.91694 -133.758)
(1901.09 25.7656 -137.772)
(1976.57 40.5449 -133.413)
(2116.59 46.5043 -135.869)
(-1173.02 -324.558 -116.454)
(-1113.3 -428.128 -112.269)
(-1150.68 -501.253 -105.726)
(-1078.64 -696.82 -99.3319)
(1705.46 -463.667 -139.786)
(2106.09 -286.017 -137.434)
(2090.73 -241.742 -148.291)
(2072.18 -191.72 -156.474)
(2033.54 -139.104 -158.487)
(1959.32 -75.8274 -166.896)
(1859.43 -2.9041 -166.973)
(1817.73 73.5485 -143.638)
(1841.39 110.908 -138.034)
(1887.16 131.214 -143.862)
(1942.44 148.553 -142.216)
(2066.38 157.889 -147.917)
(-1223.26 -93.9243 -118.791)
(-1183.45 -145.651 -115.137)
(-1174.75 -165.641 -108.886)
(-1125.73 -261.756 -115.908)
(2198.35 -125.343 -167.25)
(2278.08 -46.0224 -157.499)
(2276.95 -49.7451 -165.095)
(2271.82 -43.6895 -168.105)
(2257.8 -24.1347 -169.606)
(2223.31 15.1538 -171.515)
(2135.38 58.1864 -173.782)
(2011.75 114.306 -152.123)
(1962.97 182.973 -145.511)
(1975.42 223.485 -150.665)
(2004.9 253.47 -150.225)
(2097.52 268.938 -158.441)
(-1227.29 167.334 -128.451)
(-1173.6 154.21 -122.036)
(-1149.67 140.225 -110.632)
(-1098.65 65.5643 -118.304)
(2288.92 103.707 -171.26)
(2380.42 188.18 -157.9)
(2389.37 194.455 -162.883)
(2387.62 198.16 -166.87)
(2378.07 201.083 -169.135)
(2362.3 219.374 -170.931)
(2320.58 253.195 -177.687)
(2231.89 294.722 -165.318)
(2120.18 357.52 -148.997)
(2074.13 395.159 -153.361)
(2081.78 405.883 -154.122)
(2137.37 412.859 -159.875)
(-1236.68 456.172 -125.49)
(-1191.09 514.375 -114.776)
(-1157.02 556.916 -106.251)
(-1094.34 430.062 -117.604)
(2385.04 380.937 -171.358)
(2470.49 593.042 -152.652)
(2494.48 565.565 -164.011)
(2500.18 532.603 -168.075)
(2510.72 504.089 -169.38)
(2512.62 474.053 -166.069)
(2498.93 466.336 -162.749)
(2466.81 473.839 -162.094)
(2398.69 488.499 -151.396)
(2306.6 518.792 -142.875)
(2269.88 509.807 -150.193)
(2288.21 502.139 -154.542)
(-1207.87 779.413 -140.204)
(-1115.58 965.899 -134.892)
(-1016.69 1113.81 -121.834)
(-974.703 1098.31 -136.613)
(-464.295 1747.07 -159.924)
(-140.793 2169.63 -173.529)
(101.753 2257.59 -172.609)
(401.378 2351.78 -166.494)
(1827.15 2026.46 -221.164)
(2339.69 1327.94 -167.324)
(2367.15 1120.94 -191.856)
(2433.43 1035.23 -177.206)
(2492.04 961.838 -155.101)
(2523.6 891.803 -153.546)
(2560.94 840.531 -172.208)
(2558.46 790.477 -180.305)
(2521.9 769.282 -171.715)
(2460.69 776.797 -152.634)
(2390.35 759.221 -143.701)
(2391.64 728.639 -145.91)
(-1087.74 1034.87 -125.243)
(-893.763 1279.47 -119.861)
(-686.972 1416.66 -127.554)
(-477.884 1697.25 -130.774)
(-301.948 2078.25 -148.232)
(-57.6372 2228.94 -155.661)
(187.33 2335.05 -156.236)
(601.907 2423.36 -137.609)
(1230.3 2304.44 -162.771)
(1928.53 2018 -210.303)
(2146.29 1620.54 -119.928)
(2244.04 1421.05 -120.101)
(2362.73 1344.78 -147.609)
(2436.19 1255.04 -161.192)
(2484.84 1165.07 -173.63)
(2528.48 1093.54 -174.831)
(2558.22 1031.24 -156.374)
(2540.73 1006.89 -134.832)
(2493.89 988.032 -124.325)
(2487.3 938.831 -130.266)
(-945.646 1233.78 -146.077)
(-669.805 1473.03 -141.791)
(-484.688 1563.28 -144.988)
(-392.497 1792.17 -153.512)
(-258.041 2064.6 -160.822)
(-56.0097 2232.13 -164.95)
(189.326 2349.03 -163.948)
(567.27 2447.97 -150.888)
(1090.33 2356.43 -162.194)
(1511.58 2111.68 -150.921)
(1874.45 1934.63 -100.303)
(2106.71 1737.15 -121.504)
(2211.5 1606.03 -158.656)
(2296.48 1524.98 -169.883)
(2358.09 1433.07 -165.761)
(2433.55 1355.5 -144.191)
(2502.77 1290.3 -145.397)
(2557.95 1232.83 -153.046)
(2545.28 1205.88 -149.972)
(2552.63 1145.84 -146.094)
(-808.425 1365.99 -141.827)
(-497.278 1555.66 -137.234)
(-345.425 1651.33 -131.56)
(-296.857 1828.24 -153.774)
(-206.46 2045.61 -165.457)
(-47.2596 2228.78 -169.344)
(192.174 2349.31 -170.371)
(528.854 2451.35 -157.952)
(1014.6 2416.56 -146.992)
(1384.86 2232.16 -120.073)
(1645.58 2081.06 -142.079)
(1926.4 1965.09 -168.149)
(2062.8 1789.11 -208.18)
(2153.31 1689.98 -169.82)
(2244.12 1633.91 -122.369)
(2357.94 1591.95 -101.311)
(2439.79 1535.2 -132.105)
(2534.53 1465.56 -168.397)
(2541.01 1417.03 -161.404)
(2561.8 1335.57 -142.785)
(-692.126 1465.02 -133.604)
(-381.97 1598.67 -127.763)
(-251.223 1665.13 -136.116)
(-202.459 1797.94 -144.568)
(-147.947 2009.27 -164.488)
(-26.5326 2217.74 -170.883)
(194.701 2341.7 -171.962)
(498.093 2463.56 -160.525)
(942.723 2470.83 -130.652)
(1317.77 2350.31 -121.216)
(1570.92 2204.73 -163.332)
(1739.33 2073.7 -211.59)
(1868.75 1903.64 -209.825)
(2013.9 1822.62 -113.097)
(2135.4 1749.71 -59.5318)
(2255.2 1754.8 -85.3772)
(2345.58 1712.57 -125.322)
(2438.5 1641.64 -179.754)
(2475.68 1592.58 -173.737)
(2541.81 1512.02 -143.935)
(-608.859 1557.79 -141.086)
(-313.582 1648.83 -133.826)
(-179.629 1671.42 -138.794)
(-107.618 1727.38 -147.771)
(-84.1696 1938.99 -168.926)
(11.2589 2186.2 -172.006)
(212.306 2327.2 -172.385)
(466.291 2468.91 -159.003)
(873.29 2499.24 -134.645)
(1231.03 2424.64 -131.206)
(1505.57 2296 -158.857)
(1670.84 2156.24 -174.639)
(1789.74 2030.08 -117.38)
(1959.61 1984.23 -58.319)
(2067.62 1890.84 -75.2975)
(2166.14 1847.97 -131.119)
(2250.34 1818.42 -139.221)
(2346.4 1779.11 -185.327)
(2412.57 1756.13 -161.381)
(2513.17 1676 -118.939)
(-530.293 1631.5 -147.321)
(-282.074 1707.2 -141.721)
(-132.411 1708.05 -134.408)
(-37.9919 1717.37 -153.348)
(-13.2982 1843.92 -164.737)
(50.6603 2103.38 -173.169)
(245.205 2286.62 -176.773)
(458.754 2457.66 -156.761)
(821.739 2533.03 -157.704)
(1143.07 2472.93 -149.307)
(1414.25 2354.74 -146.776)
(1622 2242.83 -112.268)
(1743.75 2143.09 -65.1314)
(1873.38 2082.93 -79.6317)
(1961.47 1980.9 -131.455)
(2051.6 1912.76 -138.562)
(2141.04 1869.64 -115.541)
(2242.37 1852.84 -128.792)
(2326.87 1877.39 -86.0116)
(2459.04 1827.39 -70.6658)
(-473.56 1709.21 -140.904)
(-259.502 1770.57 -136.141)
(-111.906 1764.33 -118.337)
(-19.0565 1756.01 -151.22)
(64.8448 1805.19 -146.201)
(105.563 1988.97 -153.762)
(284.653 2201.54 -162.26)
(464.894 2428.55 -155.943)
(771.653 2529.54 -168.487)
(1071.43 2513.58 -151.878)
(1335.28 2428.62 -119.306)
(1575.36 2356.68 -82.2003)
(1749.34 2267.02 -81.3655)
(1853.04 2183.13 -131.468)
(1906 2072.7 -143.382)
(1978.73 1992.27 -101.718)
(2068.08 1951.61 -77.208)
(2169.84 1938.42 -63.4997)
(2265.32 1995.91 -42.0584)
(2407.44 1961.8 -68.1122)
(-428.27 1788.73 -144.362)
(-240.437 1840.16 -137.817)
(-95.2052 1832.12 -110.473)
(3.20478 1816.8 -144.667)
(101.546 1830.5 -144.113)
(173.177 1947.86 -149.952)
(347.847 2097.86 -148.285)
(477.77 2366.24 -146.03)
(750.627 2494.46 -160.188)
(1010.46 2541.27 -136.284)
(1269.25 2494.58 -119.292)
(1514.3 2435.4 -110.725)
(1702.51 2354.34 -113.785)
(1825.98 2266.02 -135.198)
(1878.35 2155.16 -117.026)
(1952.51 2078.29 -75.9189)
(2046.26 2044.49 -45.945)
(2149.31 2033.4 -30.5087)
(2227.68 2068.83 -58.483)
(2361.24 2046.76 -99.7862)
(-406.106 1876.49 -154.834)
(-230.669 1917.87 -146.338)
(-87.2077 1911.48 -110.752)
(21.1676 1895.26 -149.215)
(121.61 1878.07 -152.182)
(213.525 1962.74 -156.809)
(381.635 2061.7 -155.819)
(504.813 2283.62 -142.283)
(756.541 2436.63 -142.641)
(984.443 2524.15 -118.035)
(1212.29 2546.54 -131.546)
(1444.77 2527.01 -146.884)
(1631.83 2444.91 -163.209)
(1778.5 2358.72 -173.498)
(1864.02 2253.03 -123.621)
(1955.32 2172.21 -57.4125)
(2048.18 2142.21 -28.0034)
(2135.65 2125.72 -41.1136)
(2201.69 2140.83 -108.342)
(2320.21 2128.98 -146.459)
(-378.627 1950.82 -162.695)
(-219.953 1987.74 -156.164)
(-83.7063 1986.24 -111.505)
(35.7352 1970.79 -145.29)
(139.28 1934.97 -152.033)
(243.316 1993.74 -156.329)
(392.608 2071.18 -156.818)
(496.469 2257.5 -149.148)
(737.422 2377.63 -137.877)
(963.62 2480.93 -112.14)
(1182.17 2533.25 -131.582)
(1395.45 2532.72 -140.935)
(1578.3 2473.75 -154.663)
(1745.93 2413.08 -143.421)
(1875.89 2330.78 -70.0895)
(2009.28 2268.93 -24.2549)
(2090.81 2227.2 -41.4558)
(2157.76 2204.7 -98.9071)
(2205.98 2193.93 -159.14)
(2279.06 2181.59 -146.843)
(-353.561 2088.1 -169.781)
(-211.203 2117.33 -167.874)
(-84.457 2122.69 -124.047)
(42.0162 2112.02 -146.773)
(149.363 2061.58 -157.579)
(259.099 2088.55 -163.853)
(399.991 2130.11 -162.632)
(489.07 2279.02 -153.241)
(711.857 2382.6 -140.843)
(917.149 2478.79 -120.79)
(1121.86 2543.92 -130.919)
(1313.21 2555.52 -125.69)
(1493.44 2537.03 -125.726)
(1660.64 2508.55 -99.547)
(1817.07 2457.72 -49.7841)
(1963.02 2408.02 -43.7685)
(2060.69 2365.32 -74.503)
(2143.21 2329.19 -127.399)
(2197.76 2271 -137.48)
(2285.46 2265.56 -107.039)
(-924.484 -929.713 -55.2179)
(-712.097 -967.691 -38.6242)
(-583.771 -1004.39 -42.0788)
(-500.753 -1104.02 -45.921)
(-338.299 -1203.63 -55.2238)
(-103.265 -1248.88 -62.1047)
(159.759 -1252.26 -68.8039)
(451.16 -1258.93 -64.1241)
(778.262 -1232.46 -71.4227)
(1034.56 -1111.87 -52.8291)
(1237.86 -968.651 -69.2715)
(1372.55 -829.049 -63.5011)
(1473.07 -710.872 -54.8779)
(1566.99 -626.119 -60.3757)
(1639.15 -544.342 -68.4596)
(1716.3 -485.332 -66.4928)
(1795.85 -438.938 -73.0011)
(1883.98 -416.8 -83.9049)
(1958.19 -389.549 -93.0492)
(2094.18 -364.256 -101.059)
(-959.981 -716.983 -38.5984)
(-752.461 -759.89 -18.0483)
(-647.596 -807.939 -16.047)
(-677.149 -968.615 -22.46)
(-440.466 -1163.5 -59.0223)
(-149.171 -1214.08 -63.7595)
(147.668 -1202.5 -65.7814)
(507.867 -1212.92 -57.079)
(964.567 -1144.51 -64.5485)
(1281.83 -920.371 -42.8884)
(1478.11 -692.52 -61.5664)
(1570.56 -518.448 -54.865)
(1616.93 -398.157 -42.8401)
(1662.56 -322.611 -48.6844)
(1717.82 -287.319 -60.2039)
(1779.08 -264.304 -60.8629)
(1847.6 -245.529 -67.7676)
(1925.52 -236.872 -78.261)
(1995.82 -227.885 -90.1454)
(2124.82 -220.337 -102.895)
(-998.687 -588.13 -39.8582)
(-798.583 -652.738 -14.3572)
(-731.945 -740.556 14.0953)
(-848.553 -948.433 -33.9024)
(-500.579 -1192.02 -73.8246)
(-163.452 -1202.6 -68.8877)
(140.538 -1177.22 -63.9542)
(550.967 -1184.81 -56.2676)
(1111.45 -1050.09 -49.2622)
(1427.1 -712.602 -44.8529)
(1566.15 -500.459 -60.9512)
(1663.69 -358.661 -54.4187)
(1691.78 -259.702 -52.7226)
(1691.36 -185.987 -48.8093)
(1720.39 -134.06 -44.7293)
(1772.24 -113.196 -36.1887)
(1836.92 -98.1404 -36.9653)
(1914.91 -90.5051 -42.3662)
(1989.7 -87.0923 -49.9517)
(2126.7 -89.5073 -67.6287)
(-1093.13 -491.246 -35.7496)
(-954.208 -666.779 -6.04)
(-936.704 -858.528 -22.4054)
(-975.32 -995.143 -52.4094)
(-689.265 -1101.04 -82.523)
(-262.182 -1173.03 -80.8007)
(62.3566 -1138.67 -76.4492)
(423.78 -1133.38 -71.821)
(1078.82 -1031.61 -48.1991)
(1717.97 -483.213 -34.5171)
(1819.22 -393.215 -53.8766)
(1862.27 -298.277 -65.7349)
(1840.92 -201.156 -57.6497)
(1766.47 -106.075 -57.7395)
(1740.76 -29.3257 -74.8247)
(1770.54 -13.0022 -80.827)
(1827.06 2.79422 -82.9909)
(1902.72 18.8771 -88.6418)
(1976.39 33.2378 -87.4192)
(2114.79 38.0944 -91.868)
(-1192.78 -334.525 -51.2632)
(-1149.04 -442.765 -51.4969)
(-1189.74 -510.013 -66.4023)
(-1112.22 -722.645 -65.11)
(1748.98 -488.663 -77.9421)
(2162.68 -299.889 -96.7188)
(2140.38 -255.025 -101.614)
(2116.85 -204.67 -105.746)
(2079.98 -148.926 -103.714)
(2011.83 -83.2261 -104.134)
(1910.43 -17.7001 -92.4816)
(1846.13 65.898 -68.901)
(1859.69 107.526 -75.5173)
(1899.4 126.487 -87.3677)
(1950.23 142.53 -95.6364)
(2069.51 150.536 -108.517)
(-1247.32 -100.238 -61.6362)
(-1215.76 -150.372 -64.5621)
(-1206.81 -165.789 -72.0894)
(-1166.96 -263.836 -82.0201)
(2300.51 -143.502 -129.132)
(2351.72 -56.0885 -118.822)
(2346.49 -58.3926 -119.138)
(2338.71 -51.0988 -117.81)
(2321.83 -31.9444 -114.827)
(2288.84 6.73185 -113.725)
(2210.51 50.6798 -103.283)
(2081.75 104.498 -62.7003)
(2002.19 174.384 -69.0744)
(2006.12 212.373 -91.5835)
(2028.94 245.118 -103.953)
(2114.44 260.536 -118.477)
(-1249.2 164.424 -72.5454)
(-1202.69 150.434 -72.1866)
(-1180.47 140.261 -69.9237)
(-1139.55 66.2819 -80.721)
(2396.96 97.1441 -135.808)
(2462.05 187.327 -121.47)
(2466.75 192.015 -118.86)
(2464.73 195.827 -116.384)
(2455.61 197.587 -113.174)
(2440.66 213.246 -109.368)
(2404.6 245.124 -111.111)
(2323.78 282.466 -87.8104)
(2205.87 347.195 -50.227)
(2124.67 394.107 -67.804)
(2123.23 405.125 -88.9369)
(2168.89 410.328 -102.84)
(-1257.5 456.498 -69.7407)
(-1216.49 513.834 -66.8659)
(-1188.68 557.451 -69.2315)
(-1131.47 428.853 -78.8783)
(2494.48 382.696 -134.698)
(2554.12 598.263 -110.179)
(2576.05 570.127 -111.554)
(2581.53 538.245 -108.135)
(2587.01 508.944 -107.348)
(2590.87 477.972 -100.899)
(2577.65 464.846 -91.7839)
(2549.91 471.087 -85.2631)
(2488.44 484.339 -66.5444)
(2391.77 513.007 -39.0857)
(2324.68 516.968 -61.7306)
(2334.43 507.085 -77.4049)
(-1229.95 783.471 -80.2034)
(-1145.6 970.22 -81.9581)
(-1045.26 1115.17 -77.715)
(-1016.58 1095.74 -68.1233)
(-489.767 1797.33 -93.4695)
(-163.456 2244.35 -128.964)
(87.415 2344.96 -130.315)
(399.634 2456.27 -125.785)
(1861.81 2108.87 -138.06)
(2426.38 1340.46 -131.738)
(2459.4 1135.29 -130.009)
(2510.86 1039.02 -108.09)
(2562.02 964.261 -94.3123)
(2597.4 896.652 -92.8266)
(2635.85 845.891 -103.889)
(2641.61 796.851 -100.739)
(2608.69 768.8 -84.4618)
(2550.67 770.454 -51.4272)
(2462.78 766.214 -41.6437)
(2448.86 732.667 -57.4004)
(-1108.59 1039.79 -65.1255)
(-922.485 1288.78 -65.0296)
(-712.097 1430.06 -76.3314)
(-483.892 1716.77 -61.8419)
(-320.225 2139.63 -103.772)
(-72.3082 2313.57 -115.228)
(177.289 2435.97 -117.019)
(607.634 2532.68 -102.926)
(1253.49 2425.63 -118.695)
(1979.44 2076.81 -169.201)
(2243.73 1670.68 -44.9214)
(2306.28 1429.15 -49.8184)
(2426.81 1350.93 -90.8134)
(2511.52 1268.4 -96.2444)
(2565.27 1182.57 -89.5799)
(2602.82 1104 -93.3999)
(2630.58 1035.17 -76.971)
(2616.67 1004.26 -42.5981)
(2566.22 991.242 -22.9729)
(2547.32 944.25 -33.5501)
(-963.846 1241.51 -82.3941)
(-694.392 1485.02 -82.212)
(-506.714 1571.42 -84.0488)
(-397.847 1811.62 -72.0104)
(-275.751 2117.66 -104.72)
(-70.9274 2308.05 -113.342)
(179.488 2439.03 -115.436)
(572.088 2549.06 -103.706)
(1108.05 2461.99 -91.3782)
(1556.43 2205.76 -66.1666)
(1929.8 1983.77 -24.9526)
(2173.73 1762.45 -89.5008)
(2291.57 1636.28 -84.6833)
(2368.56 1546.6 -65.7707)
(2423.94 1446.05 -62.209)
(2490.03 1360.77 -64.0969)
(2559.63 1295.12 -80.5975)
(2623.98 1235.77 -71.4798)
(2615.95 1213.05 -51.5572)
(2613.17 1153.74 -45.487)
(-822.519 1371.83 -75.2014)
(-516.6 1568.64 -69.6685)
(-366.124 1666.31 -69.0592)
(-309.18 1849.85 -71.2477)
(-224.968 2092.02 -100.975)
(-62.1883 2299.7 -110.221)
(181.499 2436.93 -113.369)
(535.108 2550.02 -101.799)
(1021.02 2502.65 -72.9041)
(1389.14 2299.89 -41.0761)
(1680.56 2154.14 -99.8575)
(2000.93 2042.16 -101.217)
(2148.61 1864.93 -81.906)
(2213.53 1711.83 -51.4187)
(2288.85 1636.44 -40.1484)
(2394.31 1596.84 -39.1036)
(2491.15 1548.73 -68.0839)
(2599.78 1478.6 -81.6477)
(2608.14 1434.3 -50.8771)
(2616.08 1343.32 -32.1131)
(-703.967 1470.12 -65.9554)
(-394.25 1608.84 -55.2491)
(-265.644 1685.34 -60.4291)
(-216.904 1829.59 -53.8229)
(-163.799 2055.48 -91.0627)
(-42.3273 2283.65 -105.518)
(182.431 2426.95 -108.802)
(501.562 2552.04 -102.666)
(946.831 2546.98 -67.358)
(1327.09 2420.58 -58.0084)
(1599.59 2281.1 -83.1737)
(1811.35 2155.9 -85.5598)
(1922.61 1953.65 -92.3041)
(2045.94 1838.35 -50.1596)
(2167.55 1759.61 0.888908)
(2302.55 1774.75 -8.47208)
(2403.34 1737.3 -24.7357)
(2499.93 1663.64 -61.6807)
(2526.11 1601.16 -51.9345)
(2584.26 1511.43 -35.6277)
(-619.641 1562.85 -71.9997)
(-321.135 1654.88 -62.4037)
(-191.88 1680.87 -58.6182)
(-127.794 1759.42 -51.0303)
(-97.1406 1986.95 -83.9664)
(-5.37281 2251.05 -100.205)
(198.567 2410.36 -102.642)
(468.508 2556.41 -94.5859)
(878.222 2576.97 -70.8187)
(1245.66 2501.46 -63.0711)
(1528.23 2365.67 -52.6493)
(1686.72 2212.21 -52.4392)
(1807.08 2058.16 -51.1886)
(1984.6 2007.98 -12.4772)
(2114.27 1930.62 14.7842)
(2218.67 1882.79 -14.0844)
(2301.04 1829.23 -13.1302)
(2385.83 1779.75 -66.1592)
(2446.41 1749.71 -61.084)
(2544.73 1672.82 -28.6844)
(-539.357 1634.69 -80.2881)
(-287.276 1710.89 -74.3354)
(-141.102 1711.93 -56.7004)
(-49.017 1730.07 -71.2827)
(-31.179 1885.3 -71.6018)
(35.9563 2173.04 -85.8359)
(230.431 2371.64 -99.822)
(454.307 2543.26 -82.1984)
(826.183 2611.15 -84.4171)
(1158.82 2549.77 -62.5637)
(1427.77 2415.98 -39.9268)
(1621.87 2281.77 -22.2489)
(1751.39 2166.73 -2.96896)
(1909.19 2121.65 9.10164)
(2010.18 2025.4 -8.10725)
(2093.45 1933.27 -6.41806)
(2174.71 1870.47 11.0244)
(2263.65 1842.17 -29.4071)
(2342.61 1865.74 -9.65018)
(2486.58 1824.7 11.0838)
(-482.104 1711.46 -78.5698)
(-265.169 1772.79 -75.2158)
(-118.751 1766.12 -50.5109)
(-24.4344 1761.74 -82.1259)
(55.1681 1826.34 -60.8955)
(89.5708 2047.84 -52.9947)
(268.494 2288.95 -72.5224)
(459.844 2514.46 -72.98)
(777.002 2614.22 -83.0656)
(1080.22 2582.29 -64.3426)
(1339.28 2478.19 -31.7247)
(1577.58 2384.23 -12.6474)
(1765.04 2300.36 -4.45176)
(1882 2223.94 -16.6975)
(1927.71 2107.95 -12.6084)
(1992.59 2002.19 19.481)
(2077.17 1947.99 22.3107)
(2179.64 1929.68 5.03976)
(2279.34 1992.47 27.4787)
(2439.21 1969.4 20.6342)
(-436.752 1791.08 -84.4201)
(-246.528 1842.1 -81.4531)
(-103.028 1832.44 -52.0466)
(-5.1829 1819.84 -87.0277)
(95.4867 1843.03 -74.9847)
(158.168 1978.68 -67.0848)
(334.855 2173.07 -41.5928)
(471.207 2453.25 -52.5453)
(748.852 2580.85 -66.508)
(1013.4 2609.64 -49.9715)
(1272.89 2544.03 -45.708)
(1522.63 2474.42 -40.2954)
(1721.59 2396.3 -11.5822)
(1837.69 2303.83 -5.87735)
(1879.7 2182.07 10.6373)
(1952.77 2083.08 24.4599)
(2044.65 2039.62 31.4563)
(2151.88 2031.3 41.9892)
(2247.31 2084.29 35.0594)
(2388.24 2059.27 6.78209)
(-415.114 1879.51 -94.7684)
(-237.839 1920.75 -91.4703)
(-94.8515 1911.38 -57.6111)
(12.3552 1896.38 -94.7795)
(113.687 1886.23 -90.5561)
(200.601 1984.62 -91.2024)
(375.221 2101.78 -65.8099)
(498.596 2359.65 -31.3374)
(749.519 2523.04 -35.6918)
(980.135 2595.76 -20.8245)
(1212.32 2606.71 -45.164)
(1453.26 2581.31 -57.9961)
(1650.87 2492.88 -43.1614)
(1784.18 2387.38 -49.8983)
(1856.17 2266.27 -19.477)
(1948.04 2177.51 11.2842)
(2047.24 2141.14 40.247)
(2156.9 2139.23 50.0742)
(2231.83 2159.36 -0.364036)
(2342.82 2133.31 -35.187)
(-387.935 1953.91 -102.759)
(-228.632 1991.43 -102.081)
(-91.3676 1986.17 -64.3588)
(26.785 1970.84 -95.3305)
(130.156 1939.99 -101.41)
(234.338 2009.84 -104.076)
(388.455 2103.41 -86.6434)
(500.249 2303.19 -57.3936)
(742.965 2442.46 -32.9409)
(964.876 2548.95 -8.00606)
(1185.82 2598.7 -30.9579)
(1407.44 2592.33 -30.1448)
(1586.66 2517.02 -32.367)
(1743.14 2440.52 -38.9953)
(1867.91 2341.26 9.83485)
(2005.4 2277.2 43.6027)
(2107.81 2239.83 49.3814)
(2182.56 2226.06 8.19478)
(2218.78 2202.83 -42.6003)
(2288.2 2180.71 -37.5004)
(-362.485 2090.31 -109.375)
(-220.54 2120.76 -112.836)
(-93.0944 2123.08 -79.4021)
(32.6555 2110.82 -99.7352)
(139.528 2063.38 -114.427)
(249.825 2098.78 -118.572)
(395.787 2153.42 -101.377)
(490.316 2316.63 -72.7825)
(712.562 2433.83 -49.843)
(919.924 2534.28 -22.614)
(1127.01 2599.92 -30.2078)
(1318.55 2604.81 -16.5433)
(1492.62 2575.03 -18.4513)
(1658.29 2535.78 -8.94769)
(1814.72 2479.71 30.6489)
(1968.63 2433.29 42.0703)
(2075.35 2384.33 29.7981)
(2151.96 2344.34 -16.0664)
(2199.68 2276.85 -27.4498)
(2286.78 2264.09 -6.76615)
(-942.294 -938.904 -39.3222)
(-728.153 -977.126 -24.4247)
(-603.049 -1022.51 -23.8111)
(-534.189 -1136.35 -23.6059)
(-350.22 -1241.27 -35.1489)
(-108.257 -1284.66 -42.1976)
(158.958 -1283.56 -46.3226)
(456.431 -1290.72 -45.1317)
(786.72 -1262.34 -48.1379)
(1043.42 -1139.44 -30.6526)
(1249.9 -995.496 -44.9328)
(1384.92 -854.106 -39.9736)
(1485.28 -735.16 -31.0283)
(1579.31 -649.593 -34.182)
(1651.26 -568.097 -42.0616)
(1727.02 -509.191 -44.0571)
(1804.65 -461.218 -50.2912)
(1891.51 -438.749 -59.0997)
(1964.77 -411.761 -66.9567)
(2098.74 -386.204 -73.5309)
(-976.676 -724.756 -24.811)
(-770.419 -768.262 -5.59228)
(-669.114 -828.117 0.51532)
(-724.473 -998.329 -1.38064)
(-454.63 -1207.72 -32.8462)
(-151.472 -1246.23 -38.9573)
(147.993 -1230.31 -41.1532)
(516.663 -1241.91 -38.6205)
(973.594 -1165.84 -39.8312)
(1290.16 -937.34 -14.6939)
(1490.83 -711.796 -32.6614)
(1585.8 -540.541 -28.5386)
(1635.23 -419.209 -16.619)
(1677.12 -338.504 -20.1289)
(1731 -298.123 -31.306)
(1790.49 -278.56 -35.9655)
(1856.7 -261.398 -43.7394)
(1933.3 -254.055 -52.9038)
(2003 -246.041 -63.4024)
(2130.12 -238.549 -73.8609)
(-1015.19 -600.987 -24.4313)
(-819.462 -665.94 -3.60201)
(-781.948 -783.034 26.6876)
(-883.849 -988.31 -10.6711)
(-515.386 -1220.93 -36.2293)
(-161.682 -1222.47 -38.4726)
(146.592 -1200.02 -36.9706)
(562.198 -1210.17 -33.6873)
(1115.48 -1056.25 -24.6635)
(1429.35 -711.67 -14.0335)
(1566.61 -503.101 -27.7818)
(1663.47 -367.895 -23.5465)
(1703.06 -269.823 -18.1767)
(1708.27 -199.122 -16.7776)
(1736.85 -145.282 -17.6641)
(1785.43 -126.977 -12.6842)
(1846.94 -115.4 -15.8894)
(1921.09 -109.715 -22.1014)
(1993.45 -105.725 -31.4826)
(2128.39 -107.439 -47.3984)
(-1123.02 -525.545 -23.414)
(-984.421 -718.771 -7.62423)
(-985.479 -894.267 -23.0853)
(-1014.66 -1028.69 -33.4612)
(-695.184 -1117.86 -32.338)
(-263.278 -1197.22 -47.2897)
(64.172 -1164.8 -46.5541)
(430.839 -1158.29 -40.2983)
(1087.86 -1049.09 -27.8434)
(1751.45 -496.038 -7.41073)
(1821 -373.968 -12.8138)
(1865.96 -279.755 -22.5225)
(1862.99 -185.646 -15.8753)
(1801.74 -106.551 -12.2366)
(1763.66 -32.3045 -36.3016)
(1786.68 -6.32683 -49.3866)
(1836.13 -1.66908 -56.0282)
(1905.82 5.10158 -62.6072)
(1976.33 13.9179 -63.8762)
(2110.83 16.5246 -69.0516)
(-1232.69 -353.524 -36.1006)
(-1200.64 -463.152 -40.5004)
(-1222.48 -522.957 -50.3047)
(-1118.67 -730.433 -43.1887)
(1764.13 -508.908 -68.5038)
(2201.17 -314.644 -71.2222)
(2182.9 -278.075 -70.7008)
(2159.15 -234.055 -71.1762)
(2125.81 -179.287 -64.1277)
(2069 -104.044 -62.3243)
(1977.04 -29.3777 -59.5146)
(1905.06 57.215 -45.1663)
(1907.21 107.335 -55.1344)
(1939.96 120.073 -64.6768)
(1982.94 131.07 -74.0521)
(2089.78 135.053 -86.0375)
(-1282.01 -110.718 -40.3368)
(-1244.13 -156.439 -38.2273)
(-1221.68 -164.836 -40.4568)
(-1200.99 -266.057 -50.8196)
(2312.24 -149.749 -93.9753)
(2400.73 -70.8222 -78.1839)
(2403.56 -69.9683 -74.9711)
(2401.09 -62.5861 -74.4396)
(2387.84 -45.9597 -71.7293)
(2362.67 -12.2172 -72.7739)
(2304.41 39.9542 -71.57)
(2196.52 93.7172 -37.2516)
(2095.38 153.317 -41.0683)
(2080.95 189.221 -70.9379)
(2093.53 223.17 -87.5168)
(2163.06 239.485 -100.476)
(-1280.83 156.471 -47.9831)
(-1229.24 142.478 -43.1189)
(-1199.39 141.632 -37.0438)
(-1163.65 65.5342 -47.0836)
(2429.65 95.8196 -96.7929)
(2533.08 177.407 -77.7994)
(2548.49 178.581 -80.3639)
(2553.19 184.143 -78.422)
(2549.73 185.54 -76.882)
(2538.77 196.406 -71.3409)
(2514.65 223.276 -71.3871)
(2454.58 262.096 -63.6729)
(2353.55 321.402 -28.9508)
(2248.91 370.308 -31.0536)
(2221.78 392.155 -71.816)
(2246.3 395.471 -85.3697)
(-1286.43 454.095 -46.2133)
(-1239.82 511.903 -39.7449)
(-1208.46 555.583 -36.2838)
(-1155.08 430.36 -47.4134)
(2543.24 392.852 -86.9953)
(2636.02 595.269 -57.545)
(2658.69 569.129 -62.665)
(2675.05 539.732 -68.1212)
(2679.63 511.012 -67.6599)
(2689.17 481.975 -67.6574)
(2681.91 460.11 -61.1476)
(2663.92 460.952 -55.4198)
(2621.21 475.431 -46.7493)
(2543.35 500.226 -17.9549)
(2451.45 517.371 -30.7888)
(2441.75 500.475 -58.4699)
(-1262.23 786.156 -55.506)
(-1174.14 971.394 -52.3673)
(-1069.01 1108.25 -43.4202)
(-1055.08 1078.87 -56.0762)
(-519.806 1772.6 -81.6813)
(-170.775 2305.59 -91.5586)
(81.0313 2420.87 -92.4425)
(395.523 2549.52 -95.2017)
(2103.82 1947.52 -96.8116)
(2507.9 1316.44 -78.2964)
(2554.32 1130.77 -50.1656)
(2600.76 1033.01 -36.0486)
(2654.18 967.046 -51.5961)
(2689.72 899.669 -59.0374)
(2718.23 845.492 -63.2096)
(2742.74 796.648 -62.9341)
(2724.72 763.254 -53.885)
(2686.34 757.439 -32.0989)
(2609.68 768.097 -18.8201)
(2570.03 734.949 -39.9946)
(-1141.02 1045.35 -42.9958)
(-950.293 1296.03 -34.1035)
(-732.414 1435.28 -36.7805)
(-536.447 1752.79 -40.0061)
(-326.362 2187.78 -64.226)
(-78.9966 2378.66 -72.8888)
(170.471 2512.91 -73.576)
(605.829 2616.46 -62.3938)
(1298.82 2488.19 -104.227)
(2015.91 2062.73 -139.581)
(2379.6 1696.43 -16.0766)
(2400.94 1436.74 2.46063)
(2507.32 1351.24 -54.2604)
(2590.11 1270.05 -63.4469)
(2652.91 1189.87 -44.0239)
(2692.12 1110.3 -36.9715)
(2731.39 1045.58 -49.7127)
(2732.44 997.601 -28.0092)
(2697.02 990.819 -10.7889)
(2667.03 949.554 -18.4031)
(-995.215 1250.67 -59.7534)
(-721.656 1493.77 -54.2476)
(-523.177 1565.54 -45.4878)
(-419.066 1826.7 -27.0016)
(-286.285 2170.4 -66.8801)
(-80.9754 2382.57 -71.1262)
(171.646 2528.36 -73.7018)
(576.818 2641.75 -67.4726)
(1132.75 2550.01 -62.2531)
(1620.02 2299 -10.5815)
(2046.32 2058.97 -20.1132)
(2266.95 1782.27 -125.401)
(2362.98 1647.9 -71.4717)
(2447.02 1557.23 -10.0888)
(2518.96 1471.53 -7.68795)
(2580.44 1380.68 -21.4468)
(2642.83 1307.51 -55.7173)
(2714.44 1242.32 -66.5399)
(2725.42 1215.59 -38.8209)
(2722.73 1159.1 -29.4674)
(-851.283 1381.99 -56.1027)
(-544.951 1582.42 -51.9355)
(-388.399 1664.51 -44.7602)
(-330.982 1870.3 -30.2311)
(-243.048 2146.31 -65.3157)
(-75.0093 2380.59 -71.1134)
(176.364 2531.03 -70.0942)
(542.118 2656.16 -70.3386)
(1033.83 2594.49 -35.2988)
(1406.48 2371.8 4.11452)
(1730.47 2225.01 -113.587)
(2064.08 2074.5 -122.307)
(2226.95 1899.4 10.7601)
(2306.1 1756.58 23.9363)
(2372.56 1671 -20.4091)
(2464.47 1616.58 -39.3893)
(2548.02 1551.87 -53.2869)
(2661.82 1489.35 -70.7847)
(2708.99 1443.88 -26.3473)
(2721.62 1352.33 -9.83874)
(-731.498 1480.32 -47.8357)
(-419.449 1626.59 -39.0039)
(-285.235 1705.62 -41.5489)
(-234.924 1873.35 -29.6745)
(-187.013 2117.82 -60.3122)
(-60.9606 2368.76 -69.9952)
(177.237 2526.83 -68.5312)
(508.828 2655.4 -64.0353)
(959.881 2642.32 -42.3906)
(1342.12 2495.48 -38.2688)
(1617.23 2325.88 -61.9733)
(1866.88 2204.47 7.32098)
(2013.29 2012.26 16.1556)
(2134.91 1880.5 -43.8781)
(2225.69 1782.12 -25.8652)
(2349.86 1777.6 -14.4518)
(2456.67 1739.98 3.86443)
(2563.66 1684.04 -13.7806)
(2621.1 1624.52 -17.5409)
(2680.68 1522.16 -15.6249)
(-646.845 1573.96 -50.6297)
(-340.612 1668.74 -40.2766)
(-213.101 1701.54 -37.2058)
(-152.821 1813.1 -33.188)
(-118.058 2063.45 -64.0636)
(-30.5484 2344.19 -72.0758)
(187.289 2515.1 -64.6748)
(476.061 2664.62 -61.8527)
(889.097 2675.28 -47.4216)
(1261.66 2583.02 -44.1453)
(1547.19 2427.52 -4.02836)
(1735.35 2276.55 19.713)
(1862.02 2115.73 -41.421)
(2037.28 2043.09 -51.8782)
(2167.04 1956.38 7.13876)
(2278.47 1912.26 22.2334)
(2368.96 1858.61 38.5093)
(2452.19 1812.56 -12.5402)
(2528.38 1775.51 -42.4919)
(2626.99 1684.59 -23.24)
(-566.255 1645.63 -56.8488)
(-303.09 1723.04 -47.7225)
(-159.598 1728.09 -32.4228)
(-64.3735 1759.42 -47.7753)
(-54.2732 1966.36 -60.3664)
(16.611 2285.03 -69.2999)
(212.344 2490.15 -66.7099)
(450.586 2657.22 -56.0307)
(834.148 2706.1 -55.4485)
(1177.08 2644.3 -29.2115)
(1456.48 2503.48 8.05416)
(1659.6 2354.13 1.12375)
(1778.17 2208.52 -17.8083)
(1941.79 2159.77 4.28968)
(2069.63 2074.96 23.3735)
(2160.33 1979.89 46.4298)
(2246.14 1904.53 66.1832)
(2326.78 1859.12 5.3727)
(2408.16 1871.18 -7.88083)
(2551.4 1826.38 9.07436)
(-508.383 1721.4 -57.4952)
(-282.89 1783.43 -50.1538)
(-138.116 1777.62 -26.8616)
(-29.8827 1778.71 -56.1598)
(32.547 1886.95 -42.5413)
(64.2067 2172.35 -37.4553)
(248.001 2428.22 -58.9772)
(450.7 2638.72 -51.1885)
(783.367 2728.43 -58.3744)
(1096.14 2684.47 -26.172)
(1364.7 2571.84 0.270541)
(1604.25 2453.93 -9.82394)
(1777.9 2337.32 -7.52605)
(1911.5 2270.91 12.6546)
(1980.2 2163.99 36.7865)
(2045.32 2047.38 69.0854)
(2126.56 1973.42 56.0846)
(2225.27 1931 12.3681)
(2313.75 1979.43 22.6034)
(2486.97 1966.68 26.4888)
(-460.817 1799.41 -62.0139)
(-264.534 1850.9 -55.9319)
(-124.067 1841.4 -29.8084)
(-19.7811 1828.64 -61.978)
(85.665 1887.79 -52.5303)
(125.453 2070.6 -42.8505)
(304.337 2324.79 -27.5307)
(462.572 2594.5 -42.4691)