/*--------------------------------*- C++ -*----------------------------------*\
  =========                 |
  \\      /  F ield         | OpenFOAM: The Open Source CFD Toolbox
   \\    /   O peration     | Website:  https://openfoam.org
    \\  /    A nd           | Version:  9
     \\/     M anipulation  |
\*---------------------------------------------------------------------------*/
FoamFile
{
    format      ascii;
    class       volScalarField;
    location    "0.002";
    object      alpha.C4;
}
// * * * * * * * * * * * * * * * * * * * * * * * * * * * * * * * * * * * * * //

dimensions      [0 0 0 0 0 0 0];

internalField   nonuniform List<scalar> 
9720
(
0.971688
0.984384
0.986324
0.988066
0.989436
0.990268
0.990862
0.991317
0.991267
0.990656
0.989094
0.986325
0.9821
0.975931
0.966967
0.953939
0.935457
0.907877
0.876283
0.789395
0.984365
0.994479
0.995668
0.99672
0.997383
0.997757
0.998099
0.998394
0.998536
0.998447
0.99815
0.997541
0.996362
0.994167
0.990224
0.983337
0.97191
0.952321
0.927751
0.849133
0.986273
0.995617
0.996651
0.997603
0.998192
0.998446
0.998721
0.998954
0.999044
0.99894
0.998688
0.998229
0.997413
0.995901
0.993052
0.987765
0.978506
0.961924
0.940056
0.86525
0.988017
0.996634
0.997498
0.996497
0.997485
0.997729
0.998108
0.998543
0.998729
0.999146
0.998897
0.998489
0.9978
0.996553
0.994201
0.989762
0.981802
0.967148
0.947292
0.875578
0.989429
0.997381
0.998177
0.997319
0.998419
0.998773
0.998428
0.997922
0.997096
0.995647
0.993007
0.988185
0.979781
0.96467
0.944615
0.872252
0.990319
0.997841
0.99853
0.997868
0.996906
0.996476
0.995857
0.995086
0.993981
0.992207
0.989115
0.98359
0.974198
0.95778
0.936627
0.862015
0.990926
0.998187
0.998798
0.998232
0.992741
0.988649
0.987802
0.986808
0.985481
0.983379
0.97976
0.973447
0.96287
0.944756
0.92207
0.8452
0.991367
0.998455
0.999005
0.998614
0.980892
0.971639
0.971099
0.970069
0.968527
0.966099
0.962052
0.955103
0.943492
0.923918
0.900191
0.823197
0.991296
0.998565
0.999073
0.998774
0.998408
0.996485
0.991013
0.976891
0.940002
0.934229
0.935669
0.937149
0.936805
0.935336
0.931915
0.925153
0.913258
0.893482
0.870355
0.795942
0.990661
0.998471
0.998964
0.999164
0.998771
0.996336
0.987826
0.969043
0.931194
0.905696
0.892793
0.889476
0.888756
0.887793
0.885333
0.879569
0.868823
0.851402
0.830718
0.757797
0.989081
0.99817
0.998706
0.998907
0.99843
0.99574
0.987051
0.968805
0.932359
0.89026
0.854384
0.832647
0.825158
0.823175
0.820998
0.816625
0.808597
0.794845
0.775314
0.694978
0.9863
0.997558
0.998243
0.998493
0.997917
0.994994
0.98613
0.96807
0.933791
0.88484
0.829193
0.781952
0.756459
0.747721
0.74374
0.739253
0.731477
0.716103
0.690569
0.590396
0.982077
0.996374
0.997425
0.997799
0.997081
0.993917
0.984868
0.96677
0.933572
0.884057
0.819784
0.75256
0.702965
0.676392
0.660737
0.645692
0.625405
0.595238
0.556362
0.439078
0.975919
0.994182
0.995918
0.996556
0.995628
0.992146
0.982827
0.964543
0.932349
0.883263
0.817564
0.741824
0.672412
0.617812
0.567362
0.511962
0.458015
0.411045
0.371064
0.262781
0.966982
0.990254
0.993085
0.994221
0.993001
0.989012
0.979273
0.960657
0.929214
0.881091
0.815505
0.737306
0.654593
0.564261
0.444365
0.311381
0.231806
0.199286
0.176216
0.102988
0.954002
0.983397
0.987825
0.98981
0.988213
0.983472
0.972992
0.95384
0.922706
0.875723
0.811484
0.7329
0.639486
0.509309
0.312905
0.130943
0.063419
0.0513189
0.0423107
0.0169661
0.935581
0.972012
0.9786
0.981883
0.979853
0.974106
0.962419
0.942284
0.910971
0.865337
0.803917
0.725689
0.62074
0.458212
0.235487
0.0646742
0.0103794
0.00444998
0.00269632
0.000555054
0.90807
0.952472
0.962055
0.967261
0.964793
0.95775
0.944343
0.922771
0.891323
0.848119
0.790523
0.711479
0.592973
0.413249
0.202133
0.051567
0.00430207
0.0001212
1.91437e-05
1.12543e-06
0.876542
0.927959
0.940231
0.947449
0.944802
0.936673
0.9217
0.89909
0.868287
0.827601
0.771422
0.68723
0.555762
0.373035
0.177021
0.0415577
0.00251003
1.64875e-05
9.72525e-09
2.48546e-11
0.789717
0.849448
0.865538
0.875876
0.872591
0.862196
0.844887
0.82215
0.794081
0.755211
0.692207
0.588655
0.438728
0.262166
0.101164
0.0160414
0.000492277
9.11586e-07
1.84163e-11
3.72928e-17
0.979391
0.99027
0.991662
0.992853
0.993749
0.994265
0.994594
0.994858
0.994785
0.994317
0.993164
0.991088
0.987835
0.983003
0.975848
0.965234
0.94984
0.926232
0.89896
0.819641
0.990285
0.998097
0.998698
0.999133
0.999345
0.999456
0.99955
0.999627
0.999645
0.999599
0.99945
0.999123
0.998429
0.996998
0.994232
0.989129
0.980286
0.964404
0.944105
0.874707
0.991656
0.998683
0.999205
0.99961
0.999742
0.999789
0.999832
0.999866
0.999867
0.999809
0.999672
0.999415
0.998925
0.997945
0.995964
0.992072
0.984951
0.97163
0.953709
0.888234
0.992826
0.999108
0.999592
0.999921
0.999995
0.999997
0.999998
0.999999
0.999997
0.999918
0.999757
0.999502
0.999064
0.998229
0.996565
0.993269
0.987121
0.975369
0.959253
0.897236
0.993732
0.999341
0.999737
0.999993
0.999969
0.999501
0.999173
0.998735
0.998098
0.997024
0.995053
0.991356
0.984732
0.972491
0.956155
0.893477
0.994284
0.999476
0.999801
0.999997
0.998883
0.995863
0.995456
0.994877
0.994028
0.992618
0.990132
0.985758
0.978247
0.96485
0.947482
0.882528
0.994629
0.999571
0.999843
0.999998
0.992464
0.984313
0.984105
0.983623
0.982792
0.981308
0.978593
0.973709
0.965338
0.950623
0.931924
0.864594
0.994874
0.99964
0.999873
0.999999
0.976617
0.962418
0.962728
0.962469
0.961737
0.960293
0.957589
0.95261
0.943799
0.928106
0.908434
0.840447
0.994805
0.999657
0.999875
0.999997
0.999973
0.999169
0.99396
0.97904
0.930896
0.922512
0.923807
0.925767
0.926394
0.92586
0.924025
0.919729
0.911163
0.895354
0.875904
0.810198
0.994346
0.999616
0.999824
0.999931
0.999661
0.997091
0.987822
0.967937
0.925792
0.896798
0.882674
0.878144
0.877725
0.877216
0.875909
0.872391
0.864686
0.850393
0.832992
0.770757
0.993209
0.99948
0.999702
0.99979
0.999354
0.996557
0.987205
0.967705
0.92796
0.884257
0.848816
0.82616
0.816914
0.81442
0.81269
0.809602
0.803503
0.792409
0.777245
0.712977
0.991159
0.999174
0.999472
0.999564
0.998945
0.995851
0.986335
0.96693
0.93044
0.881052
0.827013
0.779967
0.75156
0.741132
0.737399
0.73413
0.728891
0.718441
0.70071
0.622262
0.987949
0.998515
0.999023
0.999171
0.99835
0.99488
0.985123
0.96562
0.930464
0.880743
0.817916
0.751317
0.699564
0.672023
0.658639
0.648475
0.635752
0.614999
0.58597
0.487828
0.983185
0.997142
0.998105
0.998408
0.997344
0.99338
0.983264
0.963579
0.929661
0.880224
0.815462
0.740268
0.670691
0.619246
0.578563
0.537914
0.497285
0.457157
0.42069
0.319758
0.976132
0.99447
0.99622
0.99685
0.995477
0.990913
0.980232
0.960292
0.927313
0.878681
0.813565
0.736188
0.65637
0.576887
0.482548
0.37353
0.294616
0.254446
0.228398
0.149214
0.965663
0.989508
0.992469
0.993705
0.991926
0.986631
0.975164
0.954775
0.922361
0.874553
0.810099
0.73285
0.646011
0.535421
0.371992
0.196714
0.10733
0.0839772
0.07071
0.0337648
0.950454
0.980856
0.98554
0.987757
0.985478
0.979233
0.96672
0.945566
0.913121
0.866141
0.803725
0.727867
0.63359
0.494462
0.290964
0.104
0.024494
0.011037
0.00704323
0.00185319
0.927082
0.965231
0.972479
0.976273
0.973459
0.965945
0.95194
0.929596
0.896895
0.851655
0.792952
0.717982
0.613364
0.453789
0.24819
0.0779436
0.00942632
0.00048607
9.81834e-05
8.38715e-06
0.900072
0.945228
0.95485
0.96046
0.957372
0.948681
0.933169
0.90976
0.877327
0.83438
0.778167
0.700695
0.584402
0.416073
0.219927
0.0637023
0.00559918
6.56868e-05
1.05572e-07
6.72203e-10
0.821232
0.876483
0.890052
0.899198
0.895289
0.883977
0.86576
0.841611
0.811592
0.772299
0.714026
0.621856
0.484528
0.312301
0.139806
0.0290952
0.00138461
4.98096e-06
3.04614e-10
1.11302e-15
0.985552
0.99411
0.994991
0.995733
0.996288
0.99655
0.996687
0.996801
0.996729
0.996361
0.995483
0.993895
0.991356
0.987521
0.981737
0.972992
0.960105
0.939944
0.916083
0.843545
0.99414
0.999651
0.999835
0.999913
0.999939
0.999952
0.999958
0.999961
0.99996
0.999941
0.999872
0.999692
0.999257
0.998262
0.996215
0.992257
0.985177
0.972129
0.954958
0.893059
0.995011
0.999834
0.999951
0.999987
0.999993
0.999995
0.999996
0.999996
0.999996
0.99998
0.999927
0.999789
0.999467
0.998757
0.997241
0.994145
0.988329
0.977244
0.962043
0.903987
0.995732
0.999912
0.999987
1
1
1
1
1
1
0.999971
0.999908
0.999768
0.999465
0.998824
0.997478
0.994735
0.989546
0.979539
0.965637
0.910376
0.996278
0.99994
0.999993
1
0.999961
0.99936
0.999092
0.998761
0.998265
0.997387
0.995732
0.992602
0.986952
0.976383
0.962073
0.905909
0.996551
0.999953
0.999995
1
0.997861
0.994773
0.994373
0.993894
0.993229
0.992112
0.990091
0.986423
0.980033
0.968352
0.952889
0.89418
0.9967
0.999959
0.999996
1
0.988266
0.981249
0.981081
0.980749
0.980214
0.979203
0.977186
0.973304
0.966355
0.953586
0.936838
0.875569
0.996801
0.999962
0.999996
1
0.967104
0.956614
0.957593
0.957584
0.957278
0.956472
0.954668
0.950936
0.943851
0.930418
0.912809
0.850653
0.996732
0.999961
0.999996
1
0.99998
0.998581
0.991072
0.973633
0.923238
0.916984
0.918116
0.919885
0.921101
0.920956
0.919967
0.917034
0.910388
0.897002
0.879635
0.819721
0.996375
0.999944
0.999984
0.999984
0.99954
0.995782
0.984163
0.962811
0.92164
0.892754
0.879107
0.873521
0.873162
0.872843
0.872105
0.869743
0.863693
0.85145
0.836107
0.781132
0.995515
0.999885
0.999942
0.99994
0.999309
0.995381
0.983956
0.963055
0.924009
0.882081
0.849205
0.826738
0.815764
0.812523
0.810941
0.808434
0.803243
0.793797
0.781421
0.728857
0.993953
0.999721
0.999828
0.999832
0.999023
0.994893
0.98354
0.962785
0.926511
0.879577
0.830037
0.785712
0.755633
0.743085
0.73897
0.736032
0.731907
0.724369
0.711786
0.651808
0.991446
0.999318
0.999548
0.999579
0.998587
0.994228
0.982863
0.962084
0.927254
0.87949
0.820825
0.758183
0.706472
0.677333
0.664549
0.656954
0.648945
0.635582
0.615153
0.538436
0.98766
0.998376
0.998898
0.999004
0.997789
0.993146
0.981684
0.960839
0.926834
0.879111
0.817952
0.746562
0.67854
0.628445
0.59446
0.565743
0.537353
0.506084
0.475107
0.386375
0.981951
0.996407
0.997466
0.997749
0.996225
0.991191
0.979509
0.95862
0.925408
0.878111
0.816279
0.742575
0.665995
0.594384
0.521501
0.439564
0.368818
0.322609
0.292787
0.210244
0.973312
0.992564
0.994493
0.995139
0.993197
0.987577
0.975502
0.954507
0.921946
0.875282
0.813513
0.739666
0.658381
0.564711
0.437013
0.28056
0.172426
0.131874
0.11218
0.062168
0.960575
0.985644
0.988846
0.990134
0.987682
0.98123
0.968439
0.947061
0.914723
0.868654
0.80804
0.735591
0.650192
0.534658
0.361806
0.166193
0.0521869
0.0239946
0.0160126
0.00533057
0.940628
0.972826
0.978
0.980386
0.977292
0.969566
0.955467
0.933168
0.900695
0.855898
0.798429
0.727957
0.636219
0.50136
0.312142
0.121932
0.0209049
0.00166826
0.000395141
4.96588e-05
0.916999
0.955904
0.963059
0.966759
0.963168
0.954098
0.938479
0.915176
0.882909
0.840243
0.785819
0.715004
0.61487
0.468745
0.280798
0.101723
0.0131862
0.000286295
1.02327e-06
1.39485e-08
0.844976
0.894621
0.905668
0.912229
0.907509
0.895469
0.876901
0.852638
0.822684
0.78488
0.732423
0.653398
0.535585
0.377768
0.198682
0.0551323
0.00423968
3.29922e-05
7.44922e-09
4.7898e-14
0.987398
0.994967
0.995687
0.996313
0.996793
0.997002
0.997107
0.997191
0.997123
0.996783
0.995976
0.994512
0.992158
0.988582
0.983161
0.974933
0.962801
0.943814
0.921257
0.851768
0.995005
0.999797
0.999915
0.999956
0.99997
0.999976
0.999977
0.999978
0.999976
0.99996
0.999902
0.999741
0.999346
0.998431
0.996523
0.992811
0.986164
0.973918
0.957749
0.898709
0.99572
0.999916
0.999983
0.999997
0.999998
0.999999
0.999999
0.999999
0.999998
0.999987
0.999943
0.999818
0.999514
0.998842
0.997412
0.994493
0.989006
0.978551
0.96419
0.908725
0.996325
0.999958
0.999997
1
1
1
1
1
1
0.999971
0.999907
0.999771
0.999478
0.998859
0.997571
0.994957
0.990025
0.980542
0.967356
0.914443
0.99679
0.999971
0.999998
1
0.999961
0.999235
0.998927
0.998585
0.998104
0.997278
0.995727
0.992768
0.98741
0.977368
0.963734
0.909818
0.997007
0.999976
0.999999
1
0.997618
0.994091
0.993677
0.993192
0.992562
0.991566
0.989778
0.986433
0.980457
0.969345
0.954514
0.897881
0.997117
0.999977
0.999999
1
0.987789
0.980966
0.980625
0.980086
0.979413
0.978429
0.976643
0.973186
0.966792
0.954648
0.938503
0.879146
0.997198
0.999978
0.999999
1
0.968658
0.959152
0.958947
0.958358
0.957448
0.956296
0.954493
0.95109
0.944541
0.931731
0.91475
0.854496
0.997128
0.999976
0.999998
1
0.999972
0.998039
0.98876
0.970187
0.925116
0.920842
0.9216
0.922782
0.922704
0.922194
0.92096
0.918058
0.911743
0.898903
0.882169
0.82406
0.996791
0.999962
0.999988
0.999978
0.999352
0.994535
0.981635
0.960028
0.921655
0.896061
0.884272
0.878984
0.876722
0.875677
0.874605
0.872167
0.866358
0.854568
0.839701
0.786287
0.995991
0.999907
0.999948
0.999927
0.999089
0.994195
0.981533
0.960419
0.923149
0.884836
0.855273
0.83386
0.821439
0.817209
0.815363
0.812862
0.807879
0.798648
0.786604
0.735996
0.994537
0.999757
0.999836
0.999812
0.998795
0.993805
0.981286
0.960254
0.925011
0.880492
0.834883
0.792936
0.762761
0.749644
0.745554
0.742799
0.738853
0.73147
0.719491
0.662993
0.992196
0.999384
0.999561
0.999554
0.998371
0.993289
0.980891
0.959801
0.925956
0.880149
0.824272
0.764198
0.713588
0.684935
0.672891
0.665992
0.658604
0.646416
0.627691
0.556332
0.988644
0.998499
0.998936
0.998987
0.997613
0.992425
0.980154
0.959047
0.925808
0.879861
0.821151
0.752027
0.685488
0.636488
0.604522
0.579039
0.553689
0.525072
0.495642
0.411753
0.983263
0.996641
0.997567
0.997769
0.996139
0.990756
0.978572
0.957542
0.924972
0.879234
0.819764
0.74843
0.673608
0.604078
0.536872
0.464336
0.398357
0.35093
0.319549
0.238206
0.975097
0.993
0.994727
0.995247
0.993269
0.987495
0.975231
0.954285
0.922335
0.877111
0.817551
0.745996
0.666904
0.577871
0.462295
0.317307
0.205199
0.156272
0.133501
0.0795235
0.963059
0.986453
0.989345
0.990433
0.988009
0.981556
0.968816
0.947692
0.916057
0.871386
0.812697
0.742284
0.659701
0.551799
0.393584
0.200692
0.0707558
0.0327662
0.0224272
0.00853816
0.944218
0.974354
0.97904
0.981112
0.97809
0.970458
0.956554
0.934647
0.902904
0.859307
0.803332
0.734987
0.647591
0.522677
0.34465
0.149372
0.0301605
0.00289313
0.000741329
0.00011787
0.921834
0.958353
0.964847
0.9681
0.964586
0.955649
0.940254
0.917351
0.885721
0.843998
0.790994
0.722919
0.628834
0.493129
0.313137
0.126608
0.0200113
0.000607443
3.29259e-06
6.60724e-08
0.85277
0.899773
0.909843
0.915662
0.911044
0.899173
0.880725
0.856655
0.826972
0.789875
0.739736
0.665929
0.55715
0.409329
0.232854
0.0749636
0.00751014
9.19309e-05
4.43744e-08
5.10477e-13
0.987703
0.99508
0.995779
0.99639
0.996856
0.997063
0.997166
0.997246
0.997177
0.996838
0.99603
0.99456
0.992213
0.988661
0.983291
0.975151
0.96317
0.944444
0.922247
0.85361
0.995119
0.999804
0.999918
0.999958
0.999971
0.999976
0.999978
0.999978
0.999977
0.999961
0.999902
0.999739
0.999335
0.998413
0.996506
0.992813
0.986229
0.974138
0.958229
0.899967
0.995803
0.999918
0.999984
0.999997
0.999998
0.999999
0.999999
0.999999
0.999998
0.999987
0.999943
0.999815
0.999504
0.998819
0.997384
0.994475
0.989028
0.978686
0.964535
0.909786
0.996397
0.999959
0.999997
1
1
1
1
1
1
0.999967
0.999895
0.999748
0.999442
0.998812
0.997522
0.994919
0.990023
0.980632
0.967624
0.915368
0.996862
0.999972
0.999998
1
0.999963
0.999076
0.998733
0.998362
0.997877
0.997079
0.995584
0.99269
0.987404
0.977471
0.964021
0.910772
0.997074
0.999977
0.999999
1
0.99713
0.992951
0.992675
0.992309
0.991814
0.990992
0.989414
0.986285
0.98048
0.969523
0.954899
0.898951
0.997179
0.999978
0.999999
1
0.98643
0.978847
0.978795
0.978575
0.978219
0.977598
0.976209
0.973122
0.966996
0.955056
0.939117
0.880345
0.997256
0.999979
0.999999
1
0.967614
0.957128
0.957189
0.95697
0.95644
0.955699
0.954337
0.951342
0.94511
0.932524
0.91572
0.855883
0.997185
0.999977
0.999998
1
0.999967
0.997458
0.987079
0.968449
0.924272
0.920245
0.921052
0.922462
0.922559
0.922283
0.921371
0.918827
0.912844
0.900222
0.88362
0.825728
0.996844
0.999962
0.999988
0.999973
0.999234
0.993887
0.980729
0.95962
0.921779
0.896695
0.885309
0.880051
0.877659
0.876697
0.8758
0.87364
0.868165
0.8566
0.841795
0.788318
0.996041
0.999907
0.999947
0.999913
0.998932
0.99357
0.980636
0.959812
0.923185
0.885993
0.857256
0.835859
0.82321
0.819096
0.817447
0.815192
0.810489
0.801379
0.789255
0.738268
0.994585
0.999754
0.999831
0.999786
0.998605
0.993191
0.980383
0.959593
0.924929
0.881306
0.836545
0.794887
0.76485
0.752083
0.748285
0.745738
0.741924
0.734478
0.722298
0.665259
0.992261
0.999373
0.999547
0.999513
0.998164
0.992702
0.98001
0.959068
0.925722
0.880634
0.825383
0.76581
0.715716
0.687555
0.675813
0.669039
0.661596
0.649182
0.630227
0.558483
0.988744
0.998485
0.998909
0.998934
0.997413
0.99189
0.979357
0.958334
0.92557
0.880313
0.822283
0.75372
0.687657
0.63894
0.607146
0.581883
0.556565
0.527748
0.498019
0.414344
0.983428
0.99663
0.997536
0.997711
0.995973
0.99032
0.977932
0.956971
0.924822
0.879751
0.821024
0.750349
0.675914
0.606432
0.539569
0.46803
0.402414
0.354306
0.322386
0.242017
0.975368
0.993016
0.994708
0.995197
0.993157
0.987212
0.974825
0.953964
0.92239
0.877775
0.818971
0.748095
0.669374
0.580602
0.466433
0.323354
0.210235
0.159484
0.136462
0.0830133
0.963496
0.986542
0.989373
0.990419
0.987972
0.981441
0.968682
0.947681
0.91638
0.872275
0.814314
0.744521
0.662324
0.555269
0.399653
0.207715
0.0742649
0.0341896
0.0237297
0.00948408
0.944925
0.974612
0.979193
0.981199
0.97818
0.970548
0.956717
0.934978
0.903536
0.860433
0.805063
0.737275
0.650485
0.527148
0.35165
0.155742
0.032457
0.00320418
0.000850118
0.000148705
0.922897
0.958882
0.965225
0.968383
0.964892
0.956015
0.940745
0.918021
0.88664
0.845296
0.792775
0.72531
0.632234
0.498428
0.320337
0.132766
0.022058
0.000737783
4.55418e-06
1.05774e-07
0.854655
0.901086
0.910959
0.916639
0.912089
0.900363
0.882021
0.858017
0.828388
0.791434
0.741712
0.668839
0.561738
0.416165
0.241074
0.0806782
0.00874432
0.000124637
7.85103e-08
1.22038e-12
0.987707
0.995078
0.995778
0.996393
0.996861
0.997065
0.997166
0.997246
0.997177
0.996836
0.996027
0.994557
0.992209
0.988654
0.983274
0.975118
0.963113
0.944356
0.922123
0.853419
0.995125
0.999804
0.999919
0.999959
0.99997
0.999976
0.999978
0.999978
0.999977
0.999961
0.999901
0.999734
0.999322
0.998391
0.996471
0.992761
0.986154
0.974029
0.958084
0.899757
0.995808
0.999918
0.999984
0.999997
0.999998
0.999999
0.999999
0.999999
0.999998
0.999987
0.999941
0.999808
0.999486
0.998783
0.997328
0.994401
0.988932
0.978555
0.964367
0.909555
0.996397
0.999959
0.999997
1
1
1
1
1
0.999999
0.999961
0.999882
0.999726
0.999406
0.998756
0.997446
0.994824
0.989906
0.980479
0.967432
0.915108
0.996857
0.999972
0.999998
1
0.999956
0.998975
0.99861
0.998227
0.997735
0.996933
0.995425
0.992524
0.987231
0.977276
0.963801
0.910526
0.997074
0.999977
0.999999
1
0.996416
0.992344
0.9921
0.991785
0.991352
0.990585
0.989032
0.985918
0.98014
0.969202
0.954587
0.898682
0.997181
0.999978
0.999999
1
0.984139
0.977585
0.97758
0.977456
0.977225
0.976724
0.975435
0.972433
0.966396
0.954539
0.938651
0.879961
0.997254
0.999979
0.999999
1
0.964797
0.955296
0.955393
0.955236
0.954848
0.95428
0.95308
0.950236
0.944159
0.931722
0.915011
0.855266
0.997184
0.999977
0.999998
1
0.999961
0.997069
0.986825
0.969303
0.925241
0.918828
0.919354
0.92048
0.920662
0.920456
0.919681
0.917315
0.91152
0.899075
0.88258
0.824781
0.996847
0.999962
0.999988
0.99997
0.99915
0.993567
0.980423
0.959722
0.921888
0.895794
0.883708
0.877961
0.87548
0.874572
0.873769
0.871743
0.866428
0.855025
0.840337
0.786993
0.996048
0.999906
0.999946
0.999904
0.998838
0.993271
0.980264
0.959616
0.923071
0.885386
0.856011
0.834033
0.820988
0.816738
0.815103
0.81291
0.808311
0.79935
0.787378
0.736621
0.994598
0.999751
0.999826
0.999771
0.998502
0.992898
0.979913
0.959125
0.924644
0.880974
0.83568
0.793448
0.762786
0.749528
0.745598
0.74307
0.739362
0.732121
0.72017
0.663468
0.992277
0.999367
0.999534
0.999489
0.998055
0.992406
0.979454
0.958343
0.924798
0.87971
0.824467
0.764679
0.71398
0.685015
0.672884
0.666101
0.658851
0.64678
0.628163
0.556789
0.988766
0.998478
0.998885
0.998896
0.997297
0.991584
0.978735
0.957422
0.924517
0.87919
0.821207
0.752733
0.686386
0.636908
0.604501
0.579139
0.55412
0.525776
0.496395
0.412918
0.983456
0.996623
0.997505
0.997662
0.995846
0.989999
0.977272
0.955966
0.923649
0.878505
0.819845
0.74935
0.674973
0.605151
0.537858
0.4663
0.401027
0.353215
0.321358
0.240914
0.975401
0.993011
0.994677
0.995144
0.993024
0.98689
0.974188
0.952997
0.921187
0.876457
0.817715
0.747049
0.668587
0.579983
0.465984
0.323216
0.210131
0.159119
0.135894
0.0823938
0.963535
0.986539
0.989343
0.990371
0.987843
0.981152
0.968132
0.946843
0.915256
0.870979
0.813031
0.743445
0.661612
0.555047
0.400023
0.208428
0.0746168
0.0341157
0.0235491
0.00935837
0.944965
0.974611
0.979165
0.981159
0.978054
0.970292
0.956259
0.934285
0.902583
0.859284
0.803867
0.736226
0.649776
0.526936
0.351961
0.156241
0.0326648
0.00320917
0.000838207
0.000145297
0.922932
0.958879
0.9652
0.968352
0.964762
0.955762
0.940331
0.91743
0.885851
0.844328
0.791712
0.724295
0.631432
0.49798
0.320276
0.132891
0.0221108
0.00074024
4.50191e-06
1.02146e-07
0.854658
0.901065
0.910939
0.916649
0.911957
0.900088
0.88163
0.857541
0.827834
0.790766
0.740881
0.667871
0.560732
0.415281
0.240461
0.0804124
0.00870616
0.000124
7.79739e-08
1.18575e-12
0.987409
0.994963
0.99569
0.99632
0.996797
0.997002
0.997105
0.997192
0.997123
0.996778
0.995962
0.994486
0.99212
0.988523
0.983064
0.974776
0.962565
0.943472
0.920805
0.851101
0.995021
0.999797
0.999916
0.999957
0.999969
0.999975
0.999977
0.999978
0.999976
0.99996
0.999898
0.999726
0.999309
0.998361
0.996406
0.992628
0.985892
0.973523
0.957228
0.897949
0.995727
0.999915
0.999983
0.999997
0.999998
0.999999
0.999999
0.999999
0.999998
0.999986
0.999939
0.999803
0.999473
0.998754
0.997267
0.994277
0.988698
0.978113
0.963618
0.907897
0.996323
0.999957
0.999997
1
1
1
1
1
0.999999
0.999965
0.999892
0.999738
0.999413
0.998744
0.997394
0.994705
0.989678
0.980056
0.966724
0.913526
0.996786
0.999971
0.999998
1
0.999958
0.999089
0.998734
0.998357
0.997848
0.99699
0.995384
0.99236
0.986922
0.976759
0.962996
0.908848
0.997009
0.999976
0.999999
1
0.996629
0.992916
0.992544
0.992136
0.991601
0.990688
0.988937
0.985597
0.979597
0.968409
0.953491
0.896728
0.997119
0.999978
0.999999
1
0.984545
0.977864
0.977774
0.977549
0.977197
0.976509
0.974969
0.971682
0.965366
0.953227
0.937042
0.877609
0.997201
0.999978
0.999999
1
0.964438
0.954335
0.954478
0.954299
0.953852
0.953154
0.951762
0.94867
0.942306
0.929611
0.912669
0.852386
0.997131
0.999976
0.999998
1
0.999964
0.997155
0.986022
0.966495
0.921309
0.915196
0.916078
0.917471
0.917997
0.917804
0.916991
0.91451
0.908521
0.895905
0.879289
0.821221
0.996787
0.999961
0.999987
0.999973
0.99924
0.993729
0.979516
0.95631
0.917115
0.890709
0.878351
0.872714
0.870857
0.870177
0.869441
0.867392
0.861957
0.850467
0.83582
0.782609
0.995978
0.999903
0.999944
0.999913
0.998944
0.99343
0.979517
0.957247
0.918874
0.87976
0.849272
0.827135
0.81468
0.81072
0.809119
0.806886
0.80221
0.793348
0.781657
0.731464
0.994515
0.999745
0.999821
0.999781
0.99862
0.993071
0.979395
0.957184
0.92093
0.875657
0.829216
0.786512
0.755755
0.742343
0.73832
0.735754
0.732123
0.725231
0.713721
0.657748
0.992171
0.999355
0.999524
0.999495
0.998162
0.992568
0.979103
0.956829
0.922022
0.875509
0.819136
0.758633
0.707238
0.677591
0.665134
0.658344
0.651356
0.639778
0.621594
0.550688
0.988617
0.998453
0.998865
0.998888
0.997361
0.991689
0.978458
0.956203
0.921944
0.875299
0.816304
0.747235
0.680255
0.630116
0.597302
0.571759
0.546917
0.51899
0.490003
0.406203
0.983232
0.99657
0.997459
0.997623
0.995836
0.98999
0.976961
0.954887
0.921279
0.874778
0.815039
0.74393
0.669194
0.599177
0.531525
0.459314
0.393979
0.346735
0.315119
0.23343
0.975058
0.9929
0.99458
0.99505
0.992915
0.986718
0.973726
0.951856
0.918899
0.872841
0.812968
0.741618
0.662959
0.574452
0.459967
0.316599
0.204495
0.154332
0.130748
0.0768168
0.963006
0.986318
0.989152
0.99018
0.987609
0.980794
0.967444
0.945528
0.912962
0.867468
0.808361
0.738061
0.656138
0.54967
0.394043
0.203082
0.0718789
0.0323091
0.0216088
0.00802699
0.944136
0.974172
0.978787
0.980786
0.977628
0.969697
0.955292
0.932741
0.900227
0.855876
0.799385
0.73106
0.644465
0.521474
0.346142
0.151812
0.031076
0.0029089
0.00069481
0.000105934
0.921711
0.958124
0.964538
0.967708
0.964063
0.954862
0.939053
0.915616
0.883347
0.840944
0.787418
0.719333
0.626099
0.49228
0.314332
0.128163
0.0204674
0.000626559
3.15598e-06
5.60606e-08
0.852512
0.899417
0.909409
0.915134
0.910393
0.898304
0.879555
0.855066
0.824872
0.787221
0.736669
0.662887
0.554859
0.408358
0.232949
0.0752347
0.00756728
9.3337e-05
4.53402e-08
4.62719e-13
0.985566
0.994094
0.994983
0.995735
0.996293
0.996549
0.996684
0.996801
0.996728
0.996356
0.995471
0.993868
0.991305
0.987427
0.981575
0.972729
0.95971
0.939375
0.915337
0.842473
0.994173
0.999653
0.999836
0.999914
0.99994
0.999952
0.999958
0.999962
0.99996
0.999941
0.99987
0.999679
0.99922
0.998181
0.996061
0.991999
0.984778
0.971538
0.95417
0.891901
0.995033
0.999835
0.999951
0.999988
0.999993
0.999995
0.999996
0.999996
0.999996
0.99998
0.999926
0.999778
0.999431
0.998674
0.997083
0.993882
0.987924
0.976646
0.961244
0.902809
0.995738
0.999912
0.999987
1
1
1
1
1
1
0.999974
0.999909
0.999757
0.999425
0.998731
0.997304
0.994447
0.989109
0.978903
0.964798
0.909163
0.996274
0.999939
0.999993
1
0.999965
0.999327
0.999021
0.998651
0.998106
0.997163
0.995417
0.992157
0.986353
0.975602
0.961131
0.904717
0.996555
0.999953
0.999995
1
0.997324
0.994139
0.99373
0.993249
0.992574
0.991431
0.989361
0.985597
0.979046
0.967169
0.95156
0.892693
0.996701
0.999959
0.999996
1
0.985817
0.979453
0.979343
0.979086
0.97864
0.977723
0.975779
0.97188
0.964757
0.951743
0.934824
0.873364
0.996809
0.999962
0.999996
1
0.964221
0.954455
0.955104
0.955025
0.954687
0.95395
0.952265
0.948555
0.941304
0.927643
0.909875
0.847485
0.996737
0.999961
0.999996
1
0.999969
0.997806
0.987487
0.96679
0.918942
0.913193
0.914269
0.915902
0.917053
0.916956
0.916083
0.913237
0.906561
0.893073
0.875633
0.815548
0.996369
0.999943
0.999981
0.99998
0.999443
0.995052
0.982043
0.959013
0.916685
0.887693
0.873956
0.867942
0.867462
0.867163
0.866517
0.864298
0.858372
0.846238
0.830997
0.776007
0.995493
0.999877
0.999932
0.999924
0.999168
0.994583
0.981726
0.959224
0.918778
0.875887
0.842532
0.819598
0.808442
0.805283
0.803813
0.801456
0.796479
0.787349
0.775241
0.722675
0.993907
0.999701
0.999801
0.999792
0.998833
0.994045
0.98124
0.958964
0.921139
0.873017
0.822688
0.77775
0.747275
0.734638
0.730645
0.727896
0.72405
0.716889
0.704588
0.644343
0.991374
0.999272
0.999489
0.999499
0.998335
0.993333
0.980568
0.958315
0.922175
0.873168
0.813648
0.750327
0.698005
0.66844
0.655582
0.648144
0.640405
0.627327
0.607026
0.529625
0.987552
0.998285
0.99879
0.998868
0.99746
0.992196
0.979471
0.957227
0.921856
0.872938
0.811072
0.739263
0.670712
0.619959
0.585694
0.557082
0.528907
0.497733
0.466549
0.376814
0.981791
0.996251
0.997286
0.997534
0.995813
0.990186
0.977435
0.955221
0.920581
0.872084
0.809582
0.735637
0.65885
0.587075
0.514454
0.433351
0.362792
0.315792
0.284934
0.201654
0.973079
0.992317
0.994212
0.994811
0.992687
0.986532
0.973528
0.951276
0.917309
0.869472
0.807027
0.732924
0.65183
0.559084
0.4338
0.280078
0.17105
0.128026
0.107008
0.0576744
0.960242
0.985276
0.988434
0.989657
0.987049
0.980129
0.966514
0.943992
0.910368
0.86317
0.801788
0.729026
0.644232
0.530932
0.362723
0.170023
0.0535275
0.0230268
0.0146752
0.00466028
0.940153
0.972295
0.977415
0.979717
0.976518
0.968417
0.953619
0.930345
0.896744
0.850812
0.792426
0.721724
0.631019
0.499373
0.314993
0.126159
0.0222906
0.00167712
0.000340584
3.93866e-05
0.91637
0.955206
0.962303
0.965908
0.962279
0.952949
0.936758
0.912589
0.87926
0.83545
0.780103
0.709163
0.610389
0.467759
0.283772
0.105066
0.0140458
0.000315228
9.47292e-07
9.78169e-09
0.843983
0.893538
0.904531
0.910977
0.906398
0.894361
0.875385
0.85025
0.819185
0.780291
0.727123
0.648311
0.532278
0.377548
0.200692
0.056606
0.00446092
3.61825e-05
8.58546e-09
4.04671e-14
0.979411
0.99025
0.991651
0.992864
0.993779
0.994285
0.994606
0.994864
0.994789
0.994318
0.99316
0.991074
0.9878
0.98293
0.975713
0.965006
0.949486
0.925712
0.89827
0.818653
0.990335
0.998109
0.998712
0.99915
0.999364
0.999474
0.999564
0.999635
0.999649
0.999602
0.99945
0.999114
0.998401
0.996934
0.994109
0.988914
0.979941
0.963878
0.943393
0.87365
0.991693
0.998692
0.999217
0.999621
0.999752
0.999799
0.99984
0.999871
0.99987
0.999812
0.999671
0.999406
0.998898
0.997882
0.995842
0.991858
0.984609
0.971106
0.952996
0.887172
0.992831
0.999104
0.999593
0.999997
1
1
1
1
1
0.99992
0.999757
0.999493
0.999034
0.998163
0.996435
0.993042
0.986759
0.97482
0.958505
0.896116
0.993708
0.999322
0.999727
1
0.999973
0.99952
0.999175
0.998709
0.998019
0.996879
0.994825
0.991012
0.98424
0.971813
0.9553
0.892324
0.994268
0.999458
0.999791
1
0.998226
0.995914
0.995402
0.994743
0.993809
0.992305
0.989696
0.985148
0.977437
0.963804
0.946237
0.880998
0.994617
0.999557
0.999836
1
0.988718
0.983975
0.983634
0.983061
0.98216
0.980596
0.977755
0.972671
0.964026
0.948981
0.930007
0.862321
0.994872
0.999632
0.999868
1
0.967797
0.961058
0.961288
0.96099
0.960214
0.95873
0.955937
0.950788
0.941741
0.925681
0.905679
0.837302
0.994803
0.999651
0.999871
1
0.999979
0.99851
0.990553
0.972234
0.921505
0.918833
0.920488
0.922759
0.92354
0.923007
0.921148
0.916774
0.908065
0.892019
0.87232
0.806311
0.994338
0.999608
0.999816
0.999923
0.999547
0.996252
0.985188
0.963317
0.920352
0.891784
0.878149
0.873822
0.873487
0.872985
0.871657
0.868095
0.860367
0.846175
0.828739
0.76624
0.99319
0.999465
0.999685
0.999768
0.999197
0.995722
0.984746
0.963384
0.922587
0.878468
0.843496
0.821204
0.811701
0.80901
0.807197
0.804101
0.79817
0.787426
0.772327
0.707596
0.991121
0.999146
0.999437
0.999521
0.998752
0.99503
0.984079
0.963028
0.925113
0.875639
0.82178
0.774724
0.74597
0.735183
0.731289
0.728026
0.72292
0.712655
0.69493
0.615641
0.987879
0.998461
0.998959
0.999095
0.998113
0.99407
0.983065
0.962107
0.925974
0.875808
0.813019
0.746195
0.69399
0.665936
0.65224
0.642005
0.629284
0.608504
0.579227
0.47982
0.983064
0.997044
0.997992