/*--------------------------------*- C++ -*----------------------------------*\
  =========                 |
  \\      /  F ield         | OpenFOAM: The Open Source CFD Toolbox
   \\    /   O peration     | Website:  https://openfoam.org
    \\  /    A nd           | Version:  9
     \\/     M anipulation  |
\*---------------------------------------------------------------------------*/
FoamFile
{
    format      ascii;
    class       volScalarField;
    location    "0.002";
    object      p;
}
// * * * * * * * * * * * * * * * * * * * * * * * * * * * * * * * * * * * * * //

dimensions      [1 -1 -2 0 0 0 0];

internalField   nonuniform List<scalar> 
9720
(
3.73201e+07
4.33254e+07
4.78257e+07
5.14277e+07
5.57163e+07
5.86665e+07
6.13793e+07
6.11176e+07
5.48166e+07
4.61746e+07
3.75942e+07
3.02086e+07
2.44204e+07
1.99684e+07
1.64597e+07
1.35952e+07
1.12144e+07
9.26133e+06
7.1533e+06
4.98671e+06
4.33043e+07
5.11107e+07
5.65574e+07
6.08826e+07
6.65949e+07
7.19013e+07
7.6806e+07
7.42751e+07
5.84929e+07
4.40299e+07
3.26628e+07
2.52442e+07
2.03328e+07
1.67919e+07
1.40597e+07
1.18491e+07
9.99231e+06
8.41519e+06
6.83445e+06
4.86867e+06
4.77793e+07
5.65186e+07
6.22827e+07
6.58662e+07
7.12268e+07
7.99358e+07
8.73082e+07
8.26217e+07
5.61522e+07
3.46934e+07
2.53356e+07
2.06002e+07
1.749e+07
1.50455e+07
1.29831e+07
1.12015e+07
9.63645e+06
8.31148e+06
6.89785e+06
5.10324e+06
5.13825e+07
6.10317e+07
6.62406e+07
6.56546e+07
6.84842e+07
8.12849e+07
9.54736e+07
1.01677e+08
6.06606e+07
1.81004e+07
1.62895e+07
1.50173e+07
1.36973e+07
1.23079e+07
1.09216e+07
9.60726e+06
8.41165e+06
7.36014e+06
6.07091e+06
4.55883e+06
5.55639e+07
6.67126e+07
7.17951e+07
7.00533e+07
1.34783e+07
9.75875e+06
1.1218e+07
1.19461e+07
1.16903e+07
1.08651e+07
9.67255e+06
8.44263e+06
7.36592e+06
6.40991e+06
5.15624e+06
4.0362e+06
5.84951e+07
7.16757e+07
7.95903e+07
8.08799e+07
9.87594e+06
9.70277e+06
1.01851e+07
1.0737e+07
1.06884e+07
1.02258e+07
9.2812e+06
8.12003e+06
7.00967e+06
5.96274e+06
4.63407e+06
3.74123e+06
6.11243e+07
7.63567e+07
8.65858e+07
9.45307e+07
9.9243e+06
9.45093e+06
9.68784e+06
9.99607e+06
9.95924e+06
9.62507e+06
8.82681e+06
7.71401e+06
6.57617e+06
5.46458e+06
4.10243e+06
3.44428e+06
6.08185e+07
7.3597e+07
8.13867e+07
1.00006e+08
9.25981e+06
8.61223e+06
8.85109e+06
9.24139e+06
9.32918e+06
9.1745e+06
8.62644e+06
7.65015e+06
6.46537e+06
5.14716e+06
3.68652e+06
3.27752e+06
5.44034e+07
5.78012e+07
5.4881e+07
5.72398e+07
1.28674e+07
1.01287e+07
1.01778e+07
9.48704e+06
3.64156e+06
4.77095e+06
6.06192e+06
7.21328e+06
8.086e+06
8.24077e+06
8.03768e+06
7.38384e+06
6.30946e+06
4.86405e+06
3.44587e+06
3.2304e+06
4.58478e+07
4.34717e+07
3.41334e+07
1.80338e+07
1.00537e+07
1.00143e+07
9.7748e+06
8.93769e+06
5.18173e+06
3.32414e+06
3.70928e+06
4.8211e+06
6.11811e+06
6.81997e+06
6.82942e+06
6.50412e+06
5.64896e+06
4.29484e+06
3.39429e+06
3.52958e+06
3.73472e+07
3.23274e+07
2.51247e+07
1.63494e+07
1.14544e+07
1.04851e+07
9.97243e+06
9.18357e+06
6.5805e+06
3.9303e+06
3.28525e+06
3.53256e+06
4.21017e+06
4.81359e+06
4.99048e+06
4.87348e+06
4.5544e+06
4.01327e+06
3.87528e+06
4.56548e+06
3.00379e+07
2.50561e+07
2.05013e+07
1.50514e+07
1.20366e+07
1.09671e+07
1.01925e+07
9.52476e+06
7.72453e+06
5.25131e+06
3.69163e+06
3.03308e+06
2.89236e+06
3.04958e+06
3.4566e+06
4.04889e+06
4.33618e+06
4.45329e+06
4.96128e+06
6.65148e+06
2.43164e+07
2.02207e+07
1.74232e+07
1.36886e+07
1.17546e+07
1.08849e+07
1.01311e+07
9.52937e+06
8.44908e+06
6.59419e+06
4.57836e+06
3.00768e+06
2.61806e+06
2.75581e+06
3.28718e+06
4.0388e+06
4.87049e+06
6.06715e+06
7.34456e+06
9.52822e+06
1.99089e+07
1.6724e+07
1.49942e+07
1.22726e+07
1.08963e+07
1.03577e+07
9.76317e+06
9.32835e+06
8.47094e+06
7.15591e+06
5.20919e+06
3.24541e+06
2.8145e+06
2.98173e+06
3.90544e+06
5.66661e+06
7.82393e+06
9.61004e+06
1.07752e+07
1.31651e+07
1.64266e+07
1.40182e+07
1.29462e+07
1.0882e+07
9.67128e+06
9.34207e+06
8.94321e+06
8.71778e+06
8.20666e+06
7.10581e+06
5.34783e+06
3.68591e+06
3.43181e+06
3.97079e+06
6.47273e+06
1.00319e+07
1.25767e+07
1.38028e+07
1.51258e+07
1.71816e+07
1.3578e+07
1.18242e+07
1.11776e+07
9.57675e+06
8.42894e+06
8.13962e+06
7.82852e+06
7.7105e+06
7.47751e+06
6.6943e+06
5.12439e+06
4.25453e+06
4.20579e+06
5.77519e+06
1.01344e+07
1.35412e+07
1.59223e+07
1.75735e+07
1.91398e+07
1.81428e+07
1.12092e+07
9.97972e+06
9.62296e+06
8.39065e+06
7.35298e+06
7.0175e+06
6.67725e+06
6.51401e+06
6.36816e+06
5.75433e+06
4.69743e+06
4.46904e+06
5.00778e+06
7.95742e+06
1.27779e+07
1.60682e+07
1.98415e+07
2.10863e+07
1.98747e+07
1.47301e+07
9.26528e+06
8.41213e+06
8.30181e+06
7.34073e+06
6.39844e+06
5.96769e+06
5.53529e+06
5.19806e+06
4.90918e+06
4.33642e+06
4.05326e+06
4.51261e+06
6.15712e+06
9.77332e+06
1.40745e+07
1.77581e+07
2.11497e+07
2.07722e+07
1.55971e+07
4.86578e+06
7.16349e+06
6.83623e+06
6.88767e+06
6.05025e+06
5.14498e+06
4.63742e+06
4.14146e+06
3.7221e+06
3.46182e+06
3.38792e+06
3.87089e+06
4.96778e+06
7.4231e+06
1.0977e+07
1.5428e+07
1.93156e+07
1.99701e+07
1.56336e+07
4.29965e+06
228619
4.99678e+06
4.87419e+06
5.10058e+06
4.54533e+06
4.02673e+06
3.73561e+06
3.44882e+06
3.2821e+06
3.22617e+06
3.50958e+06
4.53651e+06
6.64921e+06
9.6182e+06
1.33683e+07
1.73759e+07
1.82455e+07
1.48235e+07
4.87866e+06
229020
122521
3.59777e+07
4.1398e+07
4.54725e+07
4.88639e+07
5.28995e+07
5.55626e+07
5.80267e+07
5.72295e+07
5.04498e+07
4.22671e+07
3.42833e+07
2.75336e+07
2.23179e+07
1.83734e+07
1.52934e+07
1.27778e+07
1.06744e+07
8.94405e+06
7.06386e+06
4.96556e+06
4.13626e+07
4.82622e+07
5.30964e+07
5.70347e+07
6.24609e+07
6.76187e+07
7.20595e+07
6.87394e+07
5.30262e+07
3.92352e+07
2.90561e+07
2.25647e+07
1.83376e+07
1.53146e+07
1.29916e+07
1.11025e+07
9.50924e+06
8.14265e+06
6.73337e+06
4.86487e+06
4.54026e+07
5.30487e+07
5.81581e+07
6.10603e+07
6.63544e+07
7.51431e+07
8.20051e+07
7.63617e+07
5.04994e+07
3.07998e+07
2.2536e+07
1.846e+07
1.58171e+07
1.37495e+07
1.20074e+07
1.04954e+07
9.15542e+06
8.01045e+06
6.77743e+06
5.09891e+06
4.87678e+07
5.71375e+07
6.14679e+07
6.26257e+07
6.39214e+07
7.73595e+07
9.17931e+07
9.55568e+07
5.61583e+07
1.60141e+07
1.45523e+07
1.35863e+07
1.24969e+07
1.13093e+07
1.012e+07
8.98881e+06
7.96057e+06
7.05662e+06
5.93854e+06
4.5204e+06
5.27058e+07
6.23293e+07
6.63486e+07
6.45437e+07
1.2405e+07
9.03565e+06
1.01419e+07
1.10069e+07
1.08806e+07
1.02663e+07
9.24687e+06
8.12881e+06
7.13299e+06
6.24559e+06
5.09621e+06
3.98832e+06
5.5265e+07
6.7093e+07
7.43234e+07
7.638e+07
9.33732e+06
9.14202e+06
9.35387e+06
9.83558e+06
9.92395e+06
9.65666e+06
8.93957e+06
7.94489e+06
6.9289e+06
5.93106e+06
4.66113e+06
3.68519e+06
5.77171e+07
7.15077e+07
8.11647e+07
9.03711e+07
9.26158e+06
8.96033e+06
8.98768e+06
9.17436e+06
9.2415e+06
9.09138e+06
8.57211e+06
7.68352e+06
6.64323e+06
5.55444e+06
4.19622e+06
3.38846e+06
5.70789e+07
6.84422e+07
7.58361e+07
9.45957e+07
8.65099e+06
8.21618e+06
8.29405e+06
8.51716e+06
8.72314e+06
8.66005e+06
8.32204e+06
7.57511e+06
6.52578e+06
5.29141e+06
3.79446e+06
3.213e+06
5.03639e+07
5.27741e+07
4.98552e+07
5.45852e+07
1.2193e+07
9.41965e+06
9.59647e+06
9.11031e+06
3.39953e+06
4.41933e+06
5.63346e+06
6.64843e+06
7.4859e+06
7.7779e+06
7.67349e+06
7.22035e+06
6.33102e+06
5.06025e+06
3.54437e+06
3.14436e+06
4.21907e+07
3.8897e+07
3.03256e+07
1.57734e+07
8.90952e+06
9.11217e+06
9.08142e+06
8.44475e+06
4.7629e+06
2.94184e+06
3.32418e+06
4.36755e+06
5.58309e+06
6.37787e+06
6.49689e+06
6.31174e+06
5.67393e+06
4.47471e+06
3.32597e+06
3.29959e+06
3.42025e+07
2.87598e+07
2.21603e+07
1.42555e+07
1.00013e+07
9.3347e+06
9.11073e+06
8.52275e+06
6.03883e+06
3.4897e+06
2.91238e+06
3.156e+06
3.81805e+06
4.52034e+06
4.8117e+06
4.72871e+06
4.40475e+06
3.83652e+06
3.55174e+06
4.00757e+06
2.74585e+07
2.23303e+07
1.81582e+07
1.32819e+07
1.08418e+07
9.81875e+06
9.27241e+06
8.73026e+06
7.02474e+06
4.68891e+06
3.28731e+06
2.72708e+06
2.61486e+06
2.76202e+06
3.06123e+06
3.52508e+06
3.89851e+06
3.98437e+06
4.29667e+06
5.68507e+06
2.22522e+07
1.81527e+07
1.55741e+07
1.22222e+07
1.07037e+07
9.89255e+06
9.30059e+06
8.85289e+06
7.77066e+06
5.97107e+06
4.13055e+06
2.73219e+06
2.24484e+06
2.30272e+06
2.75091e+06
3.43821e+06
4.12613e+06
5.04093e+06
6.19829e+06
8.30015e+06
1.83154e+07
1.51659e+07
1.35493e+07
1.10752e+07
1.0079e+07
9.60307e+06
9.12423e+06
8.75887e+06
7.98136e+06
6.69876e+06
4.86979e+06
2.96853e+06
2.34808e+06
2.43968e+06
3.09666e+06
4.44954e+06
6.25454e+06
8.08782e+06
9.34883e+06
1.17309e+07
1.52402e+07
1.2869e+07
1.18422e+07
9.93e+06
9.06898e+06
8.85838e+06
8.57059e+06
8.37878e+06
7.8468e+06
6.75874e+06
5.12825e+06
3.28436e+06
2.88542e+06
3.17218e+06
4.93878e+06
8.03108e+06
1.08404e+07
1.24235e+07
1.3654e+07
1.61372e+07
1.27282e+07
1.10006e+07
1.03644e+07
8.8479e+06
7.98345e+06
7.85216e+06
7.67303e+06
7.60247e+06
7.33687e+06
6.52454e+06
4.97376e+06
3.74677e+06
3.6277e+06
4.62839e+06
8.1821e+06
1.20822e+07
1.46159e+07
1.63571e+07
1.84366e+07
1.87347e+07
1.06311e+07
9.42758e+06
9.05844e+06
7.86515e+06
7.02471e+06
6.84805e+06
6.63051e+06
6.53216e+06
6.39219e+06
5.8006e+06
4.56592e+06
4.07976e+06
4.33795e+06
6.54829e+06
1.11577e+07
1.47916e+07
1.83434e+07
2.0727e+07
2.01018e+07
1.58711e+07
8.91153e+06
8.08423e+06
7.94088e+06
6.99107e+06
6.16967e+06
5.87307e+06
5.5414e+06
5.28969e+06
5.07862e+06
4.52467e+06
3.92822e+06
4.12152e+06
5.26697e+06
8.44152e+06
1.28257e+07
1.66545e+07
2.08642e+07
2.08159e+07
1.72715e+07
7.1968e+06
7.04467e+06
6.69514e+06
6.72332e+06
5.8918e+06
5.04633e+06
4.62521e+06
4.1854e+06
3.79685e+06
3.54561e+06
3.33397e+06
3.59891e+06
4.40594e+06
6.41968e+06
9.69455e+06
1.41121e+07
1.87681e+07
2.02255e+07
1.73374e+07
6.5364e+06
463935
4.95512e+06
4.84343e+06
5.06327e+06
4.49069e+06
3.95684e+06
3.66199e+06
3.3754e+06
3.2069e+06
3.13532e+06
3.29855e+06
4.0405e+06
5.77262e+06
8.47399e+06
1.20313e+07
1.65146e+07
1.88603e+07
1.59986e+07
7.10477e+06
452463
122714
3.4978e+07
4.02173e+07
4.40716e+07
4.72441e+07
5.10013e+07
5.34464e+07
5.56683e+07
5.44226e+07
4.75589e+07
3.9816e+07
3.23386e+07
2.6045e+07
2.11908e+07
1.75344e+07
1.4676e+07
1.23224e+07
1.03306e+07
8.72324e+06
7.01129e+06
5.00101e+06
4.01611e+07
4.6646e+07
5.10047e+07
5.44249e+07
5.94862e+07
6.44794e+07
6.85835e+07
6.47264e+07
4.9456e+07
3.63352e+07
2.70901e+07
2.12622e+07
1.7471e+07
1.47357e+07
1.26078e+07
1.08439e+07
9.31545e+06
8.04135e+06
6.75177e+06
4.96739e+06
4.39425e+07
5.09205e+07
5.52024e+07
5.71145e+07
6.25634e+07
7.11328e+07
7.76693e+07
7.14726e+07
4.62692e+07
2.80886e+07
2.08608e+07
1.74053e+07
1.5154e+07
1.33474e+07
1.17675e+07
1.03355e+07
9.02351e+06
7.93852e+06
6.82205e+06
5.24193e+06
4.69567e+07
5.41516e+07
5.69662e+07
5.67273e+07
5.78987e+07
7.21782e+07
8.65065e+07
8.90395e+07
5.04109e+07
1.449e+07
1.35388e+07
1.2864e+07
1.19891e+07
1.09742e+07
9.92807e+06
8.88661e+06
7.88837e+06
7.05153e+06
6.05196e+06
4.69569e+06
5.05568e+07
5.87186e+07
6.15005e+07
5.68381e+07
1.04367e+07
8.31703e+06
9.36699e+06
1.05078e+07
1.05917e+07
1.0221e+07
9.38761e+06
8.32217e+06
7.28785e+06
6.41097e+06
5.32406e+06
4.15129e+06
5.30033e+07
6.36506e+07
6.98436e+07
7.03735e+07
8.59e+06
8.39302e+06
8.66544e+06
9.25143e+06
9.69599e+06
9.58213e+06
9.08227e+06
8.21502e+06
7.2106e+06
6.23167e+06
5.0163e+06
3.87137e+06
5.53109e+07
6.7982e+07
7.68174e+07
8.50473e+07
8.82301e+06
8.41276e+06
8.49109e+06
8.75781e+06
9.05337e+06
9.0112e+06
8.69096e+06
7.9689e+06
6.97463e+06
5.9153e+06
4.60491e+06
3.55592e+06
5.43581e+07
6.47157e+07
7.16403e+07
8.91077e+07
8.4111e+06
7.89482e+06
8.01917e+06
8.24058e+06
8.5877e+06
8.59166e+06
8.39529e+06
7.80451e+06
6.83771e+06
5.67458e+06
4.19258e+06
3.33046e+06
4.76902e+07
4.96518e+07
4.66444e+07
5.05191e+07
1.03782e+07
8.4008e+06
8.77478e+06
8.35581e+06
2.9466e+06
4.26151e+06
5.50192e+06
6.46348e+06
7.31959e+06
7.74732e+06
7.69957e+06
7.36287e+06
6.59036e+06
5.44225e+06
3.90644e+06
3.23334e+06
3.99184e+07
3.63246e+07
2.79419e+07
1.40851e+07
7.91409e+06
8.30317e+06
8.41514e+06
7.88267e+06
4.28647e+06
2.71307e+06
3.12041e+06
4.1348e+06
5.36341e+06
6.31315e+06
6.54092e+06
6.41957e+06
5.91898e+06
4.86932e+06
3.50199e+06
3.28346e+06
3.23822e+07
2.69466e+07
2.05246e+07
1.30294e+07
8.96271e+06
8.56517e+06
8.47328e+06
8.03878e+06
5.57895e+06
3.1837e+06
2.66398e+06
2.91852e+06
3.65842e+06
4.50347e+06
4.90501e+06
4.84767e+06
4.53894e+06
3.89491e+06
3.44553e+06
3.71899e+06
2.60403e+07
2.10667e+07
1.70509e+07
1.23987e+07
1.01347e+07
9.15268e+06
8.71861e+06
8.26604e+06
6.56575e+06
4.27057e+06
2.98884e+06
2.58144e+06
2.55813e+06
2.75793e+06
3.00319e+06
3.31606e+06
3.65373e+06
3.73743e+06
3.91466e+06
5.00094e+06
2.11496e+07
1.72692e+07
1.48324e+07
1.15991e+07
1.02903e+07
9.59314e+06
8.98471e+06
8.58713e+06
7.40839e+06
5.51964e+06
3.80595e+06
2.63107e+06
2.10484e+06
2.07641e+06
2.42387e+06
3.06932e+06
3.67606e+06
4.32694e+06
5.30446e+06
7.29289e+06
1.74731e+07
1.45486e+07
1.30727e+07
1.06661e+07
9.95891e+06
9.48361e+06
8.93971e+06
8.57997e+06
7.82753e+06
6.465e+06
4.6918e+06
2.90518e+06
2.10968e+06
2.12389e+06
2.58565e+06
3.596e+06
4.9965e+06
6.67452e+06
8.09466e+06
1.03542e+07
1.46063e+07
1.2442e+07
1.15387e+07
9.69359e+06
9.18104e+06
8.98428e+06
8.61959e+06
8.37423e+06
7.77916e+06
6.70438e+06
5.11051e+06
3.17104e+06
2.51083e+06
2.64818e+06
3.77795e+06
6.22161e+06
8.98187e+06
1.10059e+07
1.21599e+07
1.42268e+07
1.22511e+07
1.06983e+07
1.01466e+07
8.71063e+06
8.15017e+06
8.10452e+06
7.90159e+06
7.77999e+06
7.43727e+06
6.57654e+06
5.03433e+06
3.48708e+06
3.22577e+06
3.77196e+06
6.39076e+06
1.03809e+07
1.33881e+07
1.48986e+07
1.62469e+07
1.72131e+07
1.02648e+07
9.19121e+06
8.86882e+06
7.75505e+06
7.14441e+06
7.09962e+06
6.92421e+06
6.82272e+06
6.64795e+06
6.03661e+06
4.69144e+06
3.84266e+06
3.88736e+06
5.31936e+06
9.36706e+06
1.35949e+07
1.57753e+07
1.81841e+07
1.86533e+07
1.60612e+07
8.66875e+06
7.94159e+06
7.81672e+06
6.95062e+06
6.29396e+06
6.13544e+06
5.87434e+06
5.66708e+06
5.47568e+06
4.9379e+06
4.02602e+06
3.91597e+06
4.58464e+06
7.09017e+06
1.14985e+07
1.5198e+07
1.84369e+07
1.9491e+07
1.75763e+07
1.01569e+07
6.96621e+06
6.67475e+06
6.72697e+06
5.97492e+06
5.22839e+06
4.93896e+06
4.56386e+06
4.19054e+06
3.9205e+06
3.53932e+06
3.54152e+06
4.07596e+06
5.57527e+06
8.50023e+06
1.26644e+07
1.66504e+07
1.88907e+07
1.76783e+07
1.01163e+07
1.39118e+06
4.96579e+06
4.91536e+06
5.17278e+06
4.63904e+06
4.07724e+06
3.80934e+06
3.51559e+06
3.32047e+06
3.22981e+06
3.31231e+06
3.79003e+06
5.1262e+06
7.50288e+06
1.06834e+07
1.46472e+07
1.75047e+07
1.61851e+07
1.00682e+07
1.34928e+06
126614
3.381e+07
3.89871e+07
4.2719e+07
4.57163e+07
4.93323e+07
5.17044e+07
5.39186e+07
5.25312e+07
4.55809e+07
3.79667e+07
3.07788e+07
2.47995e+07
2.01959e+07
1.672e+07
1.40031e+07
1.17779e+07
9.89198e+06
8.42121e+06
6.91502e+06
5.09269e+06
3.89216e+07
4.53447e+07
4.95365e+07
5.26298e+07
5.76056e+07
6.26316e+07
6.68087e+07
6.28399e+07
4.74423e+07
3.44493e+07
2.56133e+07
2.0225e+07
1.67649e+07
1.42279e+07
1.21963e+07
1.04825e+07
8.97763e+06
7.74945e+06
6.58864e+06
5.00881e+06
4.2595e+07
4.95157e+07
5.35631e+07
5.49335e+07
6.03815e+07
6.90876e+07
7.58254e+07
6.95317e+07
4.39906e+07
2.62373e+07
1.94437e+07
1.64186e+07
1.45147e+07
1.29469e+07
1.14884e+07
1.0094e+07
8.76585e+06
7.67532e+06
6.59653e+06
5.14596e+06
4.53933e+07
5.23832e+07
5.48259e+07
5.42862e+07
5.48841e+07
6.98317e+07
8.43276e+07
8.62712e+07
4.72839e+07
1.32399e+07
1.25619e+07
1.21167e+07
1.14593e+07
1.06223e+07
9.69902e+06
8.72642e+06
7.73035e+06
6.90242e+06
5.95067e+06
4.68478e+06
4.87552e+07
5.67291e+07
5.92905e+07
5.34583e+07
9.86035e+06
7.70643e+06
8.65191e+06
9.84017e+06
1.02407e+07
1.00176e+07
9.36396e+06
8.36972e+06
7.28134e+06
6.38254e+06
5.34429e+06
4.20076e+06
5.12677e+07
6.18299e+07
6.79095e+07
6.8032e+07
7.88565e+06
7.97246e+06
8.23924e+06
8.85797e+06
9.49991e+06
9.47415e+06
9.11069e+06
8.31428e+06
7.27791e+06
6.28889e+06
5.15023e+06
4.00076e+06
5.35511e+07
6.61408e+07
7.48528e+07
8.29439e+07
8.15735e+06
8.09576e+06
8.16763e+06
8.48284e+06
8.89812e+06
8.89501e+06
8.65026e+06
7.99272e+06
7.02472e+06
6.01286e+06
4.82049e+06
3.73634e+06
5.24417e+07
6.26781e+07
6.9329e+07
8.56519e+07
7.99627e+06
7.65655e+06
7.7936e+06
8.01569e+06
8.43969e+06
8.51219e+06
8.36361e+06
7.85768e+06
6.9699e+06
5.89868e+06
4.52766e+06
3.52929e+06
4.58013e+07
4.77839e+07
4.46402e+07
4.86543e+07
9.92679e+06
7.91914e+06
8.25699e+06
8.03626e+06
2.78424e+06
4.01652e+06
5.24597e+06
6.22895e+06
7.13384e+06
7.69905e+06
7.69861e+06
7.45608e+06
6.77648e+06
5.72456e+06
4.25615e+06
3.39959e+06
3.82642e+07
3.48598e+07
2.66284e+07
1.35365e+07
7.70513e+06
8.03092e+06
8.1408e+06
7.65097e+06
4.18997e+06
2.61004e+06
2.95411e+06
3.96047e+06
5.20763e+06
6.26186e+06
6.64758e+06
6.5763e+06
6.16183e+06
5.23265e+06
3.83085e+06
3.41998e+06
3.10464e+07
2.58888e+07
1.95677e+07
1.24606e+07
8.53247e+06
8.25293e+06
8.17248e+06
7.78442e+06
5.41813e+06
3.06417e+06
2.6503e+06
2.88096e+06
3.61001e+06
4.54856e+06
5.09188e+06
5.12638e+06
4.8593e+06
4.22667e+06
3.62077e+06
3.78156e+06
2.49837e+07
2.0342e+07
1.63905e+07
1.19072e+07
9.63247e+06
8.81171e+06
8.41326e+06
7.99153e+06
6.37091e+06
4.15711e+06
2.96251e+06
2.66191e+06
2.66525e+06
2.92601e+06
3.2008e+06
3.47912e+06
3.79271e+06
3.88163e+06
4.00715e+06
4.91289e+06
2.02963e+07
1.67723e+07
1.44099e+07
1.12343e+07
9.9969e+06
9.37787e+06
8.76714e+06
8.36937e+06
7.22699e+06
5.41296e+06
3.77602e+06
2.72713e+06
2.23816e+06
2.18532e+06
2.50787e+06
3.16049e+06
3.77786e+06
4.32793e+06
5.16086e+06
6.95675e+06
1.67632e+07
1.41785e+07
1.28115e+07
1.04244e+07
9.77313e+06
9.33243e+06
8.76213e+06
8.39453e+06
7.66382e+06
6.37204e+06
4.71095e+06
3.03892e+06
2.21684e+06
2.21043e+06
2.63389e+06
3.53436e+06
4.75168e+06
6.21452e+06
7.61687e+06
9.71745e+06
1.40118e+07
1.21267e+07
1.13524e+07
9.5392e+06
9.12476e+06
8.93955e+06
8.52143e+06
8.22644e+06
7.62546e+06
6.65909e+06
5.2092e+06
3.32435e+06
2.59062e+06
2.69267e+06
3.55984e+06
5.55994e+06
8.03647e+06
1.01365e+07
1.14061e+07
1.33494e+07
1.17695e+07
1.04107e+07
9.97064e+06
8.59597e+06
8.14595e+06
8.12589e+06
7.87797e+06
7.69344e+06
7.33345e+06
6.56258e+06
5.17901e+06
3.60298e+06
3.29359e+06
3.68504e+06
5.70113e+06
9.27204e+06
1.24103e+07
1.40841e+07
1.52019e+07
1.63189e+07
9.87661e+06
8.91092e+06
8.65673e+06
7.61792e+06
7.08924e+06
7.09553e+06
6.92193e+06
6.80161e+06
6.645e+06
6.11368e+06
4.89038e+06
3.92336e+06
3.9335e+06
4.99854e+06
8.34744e+06
1.25829e+07
1.43458e+07
1.64904e+07
1.75657e+07
1.62798e+07
8.40563e+06
7.69152e+06
7.58083e+06
6.80575e+06
6.22988e+06
6.13038e+06
5.91835e+06
5.75805e+06
5.61445e+06
5.16823e+06
4.24436e+06
3.96443e+06
4.48611e+06
6.50729e+06
1.0518e+07
1.43139e+07
1.66549e+07
1.85189e+07
1.76749e+07
1.22625e+07
6.907e+06
6.54638e+06
6.52136e+06
5.8714e+06
5.23149e+06
5.02602e+06
4.73526e+06
4.43273e+06
4.18185e+06
3.78097e+06
3.6168e+06
4.05396e+06
5.29762e+06
7.87669e+06
1.17618e+07
1.54768e+07
1.77666e+07
1.77221e+07
1.27637e+07
2.92994e+06
5.08762e+06
4.98636e+06
5.09818e+06
4.62646e+06
4.1254e+06
3.91959e+06
3.67001e+06
3.47022e+06
3.35052e+06
3.38009e+06
3.76309e+06
4.91699e+06
7.02537e+06
9.89101e+06
1.36215e+07
1.65335e+07
1.6352e+07
1.22001e+07
2.86633e+06
155268
3.31569e+07
3.84462e+07
4.22441e+07
4.51647e+07
4.8662e+07
5.11233e+07
5.33595e+07
5.19476e+07
4.4922e+07
3.73348e+07
3.02016e+07
2.42571e+07
1.96997e+07
1.62855e+07
1.36527e+07
1.15331e+07
9.74358e+06
8.37108e+06
7.00994e+06
5.29107e+06
3.83773e+07
4.49706e+07
4.92048e+07
5.20022e+07
5.68311e+07
6.19576e+07
6.61528e+07
6.21484e+07
4.67293e+07
3.38135e+07
2.5116e+07
1.98235e+07
1.64205e+07
1.39257e+07
1.194e+07
1.02979e+07
8.879e+06
7.72147e+06
6.67898e+06
5.23291e+06
4.20861e+07
4.90876e+07
5.29959e+07
5.39839e+07
5.93601e+07
6.81405e+07
7.48743e+07
6.85463e+07
4.2898e+07
2.53761e+07
1.88257e+07
1.59858e+07
1.4202e+07
1.26979e+07
1.12771e+07
9.93389e+06
8.67881e+06
7.64831e+06
6.68494e+06
5.38269e+06
4.48884e+07
5.17868e+07
5.38165e+07
5.29743e+07
5.2952e+07
6.83625e+07
8.29932e+07
8.48578e+07
4.61788e+07
1.27187e+07
1.20679e+07
1.17572e+07
1.12218e+07
1.04482e+07
9.55428e+06
8.62419e+06
7.68755e+06
6.91132e+06
6.07004e+06
4.945e+06
4.82597e+07
5.6095e+07
5.83347e+07
5.18944e+07
9.62051e+06
7.63787e+06
8.4393e+06
9.59538e+06
1.00969e+07
9.91082e+06
9.31087e+06
8.37085e+06
7.32186e+06
6.46289e+06
5.51239e+06
4.45548e+06
5.0721e+07
6.12046e+07
6.70202e+07
6.68977e+07
7.8627e+06
8.16867e+06
8.42409e+06
9.00188e+06
9.55858e+06
9.51392e+06
9.15078e+06
8.38469e+06
7.38176e+06
6.43024e+06
5.37189e+06
4.28168e+06
5.30225e+07
6.55221e+07
7.39723e+07
8.18262e+07
8.18699e+06
8.2184e+06
8.26809e+06
8.52627e+06
8.91713e+06
8.89641e+06
8.66278e+06
8.07035e+06
7.16789e+06
6.20086e+06
5.08697e+06
4.03941e+06
5.18239e+07
6.19096e+07
6.82013e+07
8.41053e+07
7.94374e+06
7.65856e+06
7.76659e+06
7.95097e+06
8.34834e+06
8.51196e+06
8.39729e+06
7.97534e+06
7.16142e+06
6.15343e+06
4.86914e+06
3.86492e+06
4.5119e+07
4.69893e+07
4.32757e+07
4.66224e+07
9.60554e+06
7.897e+06
8.20882e+06
7.88243e+06
2.61014e+06
3.85021e+06
5.10309e+06
6.11358e+06
7.02972e+06
7.70296e+06
7.81245e+06
7.63304e+06
7.04158e+06
6.06241e+06
4.67255e+06
3.74708e+06
3.7668e+07
3.43028e+07
2.59029e+07
1.30689e+07
7.67933e+06
8.10837e+06
8.11459e+06
7.50868e+06
3.987e+06
2.50358e+06
2.83383e+06
3.85883e+06
5.14759e+06
6.3098e+06
6.84804e+06
6.8241e+06
6.47554e+06
5.62916e+06
4.26503e+06
3.76113e+06
3.05478e+07
2.55574e+07
1.92345e+07
1.23176e+07
8.52028e+06
8.38099e+06
8.16496e+06
7.65755e+06
5.22762e+06
2.90557e+06
2.65805e+06
2.86448e+06
3.63076e+06
4.68571e+06
5.33711e+06
5.44411e+06
5.22224e+06
4.65466e+06
4.01059e+06
4.10277e+06
2.45461e+07
2.01296e+07
1.62303e+07
1.18873e+07
9.65153e+06
8.96303e+06
8.40163e+06
7.87074e+06
6.1982e+06
3.96921e+06
2.90336e+06
2.77829e+06
2.83628e+06
3.15829e+06
3.4799e+06
3.79628e+06
4.14461e+06
4.24607e+06
4.34829e+06
5.15293e+06
1.99098e+07
1.66032e+07
1.43228e+07
1.12606e+07
1.00347e+07
9.47833e+06
8.76289e+06
8.26591e+06
7.06766e+06
5.25587e+06
3.72157e+06
2.87611e+06
2.46681e+06
2.41055e+06
2.73279e+06
3.41352e+06
4.07434e+06
4.6238e+06
5.41483e+06
7.0762e+06
1.6429e+07
1.4021e+07
1.2738e+07
1.04367e+07
9.81395e+06
9.41743e+06
8.75053e+06
8.35989e+06
7.6521e+06
6.36278e+06
4.77439e+06
3.21037e+06
2.42296e+06
2.4064e+06
2.83007e+06
3.73541e+06
4.94707e+06
6.35742e+06
7.71996e+06
9.64905e+06
1.37481e+07
1.19844e+07
1.12718e+07
9.51908e+06
9.18153e+06
9.02574e+06
8.53174e+06
8.23207e+06
7.68312e+06
6.80056e+06
5.36295e+06
3.51935e+06
2.76845e+06
2.85676e+06
3.69694e+06
5.63748e+06
8.00163e+06
1.00282e+07
1.12516e+07
1.30697e+07
1.15967e+07
1.03158e+07
9.90971e+06
8.58025e+06
8.22918e+06
8.23549e+06
7.94969e+06
7.7912e+06
7.47944e+06
6.74926e+06
5.41632e+06
3.83364e+06
3.47114e+06
3.815e+06
5.72476e+06
9.0774e+06
1.20807e+07
1.36941e+07
1.47797e+07
1.59884e+07
9.7837e+06
8.88221e+06
8.64911e+06
7.64013e+06
7.18853e+06
7.22704e+06
7.05703e+06
6.98154e+06
6.86907e+06
6.36182e+06
5.17445e+06
4.18014e+06
4.14094e+06
5.09418e+06
8.21437e+06
1.22139e+07
1.36013e+07
1.57366e+07
1.71397e+07
1.64254e+07
8.39622e+06
7.71681e+06
7.61791e+06
6.86571e+06
6.35599e+06
6.29436e+06
6.10811e+06
6.00197e+06
5.90507e+06
5.50204e+06
4.59496e+06
4.24313e+06
4.69652e+06
6.53786e+06
1.02923e+07
1.38758e+07
1.58544e+07
1.81662e+07
1.77616e+07
1.32164e+07
7.03397e+06
6.67947e+06
6.66513e+06
6.0364e+06
5.44105e+06
5.27064e+06
5.01552e+06
4.76046e+06
4.55245e+06
4.15664e+06
3.94234e+06
4.32728e+06
5.47708e+06
7.87853e+06
1.14995e+07
1.49799e+07
1.72999e+07
1.78018e+07
1.39009e+07
3.94385e+06
5.30962e+06
5.24033e+06
5.37689e+06
4.92613e+06
4.41513e+06
4.21931e+06
3.98177e+06
3.79152e+06
3.66572e+06
3.67851e+06
4.03415e+06
5.11372e+06
7.09787e+06
9.75925e+06
1.32711e+07
1.61569e+07
1.64839e+07
1.31713e+07
3.87372e+06
199379
3.31564e+07
3.84248e+07
4.21894e+07
4.50701e+07
4.85771e+07
5.10782e+07
5.33319e+07
5.19128e+07
4.4929e+07
3.73566e+07
3.02189e+07
2.42681e+07
1.97081e+07
1.62929e+07
1.36579e+07
1.15361e+07
9.74451e+06
8.37159e+06
7.01168e+06
5.29374e+06
3.83936e+07
4.49653e+07
4.91414e+07
5.17667e+07
5.66069e+07
6.1908e+07
6.61283e+07
6.20773e+07
4.67543e+07
3.38987e+07
2.51774e+07
1.98507e+07
1.64278e+07
1.39247e+07
1.19363e+07
1.02927e+07
8.87286e+06
7.71555e+06
6.67527e+06
5.23283e+06
4.21321e+07
4.91347e+07
5.29874e+07
5.35955e+07
5.90179e+07
6.81546e+07
7.49115e+07
6.84116e+07
4.29822e+07
2.55553e+07
1.89367e+07
1.60218e+07
1.41967e+07
1.26764e+07
1.12541e+07
9.91331e+06
8.66053e+06
7.63242e+06
6.67175e+06
5.37575e+06
4.49594e+07
5.19343e+07
5.40697e+07
5.26742e+07
5.22216e+07
6.81264e+07
8.29205e+07
8.41485e+07
4.58841e+07
1.28633e+07
1.22079e+07
1.18295e+07
1.12352e+07
1.04282e+07
9.52328e+06
8.59258e+06
7.65858e+06
6.88579e+06
6.04876e+06
4.93181e+06
4.83197e+07
5.62388e+07
5.8531e+07
5.11785e+07
9.11782e+06
7.62472e+06
8.46928e+06
9.63632e+06
1.00866e+07
9.88254e+06
9.26467e+06
8.31902e+06
7.27429e+06
6.42442e+06
5.48258e+06
4.43622e+06
5.0759e+07
6.12428e+07
6.69911e+07
6.64806e+07
7.99899e+06
8.16461e+06
8.39846e+06
8.96042e+06
9.51944e+06
9.47503e+06
9.10783e+06
8.33788e+06
7.33596e+06
6.39167e+06
5.34175e+06
4.26125e+06
5.30296e+07
6.55126e+07
7.39288e+07
8.14253e+07
8.51914e+06
8.23066e+06
8.25393e+06
8.48533e+06
8.86719e+06
8.85107e+06
8.62474e+06
8.04015e+06
7.14494e+06
6.18333e+06
5.0725e+06
4.02349e+06
5.17939e+07
6.18554e+07
6.81204e+07
8.37536e+07
8.14618e+06
7.68057e+06
7.76911e+06
7.94214e+06
8.34091e+06
8.4891e+06
8.37039e+06
7.9442e+06
7.13093e+06
6.12744e+06
4.84525e+06
3.84369e+06
4.50576e+07
4.69302e+07
4.33404e+07
4.69014e+07
9.07133e+06
7.90318e+06
8.32601e+06
7.9012e+06
2.58988e+06
3.93455e+06
5.16862e+06
6.16527e+06
7.07439e+06
7.72844e+06
7.80712e+06
7.61894e+06
7.0225e+06
6.04007e+06
4.64575e+06
3.72382e+06
3.75935e+07
3.41905e+07
2.58561e+07
1.29291e+07
7.57311e+06
8.12282e+06
8.16296e+06
7.56181e+06
3.97684e+06
2.51416e+06
2.86164e+06
3.90542e+06
5.20809e+06
6.36763e+06
6.8768e+06
6.84404e+06
6.47936e+06
5.6177e+06
4.24097e+06
3.7404e+06
3.04901e+07
2.5474e+07
1.91992e+07
1.23241e+07
8.47051e+06
8.36609e+06
8.18897e+06
7.67934e+06
5.20657e+06
2.89239e+06
2.66169e+06
2.88382e+06
3.67771e+06
4.74887e+06
5.39463e+06
5.48253e+06
5.24979e+06
4.66125e+06
3.99809e+06
4.09003e+06
2.45158e+07
2.00998e+07
1.62395e+07
1.1956e+07
9.68767e+06
8.95335e+06
8.41834e+06
7.86914e+06
6.17144e+06
3.94476e+06
2.8983e+06
2.78932e+06
2.87083e+06
3.20952e+06
3.53458e+06
3.8423e+06
4.17852e+06
4.25867e+06
4.3498e+06
5.15093e+06
1.98985e+07
1.661e+07
1.43559e+07
1.13437e+07
1.01292e+07
9.52699e+06
8.79635e+06
8.26104e+06
7.03708e+06
5.22538e+06
3.70205e+06
2.8785e+06
2.48688e+06
2.43267e+06
2.76226e+06
3.44906e+06
4.10605e+06
4.64966e+06
5.43672e+06
7.09273e+06
1.6429e+07
1.40431e+07
1.27773e+07
1.05054e+07
9.91419e+06
9.48125e+06
8.78967e+06
8.38045e+06
7.63975e+06
6.33372e+06
4.74568e+06
3.20071e+06
2.43001e+06
2.41679e+06
2.84974e+06
3.76479e+06
4.98414e+06
6.40199e+06
7.76082e+06
9.68096e+06
1.37541e+07
1.20094e+07
1.13084e+07
9.56973e+06
9.27732e+06
9.10265e+06
8.57825e+06
8.26105e+06
7.6881e+06
6.78194e+06
5.33613e+06
3.5002e+06
2.75649e+06
2.84933e+06
3.70106e+06
5.65859e+06
8.04716e+06
1.00851e+07
1.13048e+07
1.31143e+07
1.16052e+07
1.03391e+07
9.93988e+06
8.61798e+06
8.31014e+06
8.31005e+06
7.99524e+06
7.83188e+06
7.49683e+06
6.73701e+06
5.39191e+06
3.80123e+06
3.43861e+06
3.78677e+06
5.70973e+06
9.09178e+06
1.21269e+07
1.37412e+07
1.48257e+07
1.60165e+07
9.79364e+06
8.90365e+06
8.67416e+06
7.66999e+06
7.24766e+06
7.28718e+06
7.09433e+06
7.02451e+06
6.89722e+06
6.36288e+06
5.15095e+06
4.13922e+06
4.10179e+06
5.05536e+06
8.18884e+06
1.22265e+07
1.3637e+07
1.57597e+07
1.71634e+07
1.64412e+07
8.40683e+06
7.73578e+06
7.6388e+06
6.88983e+06
6.39506e+06
6.33743e+06
6.1357e+06
6.03801e+06
5.93148e+06
5.50799e+06
4.57337e+06
4.2182e+06
4.66679e+06
6.50707e+06
1.02721e+07
1.38806e+07
1.58717e+07
1.8187e+07
1.77801e+07
1.32369e+07
7.04452e+06
6.69558e+06
6.68208e+06
6.0557e+06
5.46469e+06
5.2992e+06
5.03438e+06
4.78538e+06
4.57169e+06
4.16237e+06
3.94009e+06
4.31764e+06
5.45995e+06
7.85787e+06
1.14842e+07
1.49885e+07
1.73185e+07
1.78165e+07
1.39141e+07
3.95099e+06
5.31846e+06
5.25231e+06
5.39008e+06
4.94133e+06
4.42778e+06
4.23447e+06
3.99399e+06
3.80702e+06
3.68053e+06
3.6899e+06
4.0415e+06
5.12047e+06
7.09641e+06
9.74914e+06
1.32656e+07
1.61634e+07
1.64877e+07
1.31692e+07
3.87168e+06
199417
3.38121e+07
3.89614e+07
4.2663e+07
4.5568e+07
4.91444e+07
5.16429e+07
5.38752e+07
5.2461e+07
4.55089e+07
3.79225e+07
3.07431e+07
2.47716e+07
2.01867e+07
1.67282e+07
1.40195e+07
1.17961e+07
9.90875e+06
8.43574e+06
6.92606e+06
5.10064e+06
3.89434e+07
4.53282e+07
4.9476e+07
5.22826e+07
5.72662e+07
6.25834e+07
6.67749e+07
6.27157e+07
4.73369e+07
3.44067e+07
2.55799e+07
2.01881e+07
1.67365e+07
1.42157e+07
1.21961e+07
1.04858e+07
8.97992e+06
7.75037e+06
6.58866e+06
5.01037e+06
4.26397e+07
4.9517e+07
5.35052e+07
5.44111e+07
5.99704e+07
6.91731e+07
7.59009e+07
6.93548e+07
4.37781e+07
2.61485e+07
1.93856e+07
1.63586e+07
1.44621e+07
1.29103e+07
1.1467e+07
1.00788e+07
8.74994e+06
7.65761e+06
6.57625e+06
5.13146e+06
4.55029e+07
5.25581e+07
5.50155e+07
5.3576e+07
5.34003e+07
6.93622e+07
8.41163e+07
8.53933e+07
4.63214e+07
1.31981e+07
1.24906e+07
1.20353e+07
1.13858e+07
1.05636e+07
9.65406e+06
8.68849e+06
7.69399e+06
6.8664e+06
5.91394e+06
4.65554e+06
4.88986e+07
5.69322e+07
5.94683e+07
5.20293e+07
9.2922e+06
7.66195e+06
8.59467e+06
9.79966e+06
1.01807e+07
9.94699e+06
9.28218e+06
8.28412e+06
7.20295e+06
6.31698e+06
5.28688e+06
4.15661e+06
5.13213e+07
6.18756e+07
6.78321e+07
6.71918e+07
7.7577e+06
7.89212e+06
8.18862e+06
8.82156e+06
9.46317e+06
9.4304e+06
9.0523e+06
8.2444e+06
7.20613e+06
6.22408e+06
5.09218e+06
3.95558e+06
5.35373e+07
6.60463e+07
7.46649e+07
8.21904e+07
7.98674e+06
7.95339e+06
8.06322e+06
8.39978e+06
8.84206e+06
8.84635e+06
8.61145e+06
7.96531e+06
7.00285e+06
5.99051e+06
4.79022e+06
3.70051e+06
5.23279e+07
6.24108e+07
6.88879e+07
8.45184e+07
7.74815e+06
7.54581e+06
7.70302e+06
7.95011e+06
8.39649e+06
8.46292e+06
8.31291e+06
7.80595e+06
6.92457e+06
5.8611e+06
4.49128e+06
3.493e+06
4.5583e+07
4.74223e+07
4.39881e+07
4.70317e+07
9.3737e+06
7.90673e+06
8.24525e+06
8.0025e+06
2.68881e+06
4.08166e+06
5.31215e+06
6.28523e+06
7.17908e+06
7.68964e+06
7.67288e+06
7.4157e+06
6.74232e+06
5.69378e+06
4.22043e+06
3.36641e+06