/*--------------------------------*- C++ -*----------------------------------*\
  =========                 |
  \\      /  F ield         | OpenFOAM: The Open Source CFD Toolbox
   \\    /   O peration     | Website:  https://openfoam.org
    \\  /    A nd           | Version:  9
     \\/     M anipulation  |
\*---------------------------------------------------------------------------*/
FoamFile
{
    format      ascii;
    class       surfaceScalarField;
    location    "0.002";
    object      phi;
}
// * * * * * * * * * * * * * * * * * * * * * * * * * * * * * * * * * * * * * //

dimensions      [0 3 -1 0 0 0 0];

internalField   nonuniform List<scalar> 
28500
(
-271.058
-270.727
-68.5723
-209.181
-283.446
-78.2388
-153.123
-297.316
-80.3207
-90.8683
-309.574
-84.713
-22.0685
-335.769
-84.547
52.643
-347.788
-89.2338
124.891
-356.973
-92.5421
201.48
-366.31
-96.1111
296.407
-356.47
-96.0282
377.497
-321.91
-95.3568
449.122
-274.874
-94.486
513.862
-234.727
-93.1472
574.467
-210.441
-91.608
633.111
-196.832
-90.0606
691.185
-188.94
-88.7941
749.471
-184.555
-88.0738
808.932
-181.597
-85.7678
868.494
-175.549
-80.3268
925.953
-180
-86.9391
-178.239
-81.5834
-283.707
-208.789
-78.2534
-224.932
-225.124
-87.7028
-171.372
-241.573
-86.478
-111.222
-258.53
-88.253
-40.5141
-292.127
-89.7253
40.9077
-312.78
-92.3254
121.329
-323.802
-96.828
211.265
-331.987
-100.37
330.912
-308.702
-99.9918
417.997
-239.54
-99.6821
486.888
-171.887
-100.247
543.664
-128.945
-100.764
595.642
-104.889
-100.488
646.75
-91.9555
-99.5977
698.684
-85.4285
-98.0961
752.188
-82.7817
-97.2734
807.477
-81.9374
-96.0819
865.049
-77.8538
-85.3167
920.959
-82.4408
-92.2516
-82.2874
-90.03
-297.196
-152.543
-80.2104
-240.339
-171.261
-86.2664
-190.716
-192.222
-78.855
-133.374
-54.4299
-76.8593
-51.7036
-55.2006
-53.5063
-58.4792
-64.1604
-84.943
-67.7079
-66.0306
-69.2334
30.9044
-70.1057
-87.6872
-72.505
-71.6458
-73.9026
118.296
-72.0071
-93.1534
-74.1062
-73.4973
-75.4785
225.019
-72.3774
-94.7889
-72.9555
-73.8975
-74.3057
378.872
-62.3298
-90.984
-53.8778
-63.3866
-54.8252
468.371
-117.239
-87.4329
521.503
-56.7062
-85.7182
567.156
-26.2844
-87.9174
612.557
-11.4619
-90.6995
659.614
-3.04253
-92.6761
708.682
2.01996
-93.0833
759.903
4.39847
-92.7488
813.435
5.91426
-92.1171
869.733
8.12098
-84.1856
925.931
4.99859
-89.3818
1.81553
-84.2093
-309.035
-90.4248
-84.1383
-257.426
-110.431
-86.9177
-53.6243
-133.43
-74.4372
-51.8422
-54.3276
-52.7741
-44.8076
-45.7155
-19.3029
-30.11
-22.0309
38.8696
-16.1489
-15.1894
-15.2904
-16.0021
17.6533
-4.18883
-23.4214
-16.9222
-16.8847
-17.0662
-16.7482
-7.73465
18.4489
-24.3005
-17.3402
-16.8504
-17.0386
-17.1641
-28.9427
40.5991
-25.6341
-17.3436
-16.9815
-17.1949
-17.1286
-66.7934
92.0879
-53.1388
-23.7894
520.014
21.8205
-86.9012
-118.942
-125.636
-119.351
-126.428
547.362
63.0283
-78.7582
581.558
81.1332
-78.7576
622.534
86.057
-83.8187
668.64
86.298
-90.2113
718.043
86.2889
-95.7887
769.682
87.4279
-101.17
823.756
89.7332
-103.149
879.818
91.0302
-96.188
934.494
97.4599
-108.729
90.3439
-106.127
-334.557
-22.1212
-83.9842
-291.164
-40.2904
-88.1253
-64.352
-58.2571
-81.8763
-67.2402
-65.5358
-68.6753
-29.458
-19.8118
40.1797
-16.3688
-15.6924
-15.9492
-16.1551
-1.056
31.1234
4.02242
-6.19666
528.655
124.422
-83.1271
-128.223
-134.854
-129.596
-137.419
538.765
135.944
-81.9623
561.916
145.886
-84.5658
594.837
151.12
-88.8998
638.431
153.06
-94.8711
688.994
153.412
-101.114
743.448
154.833
-105.296
802.408
156.629
-103.127
861.432
158.052
-100.47
920.027
171.907
-117.06
162.973
-110.734
-347.146
52.2239
-89.5969
-311.86
40.2738
-92.6573
-70.1588
29.7764
-88.091
-72.5183
-71.6533
-73.9009
17.3075
-4.54564
-22.8979
-16.9222
-16.9265
-17.0849
-16.7638
-7.14499
35.4775
8.52617
-5.04771
614.234
214.355
-84.3307
-147.944
-156.498
-150.968
-159.575
611.552
211.984
-83.9917
616.703
214.519
-85.0448
631.005
217.163
-87.369
658.043
218.729
-90.9313
696.894
219.354
-95.9966
744.167
220.27
-100.22
798.548
220.576
-99.5941
852.816
222.854
-101.256
907.577
238.143
-118.739
227.321
-110.863
-356.23
124.473
-93.3872
-323.413
120.953
-97.6299
-72.1125
117.783
-93.9301
-74.1501
-73.5501
-75.4952
-7.11534
17.9451
-24.4749
-17.3684
-16.8757
-17.0592
-17.1955
-12.1205
40.1567
13.2497
-4.89135
670.424
291.687
-81.3548
-164.697
-168.494
-168.14
-172.827
663.442
286.706
-79.9205
659.831
287.732
-80.4211
662.209
289.927
-81.8562
676.285
290.577
-83.4765
705.029
291.353
-86.9552
746.054
292.284
-91.2719
796.138
293.133
-93.4405
846.136
296.412
-99.8774
896.396
309.127
-119.78
290.69
-111.102
-365.77
201.285
-96.4703
-331.191
211.499
-101.016
-72.2941
225.608
-96.1092
-72.6491
-73.8263
-73.9603
-28.7325
41.0162
-25.7865
-17.2409
-16.9771
-17.181
-17.0116
-16.5066
42.3478
17.5866
-4.53858
721.243
366.971
-76.2592
-173.131
-177.372
-177.81
-181.808
720.023
367.901
-76.0999
711.917
363.798
-77.1227
707.852
363.041
-79.3297
710.228
362.738
-80.9371
724.925
363.305
-83.1655
754.057
365.394
-87.6113
796.167
366.875
-91.9989
842.67
368.804
-102.896
891.565
375.565
-122.764
345.707
-109.793
-355.677
296.658
-97.6365
-306.925
331.308
-102.847
-61.878
379.589
-95.8766
-52.79
-62.4018
-54.4324
-67.1245
-52.444
93.1231
-24.4787
2.60591
4.63126
32.3118
-9.54246
-6.81563
8.25064
36.1791
-4.92439
-12.0341
13.2066
40.3937
-4.58651
-16.4372
17.4865
42.6303
-4.20588
-19.5643
-25.3248
161.441
168.395
-17.5153
-24.8611
-18.1041
-23.3981
-27.9074
-26.551
-28.6693
726.26
524.761
-70.7096
-171.722
-160.985
-176.439
-163.467
744.413
491.364
-77.6745
750.392
468.011
-73.4931
750.358
452.406
-73.9645
750.721
447.59
-78.3877
756.704
445.386
-82.9738
776.902
442.271
-87.8577
814.336
435.439
-93.5955
862.083
431.599
-108.178
913.842
429.972
-123.594
396.214
-102.389
-320.088
377.537
-97.8582
-237.074
417.982
-104.258
-114.403
468.028
-94.0097
21.444
518.712
-95.8566
-118.763
-125.552
-118.982
-126.199
123.926
531.996
-92.5738
-129.107
-136.954
-129.586
-137.819
214.714
615.462
-85.1619
-149.723
-157.589
-150.637
-158.744
292.794
671.39
-77.2615
-165.303
-169.339
-167.4
-172.47
378.32
720.411
-69.3724
-174.91
-180.054
-179.005
-184.87
515.749
734.996
-63.638
-176.273
-165.916
-181.732
-169.084
651.076
669.177
-74.359
721.773
605.075
-72.076
750.852
569.165
-62.2179
764.7
550.867
-65.6698
775.296
540.769
-75.2213
788.771
531.306
-83.5647
816.092
518.423
-89.6658
858.741
505.656
-97.6807
908.447
501.954
-113.198
956.05
493.075
-112.625
443.322
-86.0421
-273.013
449.058
-97.3467
-169.911
486.556
-105.049
-55.2362
520.953
-92.1095
62.2974
546.127
-85.7495
136.055
542.599
-86.1348
212.628
613.093
-84.0225
288.797
665.151
-75.7022
371.257
716.112
-69.0455
490.682
748.965
-65.7988
598.891
733.416
-63.7956
680.966
691.892
-49.1422
729.392
652.753
-49.414
759.692
636.059
-68.643
789.298
624.912
-83.8494
824.086
611.282
-91.2103
864.579
597.215
-94.2588
906.534
588.397
-98.8626
943.311
580.323
-102.643
965.375
540.402
-87.2631
471.024
-64.0366
-233.23
513.7
-95.9275
-127.704
543.262
-104.783
-25.8813
566.648
-92.7406
80.0328
580.385
-83.6698
146.082
564.904
-85.9958
214.79
617.965
-83.9106
289.11
662.773
-76.7218
364.483
709.122
-70.6651
466.192
751.135
-64.417
568.994
757.478
-51.3491
649.545
738.114
-43.0466
708.944
716.228
-59.5761
762.723
707.376
-89.4706
809.409
699.177
-99.1395
845.773
687.525
-92.723
871.702
671.94
-84.013
892.664
651.112
-77.3152
922.177
612.615
-70.0878
935.493
546.483
-54.7868
489.24
-46.5047
-209.536
574.264
-94.133
-104.086
595.236
-103.557
-11.5994
612.106
-94.0387
84.7365
621.28
-87.453
150.877
596.887
-89.657
216.941
631.547
-85.7442
290.088
666.523
-77.6038
363.308
706.401
-74.2665
451.678
749.351
-66.8919
550.354
767.809
-55.2789
635.443
765.891
-56.4517
703.605
770.113
-79.7855
771.283
775.739
-100.782
802.759
766.129
-84.7955
811.102
733.941
-61.8005
829.648
700.599
-48.9579
868.223
655.483
-48.3887
892.466
593.558
-48.5428
879.04
542.708
-37.4671
528.06
-43.4922
-196.171
632.907
-92.3432
-91.37
646.38
-102.033
-3.30546
659.21
-95.1037
85.1796
667.397
-93.2517
152.411
639.682
-95.7097
217.941
658.105
-89.2875
290.127
681.44
-79.5577
363.104
710.653
-76.2833
447.177
749.352
-72.2793
540.058
776.2
-66.5434
624.312
793.766
-72.1466
697.475
814.547
-87.0352
763.924
806.636
-78.5914
774.307
776.747
-49.6652
768.659
719.782
-29.2948
789.191
639.345
-23.3304
815.904
594.78
-33.2649
816.459
574.001
-38.1927
807.729
580.127
-39.4795
598.938
-59.7356
-188.444
691.005
-90.9308
-84.9751
698.375
-100.24
1.84592
708.337
-95.0899
85.4945
716.948
-98.568
152.467
689.542
-102.004
218.117
696.905
-94.6087
290.257
710.101
-83.6907
364.007
726.659
-79.33
445.321
756.125
-77.185
530.242
788.571
-75.7904
610.287
827.412
-80.4739
685.935
851.04
-82.0361
731.357
815.917
-55.1671
717.956
773.469
-27.6522
669.666
671.899
-22.1392
684.815
580.619
-28.4239
706.597
566.883
-40.3304
713.763
591.881
-51.4798
700.623
641.75
-70.3861
661.317
-96.3541
-184.167
749.31
-90.165
-82.3877
751.937
-99.3913
4.3788
759.598
-94.6488
86.862
768.751
-103.662
153.725
743.584
-106.382
218.808
744.436
-99.2985
290.781
750.317
-88.7431
366.162
756.242
-84.1672
442.669
776.873
-82.2273
517.355
815.746
-82.0101
596.313
867.256
-85.0304
670.97
876.512
-76.123
700.504
834.28
-45.3186
642.102
793.703
-23.0915
584.357
685.524
-29.1735
590.929
587.489
-65.4196
595.086
576.942
-76.0098
620.361
604.932
-88.2161
615.799
648.724
-107.152
650.893
-114.993
-181.27
808.779
-87.8352
-81.5063
807.253
-98.2917
6.05611
813.121
-94.0393
89.3637
822.949
-105.33
155.587
802.408
-104.276
219.07
799.148
-98.9675
291.319
799.31
-91.4228
367.233
798.169
-88.3968
435.97
814.516
-87.9838
505.076
858.675
-90.0373
588.128
908.014
-91.1409
651.585
895.322
-72.3259
657.41
871.022
-47.5419
599.331
818.736
-35.0097
572.384
708.092
-41.997
580.879
593.607
-76.8494
584.446
581.605
-102.229
586.775
605.597
-109.284
584.017
609.258
-121.475
523.321
-107.683
-175.279
868.381
-82.2187
-77.4711
864.879
-87.3199
8.35067
869.437
-85.7905
90.8942
879.15
-97.7903
157.087
861.315
-101.499
221.226
853.467
-100.656
294.504
848.322
-97.9065
368.906
844.251
-99.1045
432.266
862.257
-102.901
502.266
908.658
-105.992
580.829
943.955
-96.6395
613.85
922.579
-67.7668
595.92
894.201
-50.1916
577.48
818.354
-41.2111
597.3
714.94
-53.3663
608.063
620.603
-87.814
607.876
586.525
-107.969
570.897
570.904
-119.873
417.789
467.824
-102.957
127.847
-50.6678
-179.73
925.936
-88.9311
-82.0207
920.866
-94.4347
5.36949
925.671
-91.2563
97.4218
933.92
-110.056
170.872
919.941
-118.462
236.598
908.105
-118.314
307.644
897.59
-117.741
375.639
892.398
-118.973
430.445
914.079
-118.596
493.868
956.588
-107.32
541.945
965.068
-84.1721
548.262
935.665
-56.3477
543.468
879.674
-41.3865
582.235
808.252
-42.9543
645.124
701.855
-70.6588
651.003
619.096
-102.703
609.943
584.78
-118.109
468.606
419.076
-100.181
88.8428
88.9962
-41.2401
0.167861
-1.30671
-178.07
-83.4204
-81.973
-92.2645
2.16082
-86.1995
90.429
-107.357
162.375
-112.01
226.44
-110.65
290.04
-109.791
345.567
-107.142
396.659
-99.1684
444.369
-83.879
471.86
-64.7193
489.274
-49.632
528.287
-47.1492
600.559
-61.3823
662.975
-92.9265
652.086
-110.046
524.286
-102.008
128.444
-47.5887
0.16833
-1.22809
-0.000118833
-274.007
-273.737
-56.1012
-213.796
-288.369
-62.1757
-158.291
-304.542
-62.3757
-95.4773
-319.712
-66.4417
-26.0128
-346.946
-66.6341
48.8934
-360.514
-70.0501
122.296
-369.82
-72.6214
201.568
-379.393
-75.9756
298.917
-368.458
-75.1657
379.741
-329.616
-74.3712
450.743
-279.549
-73.7851
514.323
-237.081
-73.1578
573.532
-210.508
-72.7681
630.763
-196.2
-72.8191
687.513
-188.088
-73.5255
744.773
-183.875
-75.2577
803.541
-181.699
-76.5477
863.438
-175.776
-73.914
922.302
-180.722
-82.3977
-180.317
-77.4829
-288.542
-213.431
-62.2521
-231.274
-231.572
-67.7523
-177.955
-250.378
-65.3017
-117.219
-271.784
-67.1192
-45.362
-307.076
-68.4871
36.8995
-328.118
-71.4771
119.288
-339.53
-75.0159
213.236
-345.752
-78.367
336.147
-320.736
-76.9657
423.731
-248.685
-75.5288
490.997
-178.322
-75.5407
546.082
-133.29
-76.2074
596.314
-107.653
-76.9367
645.632
-93.4018
-77.8332
695.872
-85.9549
-78.737
747.946
-83.0193
-80.5803
802.421
-82.9525
-83.801
859.986
-79.2225
-77.4339
916.891
-85.2118
-84.5683
-86.7948
-83.1194
-304.062
-157.79
-62.7178
-248.551
-177.851
-65.8145
-200.467
-201.304
-59.4187
-142.393
-57.5621
-57.1606
-55.3239
-57.9107
-56.3175
-63.8475
-69.6145
-63.8099
-72.4715
-70.6553
-73.2301
26.7831
-74.4708
-68.0121
-76.7052
-75.3536
-77.5099
116.416
-76.0932
-72.5238
-78.1867
-76.8495
-78.8745
227.91
-76.5172
-74.374
-76.5629
-77.117
-77.2459
386.183
-64.9414
-69.7994
-56.8415
-65.7358
-56.4007
475.6
-126.588
-65.5781
527.599
-63.7113
-63.6758
571.792
-32.4563
-65.5624
615.74
-17.1547
-68.5692
661.539
-8.1667
-71.5007
709.492
-2.02619
-73.869
759.6
1.4781
-76.1369
812.176
3.18849
-79.6174
867.573
6.21451
-75.3644
923.733
2.82577
-83.0511
-0.961287
-80.8833
-318.276
-95.1519
-66.9281
-269.433
-116.61
-67.9502
-56.8766
-141.131
-58.2488
-54.9733
-57.5553
-56.2414
17.5259
-48.9236
-48.9911
-15.7685
20.3444
-31.4811
-18.0332
43.3696
-17.7689
-17.358
-17.5871
-17.5726
21.6522
18.8444
-5.23143
-19.0744
-17.8517
-17.9432
-17.7348
-18.0655
22.6962
-6.75408
17.5311
-20.1233
-18.2402
-17.8611
-18.1495
-17.9341
23.7311
-28.4653
40.8514
-21.0661
-18.3105
-18.1573
-18.237
-18.2559
-68.8729
20.5592
93.3735
-56.418
-18.7072
529.993
11.8073
-58.8408
-120.881
-127.581
-121.257
-128.257
555.282
55.1883
-57.3616
587.045
76.0351
-61.9391
626.065
82.0733
-68.2464
670.349
82.1635
-74.0848
717.981
81.4757
-78.2718
767.999
81.8448
-82.7238
820.697
83.8709
-87.3089
876.498
85.5797
-82.1889
931.804
92.8595
-93.5639
87.7262
-93.5052
-344.931
-26.3287
-66.9388
-303.726
-45.8259
-69.1353
-67.8395
-65.1114
-65.6222
-71.3044
-68.5259
-71.9784
18.6941
-32.098
-17.719
41.6492
-16.847
-16.1687
-16.6631
-16.2481
4.74214
0.616445
31.2459
3.12078
-4.10409
547.878
116.236
-66.9629
-131.73
-140.64
-132.58
-142.725
554.922
127.568
-64.178
575.137
139.146
-67.205
604.142
144.781
-71.7239
643.098
146.537
-76.7762
689.396
145.802
-81.9676
740.627
145.623
-87.5804
797.226
147.068
-89.3614
856.467
147.981
-85.8515
915.845
163.632
-99.8887
159.033
-96.5057
-359.39
48.3213
-70.3563
-326.948
35.943
-72.0259
-74.4435
25.1667
-69.5295
-76.7552
-75.398
-77.6053
21.5429
19.4759
-5.97694
-19.6808
-17.8542
-17.873
-17.7421
-17.983
4.46218
-6.49601
37.1533
7.85766
-4.27417
638.383
205.565
-69.6161
-154.379
-162.664
-157.185
-165.853
634.489
202.79
-68.0762
636.975
205.041
-68.4974
648.386
208.078
-71.0322
671.379
209.853
-74.4993
705.742
210.252
-79.2622
748.77
210.682
-84.9355
799.641
210.98
-87.8905
852.851
211.8
-87.4832
906.65
228.37
-100.986
222.954
-96.1014
-369.303
121.543
-73.3625
-338.987
118.206
-75.8393
-76.1303
115.054
-73.6222
-78.2267
-76.8472
-78.9075
22.8445
-6.04454
16.9925
-20.4355
-18.2611
-17.8797
-18.1764
-17.9366
4.26138
-11.3569
41.8946
12.4605
-4.08103
701.576
282.442
-68.2478
-171.823
-176.975
-175.226
-180.902
694.995
277.553
-65.9012
689.347
276.724
-65.5427
690.537
279.522
-68.5119
700.3
281.206
-70.5779
722.495
281.976
-74.2137
757.14
282.999
-79.9715
802.66
283.786
-85.0374
851.223
285.194
-87.4673
899.656
298.998
-102.052
286.978
-96.5993
-378.955
200.432
-76.2807
-345.676
211.744
-78.7498
-76.4656
226.108
-75.1206
-76.3446
-77.1062
-77.1349
23.9875
-28.1254
40.7816
-21.3205
-18.1956
-18.132
-18.1344
-18.1766
4.06435
-15.5371
44.8991
16.6787
-3.98933
756.086
359.39
-67.5954
-182.437
-187.164
-186.458
-190.232
755.312
359.753
-66.4579
746.508
356.026
-66.4999
739.243
353.336
-67.6995
738.697
354.857
-71.0479
748.094
355.121
-73.376
770.591
356.748
-78.5913
806.964
358.732
-84.3755
850.126
359.473
-89.7455
895.099
368.372
-104.763
345.873
-97.1607
-368.688
298.158
-76.4917
-320.434
335.672
-79.2315
-63.9576
386.324
-74.4947
-55.5246
-65.3109
-56.4382
-67.629
22.1025
-55.2334
93.5333
-20.9427
4.77687
3.16948
4.19394
32.3046
-7.27747
4.70114
-6.68873
8.02184
36.6418
-4.67682
4.10772
-11.4211
12.5362
41.4882
-4.06274
3.75865
-15.4833
16.4347
44.6814
-3.69912
-15.916
-24.3543
13.6402
165.893
176.633
-13.5214
-22.9082
-16.8168
-22.9939
-28.6902
-23.8338
-27.9222
757.847
526.732
-66.937
-180.057
-166.609
-183.747
-169.778
776.659
488.919
-70.0127
782.415
465.017
-66.007
781.131
448.097
-65.9676
780.077
441.073
-70.3854
782.921
438.458
-75.6455
795.448
436.774
-80.3734
824.406
432.534
-85.8163
865.963
426.53
-94.2805
912.228
426.839
-107.939
398.49
-93.1865
-329.795
379.359
-76.3594
-248.423
423.933
-79.2354
-123.315
476.377
-72.1337
16.4793
529.487
-69.7017
-120.573
-126.674
-120.926
-127.942
118.219
540.326
-74.9162
-130.349
-138.486
-131.201
-138.851
205.585
629.261
-71.5787
-151.562
-160.387
-153.205
-162.935
281.66
697.042
-66.6378
-170.179
-175.95
-173.606
-179.535
368.456
753.069
-64.7702
-183.343
-189.906
-186.67
-192.554
516.152
763.219
-66.0491
-185.761
-173.124
-187.722
-173.438
667.417
682.736
-66.9314
745.706
609.227
-71.1166
777.818
570.819
-65.4987
792.907
548.994
-63.6112
801.931
535.883
-68.5361
810.809
527.508
-75.8093
828.271
517.38
-82.1403
862.473
504.189
-88.3097
907.396
496.078
-99.6016
955.346
491.763
-105.446
452.648
-82.3843
-279.557
450.555
-76.1099
-178.064
491.287
-79.5469
-62.2629
528.429
-69.5508
58.3657
555.73
-65.0379
129.314
549.8
-69.9649
203.438
627.609
-69.4001
277.737
691.399
-64.629
361.653
749.153
-63.9323
486.633
778.123
-67.3286
602.277
753.381
-65.8824
693.072
702.17
-60.4639
748.904
657.68
-58.8587
780.236
635.34
-65.1434
806.139
623.057
-74.305
834.242
609.787
-82.5707
869.625
595.319
-86.9965
910.389
584.354
-91.2208
950.962
580.215
-98.3867
979.579
556.939
-87.9102
491.536
-64.9041
-236.822
514.235
-75.558
-132.517
546.363
-79.9659
-31.2149
572.422
-70.2147
77.9162
587.845
-66.7082
140.143
571.355
-70.7006
205.301
631.3
-69.1018
277.25
686.985
-64.2708
355.257
740.667
-64.2034
462.8
781.094
-62.9235
568.98
781.465
-60.3073
654.038
755.044
-55.5396
716.921
722.704
-63.1861
768.513
704.372
-79.4057
814.191
694.514
-91.1733
855.84
684.699
-90.0181
889.245
673.001
-82.8851
915.637
661.727
-79.4415
941.13
630.16
-76.4522
960.453
577.781
-61.1899
510.323
-42.8442
-210.086
573.513
-75.0547
-106.5
596.551
-80.2295
-15.7854
616.138
-72.2217
82.9728
626.728
-71.496
145.16
601.188
-73.7262
207.52
643.235
-70.9232
279.092
688.236
-66.4968
352.527
734.845
-65.4579
446.028
778.642
-63.1287
547.313
793.935
-61.2858
634.638
783.573
-62.8973
702.411
773.925
-76.2602
768.32
771.607
-96.2434
817.993
769.684
-89.4761
834.48
748.62
-74.1371
849.85
712.269
-60.63
882.82
682.39
-55.6977
914.89
624.189
-53.8242
908.956
567.398
-35.9374
537.877
-31.436
-195.712
630.777
-74.9116
-92.1959
645.775
-80.6379
-6.77697
661.742
-74.3838
82.4992
670.713
-76.5465
146.555
641.075
-78.5653
208.938
666.902
-74.1278
280.026
698.686
-68.4791
353.604
735.541
-68.4719
439.005
777.543
-67.8354
534.236
801.655
-66.3281
622.722
808.66
-70.2443
694.428
817.936
-85.2737
767.83
821.56
-87.942
791.568
795.477
-65.6356
790.807
749.571
-40.4568
809.79
675.828
-29.1575
839.985
624.634
-34.3758
845.616
593.373
-34.1288
837.978
586.037
-27.4387
591.72
-38.0887
-187.631
687.503
-75.4103
-84.8818
695.842
-81.0786
-0.698436
709.529
-76.1808
81.6456
718.08
-80.3612
145.552
688.136
-83.6591
209.255
702.115
-78.8937
280.516
721.845
-72.5347
354.175
745.821
-71.19
436.808
780.836
-72.8528
525.713
810.25
-72.4617
608.577
836.763
-77.7035
683.788
860.827
-84.0671
744.997
840.066
-71.2689
745.352
796.87
-39.0438
703.769
705.159
-27.1812
714.641
607.213
-18.2541
740.687
584.965
-28.1984
748.733
599.61
-35.5008
741.599
635.107
-46.5899
655.518
-72.8515
-183.504
744.687
-76.9994
-82.1437
747.693
-82.5924
2.64633
759.523
-78.131
82.0858
767.958
-84.6489
145.293
739.805
-89.0006
209.67
746.129
-84.7247
281.431
757.092
-78.7544
356.237
769.125
-76.553
435.682
793.885
-76.9407
515.442
827.972
-77.493
593.824
873.035
-82.9841
671.718
894.864
-80.3462
709.863
855.657
-58.3687
673.721
814.398
-29.0617
610.213
712.435
-19.0887
617.476
611.318
-47.3423
628.243
585.683
-51.1345
649.834
612.043
-61.0453
640.021
650.09
-92.2883
654.436
-119.162
-181.39
803.356
-78.265
-82.1581
801.975
-85.7357
4.28723
812.036
-81.6045
84.2655
820.629
-89.2716
146.826
796.664
-90.6482
210.014
797.859
-87.7605
282.367
802.639
-83.6169
358.502
805.991
-81.6513
431.771
823.089
-81.3303
502.373
863.016
-83.9867
583.317
914.032
-87.4945
659.775
919.437
-77.5983
679.827
887.28
-55.6554
623.468
841.317
-35.3126
587.38
736.868
-29.3308
589.094
621.753
-52.3878
591.495
588.595
-86.3694
596.244
600.106
-105.497
592.708
613.749
-129.405
559.147
-135.563
-175.51
863.249
-75.4854
-78.6391
859.49
-79.2909
7.06586
867.358
-77.2502
86.0535
876.483
-83.9781
147.844
855.982
-86.9479
211.053
851.55
-87.218
284.307
850.598
-86.0584
359.582
848.945
-86.7942
426.155
864.967
-89.9921
495.265
908.804
-96.3093
579.595
954.312
-94.7556
627.301
942.572
-75.1184
621.404
916.9
-54.6747
591.947
844.582
-35.1813
600.723
743.836
-36.0749
612.499
643.533
-61.8748
600.521
593.762
-105.525
569.29
569.567
-130.274
456.839
499.042
-135.533
213.225
-103.546
-180.502
922.255
-83.8341
-84.8772
916.614
-86.3033
3.42685
923.443
-85.0327
93.3967
931.866
-95.2678
163.665
915.48
-101.359
227.924
905.644
-100.961
298.607
898.633
-100.906
368.48
894.13
-102.406
426.37
912.289
-105.219
491.651
957.875
-103.269
556.055
981.08
-84.4689
575.926
960.951
-61.7861
564.314
909.029
-37.492
584.716
835.216
-27.9003
635.831
736.288
-46.5098
648.375
635.859
-91.9586
610.994
591.396
-126.532
497.388
457.209
-133.796
162.659
163.81
-94.4171
1.39321
-11.9598
-180.314
-78.7624
-86.7166
-84.674
-0.567731
-82.6849
88.2063
-94.7372
159.237
-97.7732
222.801
-96.2907
286.854
-95.9762
345.372
-95.4798
397.907
-91.4212
452.916
-80.3031
490.694
-64.8851
507.76
-43.5453
535.254
-31.7379
591.5
-37.7555
655.979
-72.6196
652.98
-116.585
555.291
-131.903
209.637
-100.744
1.29077
-11.3492
-0.00719042
-279.504
-279.055
-39.8773
-219.294
-294.671
-43.4044
-163.095
-310.793
-43.5541
-99.8491
-326.48
-46.6787
-30.2436
-354.904
-46.9036
45.0103
-369.369
-49.3617
119.808
-377.983
-51.3396
201.657
-387.454
-54.0635
300.178
-377.093
-54.2386
381.193
-335.853
-54.085
451.842
-283.694
-53.543
514.831
-240.001
-52.8602
573.517
-212.444
-52.7514
630.501
-198.498
-53.545
687.197
-191.054
-55.2968
744.348
-187.557
-57.9454
802.494
-186.536
-61.3876
862.547
-180.52
-61.5807
922.267
-185.567
-67.8026
-185.555
-64.7326
-295.239
-218.63
-43.4583
-237.602
-236.625
-46.7164
-183.643
-253.897
-45.4477
-122.7
-276.61
-46.6742
-50.3866
-314.853
-47.7248
32.6958
-337.158
-50.1684
116.88
-347.533
-52.5989
213.91
-352.755
-55.1344
338.591
-326.416
-55.3575
426.882
-252.92
-55.1162
492.873
-181.969
-54.3838
546.985
-135.722
-53.5715
596.753
-109.576
-53.5417
645.919
-95.5905
-54.6082
696.182
-89.1418
-56.5138
748.217
-87.7743
-59.2919
802.543
-89.3629
-64.0575
859.802
-86.0209
-63.2162
918.172
-91.7256
-68.6759
-93.2575
-68.0745
-310.904
-162.682
-43.7439
-254.477
-182.649
-45.6209
-206.873
-205.538
-41.4889
-148.249
-58.8548
-39.0089
-57.3815
-58.7773
-58.1523
-68.5857
-72.2756
-44.2509
-74.7695
-72.4733
-74.9699
22.9795
-77.0575
-47.5157
-79.2246
-77.4158
-79.5605
114.543
-78.2366
-50.1219
-79.9911
-78.5583
-80.4735
228.136
-78.5599
-51.402
-78.4176
-78.8659
-78.7414
388.75
-66.2694
-51.1883
-57.6432
-66.4697
-56.7186
478.888
-130.288
-49.2249
530.04
-66.9894
-47.5635
573.028
-35.5446
-47.4376
615.914
-19.9457
-48.4602
660.933
-12.0106
-50.2959
708.36
-7.55593
-52.8494
757.844
-5.46358
-56.2577
809.77
-4.76796
-61.7403
864.819
-1.70123
-61.8415
922.484
-5.05531
-70.127
-8.72456
-71.3418
-325.539
-100.19
-47.2648
-276.265
-122.664
-47.592
-59.0602
-147.153
-40.5331
-57.326
-59.3904
-58.0505
13.5895
-51.5763
-51.1176
-11.0682
15.4506
-32.9834
-12.4156
45.5369
-18.2783
-18.2396
-18.2538
-18.2406
16.5264
19.9349
-6.12934
-13.8401
-18.3428
-18.5346
-18.3093
-18.564
17.5372
-5.84415
16.7549
-14.6811
-18.7159
-18.3851
-18.6859
-18.3784
18.1835
-28.056
40.9745
-15.3042
-18.7549
-18.5882
-18.7189
-18.6709
-70.0464
16.1493
93.9731
-57.8903
-12.7081
533.63
4.34846
-46.1495
-121.591
-128.974
-121.622
-129.16
557.774
47.1761
-44.6655
587.612
71.06
-47.7827
624.091
78.9684
-51.3272
665.983
79.0232
-54.5642
712.208
76.697
-57.4721
761.696
74.6717
-61.1682
814.412
75.0521
-66.8397
871.081
75.3915
-65.5096
929.556
80.4642
-74.1808
77.2517
-75.7876
-353.074
-31.1893
-47.4791
-313.171
-51.8481
-48.7381
-70.5277
-71.0695
-46.6215
-73.8771
-71.3381
-74.424
16.1834
-34.0284
-14.4076
43.7076
-17.3602
-16.8323
-17.2672
-16.8252
4.15127
0.665818
31.63
2.67307
-3.11867
564.946
109.286
-55.3852
-134.349
-145.969
-134.689
-146.184
570.121
118.568
-50.692
587.465
131.941
-50.4757
612.133
137.8
-52.1974
646.239
139.677
-54.5864
689.078
138.279
-58.0523
738.541
136.039
-63.3244
793.793
136.451
-68.2034
853.542
134.789
-67.4882
915.144
148.567
-78.1653
149.139
-77.8013
-368.174
44.3832
-49.5778
-336.429
31.5972
-50.52
-77.0605
21.4213
-48.3061
-79.3099
-77.4982
-79.6496
17.396
20.8726
-6.78053
-14.6892
-18.3365
-18.4642
-18.3176
-18.5124
3.92715
-5.85838
38.8563
7.30066
-3.8284
662.423
198.701
-51.5705
-160.71
-169.293
-161.419
-170.588
658.702
194.923
-50.8794
658.617
196.158
-50.8303
667.047
199.413
-51.6641
685.083
201.582
-53.4384
714.747
201.733
-56.6941
754.23
201.344
-61.9973
801.709
201.685
-67.6552
854.077
199.251
-69.0184
908.236
214.977
-77.9789
215.664
-76.8968
-377.829
118.957
-51.7286
-347.173
115.402
-53.0086
-78.2128
112.634
-50.741
-80.1008
-78.5528
-80.6074
17.9607
-5.40696
16.4261
-15.1034
-18.7077
-18.3807
-18.6879
-18.3572
3.8528
-10.8669
43.7496
12.0254
-3.76317
728.596
276.147
-52.557
-178.557
-184.264
-180.093
-185.854
724.569
271.426
-51.4746
717.338
269.291
-49.9933
715.871
271.967
-52.3489
721.331
273.932
-54.0352
737.882
274.611
-57.0465
767.134
275.499
-62.1464
807.886
276.3
-67.5602
855.002
274.642
-69.0797
903.276
289.737
-77.2076
284.836
-75.9904
-386.434
199.694
-54.1312
-352.262
210.93
-55.1216
-78.6409
225.278
-51.4731
-78.5562
-79.0842
-79.0873
18.4714
-27.6933
40.3177
-15.5872
-18.7884
-18.5702
-18.7027
-18.601
3.7841
-15.0537
46.9057
16.1792
-3.72944
778.848
357.457
-56.99
-189.636
-193.606
-190.829
-194.874
779.199
353.478
-56.2148
771.461
350.569
-55.5942
762.582
347.163
-55.0789
760.027
348.663
-57.7593
765.214
349.07
-60.0359
782.909
350.449
-64.2261
813.847
352.314
-68.2939
853.046
351.855
-69.6355
895.504
365.096
-77.4598
351.008
-75.521
-377.264
298.367
-53.9889
-327.921
336.085
-54.784
-67.1436
386.407
-49.916
-58.0011
-67.4269
-58.1839
-68.8715
18.6903
-58.0643
93.6531
-14.2801
4.88915
0.58671
2.92285
31.5692
-4.09393
4.10586
-5.68221
7.0778
37.8245
-3.86068
3.87054
-10.6923
11.7837
43.496
-3.67117
3.67686
-14.8814
15.9096
46.6861
-3.58352
-21.8454
-18.258
16.3917
175.781
174.489
-16.5002
-25.5613
-20.4786
-25.9267
-26.3925
-19.5628
-25.823
774.547
519.856
-63.0789
-187.265
-173.617
-186.527
-172.282
795.229
483.433
-61.2639
802.196
462.288
-58.113
800.716
444.187
-57.6299
798.576
435.378
-60.7968
799.262
432.857
-64.3772
806.557
432.278
-67.0447
826.762
430.408
-69.4015
860.83
424.999
-71.9229
902.992
430.632
-80.2306
405.178
-75.5965
-337.491
380.12
-53.9411
-255.253
425.893
-54.879
-134.005
478.421
-48.7704
0.522282
534.18
-45.7023
-121.639
-128.502
-121.765
-128.824
102.249
553.048
-55.5599
-131.726
-141.795
-131.932
-143.416
193.586
656.798
-52.8323
-157.97
-167.953
-160.171
-170.348
273.346
726.453
-52.3645
-178.496
-183.957
-180.408
-185.95
360.547
777.807
-56.8491
-190.436
-195.412
-191.873
-196.44
520.431
774.857
-62.7847
-186.013
-172.274
-188.973
-174.164
678.209
681.922
-61.7603
757.944
605.837
-65.0544
791.29
569.82
-63.3266
808.781
546.092
-60.9881
817.348
530.833
-62.3259
822.784
523.418
-65.5569
831.901
516.491
-68.7062
856.292
503.217
-71.4061
895.214
492.105
-75.7195
942.396
491.437
-80.8544
460.481
-70.7699
-285.623
451.41
-53.907
-184.081
492.935
-55.0526
-70.0447
530.327
-48.7251
43.4636
558.985
-47.3373
111.063
560.167
-54.8652
189.415
651.974
-52.8984
268.69
721.076
-51.4982
354.446
774.903
-55.7795
485.169
794.323
-63.0229
604.871
761.217
-64.0767
698.941
703.201
-65.3258
759.611
657.107
-63.332
792.292
631.94
-62.869
815.21
619.744
-65.1231
837.414
608.033
-69.2241
866.648
593.169
-71.6248
905.473
577.947
-73.2472
947.959
573.163
-77.3172
986.573
564.565
-76.2592
510.495
-61.9966
-241.49
514.836
-53.8557
-136.825
547.554
-55.3315
-36.8961
573.572
-49.8421
68.1793
589.326
-51.3113
124.547
580.475
-55.5268
190.034
651.686
-53.8813
266.115
713.711
-50.6448
348.725
765.99
-55.3624
461.347
799.656
-58.2593
569.159
792.253
-61.9448
655.44
761.645
-62.6958
721.425
722.971
-64.9791
770.489
698.5
-69.2658
813.253
688.963
-76.3925
858.199
679.909
-78.9386
897.66
669.243
-76.6488
929.192
661.155
-75.198
954.12
649.218
-73.9049
976.782
604.195
-61.5577
537.929
-46.1469
-213.035
573.795
-54.2235
-109.616
597.513
-56.0495
-19.9906
616.573
-51.5285
77.1666
626.086
-54.5593
131.894
607.587
-56.6375
193.412
660.744
-55.0275
268.49
712.365
-53.2949
344.104
757.301
-55.1032
441.588
796.937
-57.5231
544.099
807.788
-60.8107
631.436
792.726
-64.1352
698.83
771.939
-71.7315
761.455
762.502
-85.0035
824.475
763.796
-84.5644
853.463
755.823
-75.4253
865.489
729.249
-64.6354
887.486
699.963
-60.5885
926.497
666.177
-57.8204
941.814
603.534
-45.3107
562.799
-37.3829
-198.6
630.94
-55.2778
-94.9452
646.703
-57.4265
-11.1313
661.642
-53.5229
77.8438
668.032
-57.2377
135.203
642.723
-58.3824
196.255
679.347
-56.7192
270.263
717.926
-55.0496
345.418
754.841
-57.7352
431.874
794.337
-61.1668
527.743
816.095
-63.1022
618.06
816.037
-66.3932
689.357
815.05
-78.9963
763.27
826.722
-85.6338
803.49
808.73
-70.1821
808.829
778.43
-54.8567
826.481
724.268
-49.7139
860.924
673.802
-50.0622
882.493
634.572
-46.7058
879.674
611.241
-37.1036
608.902
-36.6429
-190.818
687.682
-57.0867
-88.1504
696.918
-59.2692
-6.01813
709.097
-55.9545
76.0336
714.267
-59.5452
135.05
686.26
-61.3633
197.446
709.424
-59.6892
271.039
734.571
-58.0414
345.95
760.119
-59.9098
429.319
794.981
-65.0834
519.638
822.117
-66.1036
605.337
839.796
-70.0581
679.579
862.139
-81.2396
754.007
858.21