/*--------------------------------*- C++ -*----------------------------------*\
  =========                 |
  \\      /  F ield         | OpenFOAM: The Open Source CFD Toolbox
   \\    /   O peration     | Website:  https://openfoam.org
    \\  /    A nd           | Version:  9
     \\/     M anipulation  |
\*---------------------------------------------------------------------------*/
FoamFile
{
    format      ascii;
    class       volScalarField;
    location    "0.002";
    object      rho;
}
// * * * * * * * * * * * * * * * * * * * * * * * * * * * * * * * * * * * * * //

dimensions      [1 -3 0 0 0 0 0];

internalField   nonuniform List<scalar> 
9720
(
51.4781
59.0513
63.8182
67.7695
72.373
75.5284
78.3436
78.1713
71.694
62.2571
52.5109
43.7656
36.6367
30.9566
26.3377
22.4541
19.116
16.2691
13.1646
9.73463
59.0423
68.2112
73.7041
78.1745
84.0777
89.4766
94.3195
91.9048
75.9857
60.4964
47.5418
38.6295
32.4337
27.7462
23.9634
20.7827
18.0284
15.6159
13.213
10.0265
63.7909
73.6861
79.3835
83.0146
88.6349
97.2586
104.338
99.8976
73.0527
48.9257
37.8866
32.1597
28.2789
25.0863
22.2533
19.6927
17.3769
15.3668
13.2195
10.3208
67.7497
78.3672
83.4101
82.6241
85.7098
98.4755
111.969
117.732
77.6351
28.5998
26.3579
24.8156
23.1548
21.3147
19.374
17.4361
15.6092
13.9504
11.9012
9.36646
72.2382
84.2408
89.243
87.322
22.9447
17.5104
19.5345
20.6565
20.3322
19.2254
17.5529
15.7329
14.0472
12.4666
10.3675
8.37757
75.368
89.2836
96.9613
98.1326
17.7865
17.4686
18.1089
18.9002
18.8423
18.2106
16.8689
15.1467
13.4098
11.6719
9.4373
7.76299
78.0931
93.895
103.667
111.118
17.7743
17.0365
17.3547
17.7636
17.698
17.2136
16.0569
14.3941
12.607
10.7535
8.46541
7.1581
77.8743
91.2433
98.7121
116.199
16.7046
15.6821
16.026
16.5686
16.671
16.4334
15.6309
14.1711
12.3115
10.1243
7.72699
6.86075
71.266
75.2964
71.6898
74.0503
21.9845
18.1743
18.1696
17.0349
7.16096
9.14344
11.4039
13.2998
14.6562
14.8988
14.5907
13.6066
11.938
9.61855
7.41741
6.80089
61.9046
59.9065
48.2903
28.5275
17.946
17.9427
17.525
16.1571
9.81816
6.61815
7.30133
9.233
11.3823
12.5738
12.5987
12.1189
10.8324
8.77842
7.37011
7.24901
52.2307
47.1701
37.6584
26.4728
19.9072
18.5654
17.7781
16.5112
12.2074
7.65812
6.54017
6.92053
8.11052
9.2413
9.61968
9.53781
9.17727
8.34905
8.08542
8.64164
43.5636
38.4146
32.0619
24.8952
20.8161
19.2546
18.056
16.9814
14.0583
9.88555
7.1424
6.05107
5.95591
6.30976
7.12094
8.1866
8.61843
8.82153
9.58641
10.9174
36.5109
32.3025
28.2112
23.1686
20.4507
19.1464
17.9562
16.968
15.1903
12.0947
8.66126
6.09018
5.49645
5.67124
6.55761
7.7726
9.00857
10.5922
11.97
12.2195
30.8849
27.6667
25.031
21.2826
19.2908
18.4159
17.4229
16.6612
15.2236
13.06
9.83823
6.58751
5.76703
5.8865
7.14047
9.10416
11.0088
12.1801
12.4758
11.4124
26.2983
23.9158
22.2127
19.3286
17.5604
16.9611
16.232
15.7621
14.8305
12.992
10.1556
7.47397
6.78588
7.23744
9.19821
10.2451
10.4467
10.4854
10.5558
9.36824
22.4346
20.7551
19.6667
17.3984
15.7141
15.1718
14.568
14.2549
13.7364
12.3913
9.9088
8.50872
8.02485
9.28229
10.4047
8.51515
7.84314
8.15477
8.49308
7.34509
19.1131
18.0171
17.363
15.5815
14.0261
13.4166
12.7684
12.383
12.0215
10.9896
9.3958
8.82799
9.22309
11.2595
10.7156
7.94129
7.67534
7.89064
7.53583
5.83704
16.2808
15.6186
15.3564
13.9216
12.4469
11.6765
10.8731
10.209
9.68826
8.84479
8.41383
8.91847
10.7559
12.4649
10.7483
8.23774
7.90401
7.66545
6.20181
2.81198
13.1868
13.2225
13.2056
11.8682
10.3469
9.44101
8.53523
7.78903
7.4452
7.36331
8.08538
9.60369
12.1222
12.7429
10.7511
8.536
7.55277
6.20768
2.72086
1.29486
9.7552
10.0407
10.319
9.34681
8.36337
7.75812
7.17487
6.87824
6.80366
7.22287
8.59754
10.9228
12.3336
11.5424
9.40257
7.34257
5.85194
2.81091
1.29497
1.22505
50.2145
57.1736
61.505
65.2779
69.6562
72.54
75.1226
74.3785
67.2721
58.1836
48.926
40.7622
34.2072
29.0764
24.9452
21.4733
18.4746
15.9128
13.0997
9.74896
57.1462
65.3
70.1869
74.3119
80.0191
85.3241
89.7509
86.4886
70.3491
55.225
43.3377
35.3544
29.9155
25.8456
22.5772
19.8129
17.4092
15.2853
13.1076
10.049
61.4448
70.1541
75.2453
78.2247
83.9068
92.7098
99.3615
93.8967
67.1202
44.395
34.4224
29.4096
26.0751
23.3539
20.9424
18.7469
16.7396
14.9809
13.0825
10.3477
65.1892
74.4444
78.6668
79.7967
81.4232
94.9481
108.808
112.275
73.0678
25.854
24.0363
22.874
21.5005
19.9229
18.2551
16.5802
14.9951
13.5505
11.7503
9.35108
69.4629
79.9026
83.9145
82.0853
21.3183
16.4328
18.0003
19.3338
19.1937
18.3769
16.9492
15.2979
13.7402
12.2682
10.329
8.35599
72.2346
84.8037
91.9172
94.0173
16.9978
16.6624
16.9492
17.6283
17.7733
17.4031
16.3817
14.9063
13.3223
11.6732
9.5324
7.73682
74.8008
89.1998
98.5472
107.461
16.8425
16.3359
16.3661
16.6066
16.6791
16.4536
15.6908
14.3616
12.7458
10.9546
8.6694
7.13798
74.2224
86.1882
93.374
111.365
15.7907
15.0889
15.2075
15.5241
15.7987
15.6914
15.1803
14.0584
12.4332
10.4111
7.92208
6.81951
67.1823
70.0936
66.4115
71.3667
20.9472
17.1232
17.3213
16.462
6.50915
8.46911
10.6806
12.4305
13.7692
14.214
14.0491
13.359
11.9866
9.95254
7.55241
6.7341
58.1014
54.8424
43.829
25.5416
16.2491
16.5922
16.4806
15.4102
9.05347
5.85572
6.56862
8.45859
10.5458
11.8912
12.1025
11.821
10.861
9.02778
7.28031
6.98139
48.8285
42.9754
33.9452
23.6275
17.7887
16.8873
16.5128
15.5295
11.3216
6.84832
5.85753
6.2538
7.44251
8.75109
9.33246
9.27643
8.89811
8.11316
7.61451
7.98852
40.6627
35.0512
29.0054
22.4413
19.0803
17.5735
16.7185
15.824
12.9985
8.96658
6.4514
5.47534
5.40082
5.77438
6.42342
7.35619
8.00616
8.14647
8.66097
10.0667
34.1147
29.6667
25.7357
21.0982
18.9222
17.6986
16.7443
15.9848
14.1887
11.1318
7.91755
5.55689
4.86373
4.93231
5.71565
6.8927
8.01761
9.40497
10.9497
11.9792
28.9924
25.6407
23.067
19.5717
18.089
17.3025
16.4837
15.8327
14.5191
12.384
9.30059
6.08695
5.00608
5.036
6.02114
7.85585
9.93085
11.6704
12.4453
11.9579
24.8679
22.406
20.7027
17.9653
16.6719
16.2441
15.6777
15.2637
14.31
12.4971
9.82584
6.7811
5.94255
6.13922
7.9869
9.90637
10.8978
11.226
11.2946
10.2061
21.4015
19.6687
18.5554
16.3619
15.0651
14.752
14.3406
14.0997
13.5364
12.1509
9.66532
7.72058
7.19674
8.11595
10.0572
9.47048
8.56004
8.63559
9.04397
7.98372
18.4129
17.2914
16.5953
14.8449
13.5647
13.1863
12.7204
12.4392
12.0816
11.067
9.16866
8.30354
8.35185
10.3073
11.0947
8.55495
7.57141
7.92201
7.69377
6.21136
15.8674
15.1997
14.8747
13.4447
12.1433
11.5743
10.9288
10.4059
9.98665
9.12798
8.27104
8.37517
9.75011
12.0363
11.343
8.57983
7.91401
7.65481
6.69774
3.56804
13.0729
13.0505
12.9959
11.6705
10.2434
9.47124
8.65135
7.93177
7.57101
7.31062
7.70836
8.84553
11.2558
12.6912
11.3184
8.95345
7.68101
6.70973
3.48705
1.40656
9.73282
10.0149
10.291
9.30004
8.30369
7.70146
7.12401
6.82459
6.73926
6.99733
8.05234
10.1911
12.1109
11.976
10.0992
7.87762
6.22514
3.53129
1.40162
1.22545
49.2893
56.0094
60.0986
63.6627
67.7617
70.4261
72.7646
71.5301
64.2312
55.5166
46.7258
39.0254
32.8718
28.0831
24.223
20.9414
18.0687
15.6584
13.0552
9.81752
55.9549
63.5561
67.946
71.5494
76.9474
82.1244
86.2383
82.3855
66.5379
51.8944
40.9282
33.6839
28.7791
25.0873
22.0882
19.4989
17.1792
15.1811
13.1611
10.2064
59.9656
67.8645
72.1136
74.0532
80.0101
88.6729
95.0535
88.968
62.4573
41.0977
32.2411
27.965
25.1327
22.774
20.6051
18.5422
16.5827
14.9138
13.1846
10.5792
63.3518
71.2666
73.9128
73.5917
75.2279
89.7724
103.681
105.991
66.9089
23.8157
22.6374
21.8443
20.758
19.4274
17.9775
16.4514
14.9233
13.5865
11.9687
9.63744
67.2845
76.1433
78.9075
74.062
18.5376
15.3667
16.8757
18.5945
18.7738
18.3046
17.1548
15.5993
14.0077
12.5698
10.7418
8.63504
69.9526
81.269
87.379
87.9786
15.8713
15.5658
15.9464
16.7717
17.4446
17.2952
16.5916
15.3234
13.7849
12.188
10.1541
8.07216
72.3817
85.6216
94.211
102.277
16.2214
15.5438
15.6453
16.0088
16.4167
16.349
15.8763
14.8062
13.2823
11.5635
9.3801
7.45599
71.4574
82.3738
89.135
106.06
15.4537
14.6252
14.8132
15.1315
15.6202
15.6125
15.3089
14.419
12.9356
11.0576
8.60152
7.05072
64.3756
66.7468
62.8911
67.07
18.503
15.5671
16.0792
15.3112
5.7486
8.24314
10.4918
12.1576
13.5385
14.195
14.1172
13.6011
12.4098
10.5828
8.13528
6.92981
55.638
51.8747
40.9157
23.2317
14.7266
15.3831
15.4895
14.5794
8.29586
5.45537
6.2213
8.07899
10.2102
11.8041
12.2033
12.0151
11.2536
9.6491
7.59496
7.04849
46.7795
40.7407
31.7866
21.8811
16.2325
15.7386
15.5673
14.8165
10.6161
6.33266
5.44913
5.86356
7.17549
8.71999
9.49993
9.46169
9.07871
8.22541
7.50696
7.70905
39.0165
33.4191
27.4664
21.1488
18.0015
16.5639
15.9005
15.1444
12.3125
8.30501
5.98092
5.2435
5.27403
5.74847
6.31252
7.01246
7.69492
7.83442
8.13516
9.47347
32.8117
28.4992
24.6701
20.1688
18.3012
17.2426
16.2687
15.5948
13.6625
10.454
7.41128
5.38064
4.63255
4.58677
5.2312
6.37394
7.42594
8.52183
10.0334
11.8318
27.9925
24.8231
22.3735
18.9551
17.8867
17.1035
16.1981
15.5708
14.3083
12.0397
9.02554
5.98296
4.63997
4.55844
5.30614
6.90133
8.89943
10.9868
12.4242
12.7248
24.1185
21.8503
20.2684
17.6111
16.8199
16.4096
15.7343
15.2553
14.2287
12.4572
9.83568
6.59444
5.38511
5.4112
6.89995
9.39768
11.3165
12.2475
12.3773
11.1593
20.8351
19.286
18.2595
16.1693
15.3144
15.1303
14.6823
14.3656
13.7042
12.2583
9.77014
7.31093
6.64191
7.1734
9.57332
10.7006
10.0316
9.59201
9.53048
8.29842
17.9708
16.9926
16.3453
14.7041
13.7661
13.5937
13.1894
12.8989
12.4905
11.442
9.34196
8.01948
7.77358
9.33734
11.5545
9.98005
7.60441
7.49847
7.4549
6.28252
15.5754
15.0252
14.7204
13.4166
12.3708
12.0197
11.4856
11.036
10.6355
9.774
8.45999
8.13779
8.93141
11.4474
12.3729
9.42784
7.4791
7.21588
6.69353
4.41294
12.9799
13.0316
13.0263
11.8339
10.5751
10.0175
9.30501
8.59936
8.17182
7.67603
7.68575
8.41424
10.431
12.7431
12.3685
9.36694
7.43509
6.716
4.5615
1.74389
9.7533
10.1112
10.4593
9.53541
8.50309
7.96099
7.38569
7.04542
6.94487
7.11633
7.84422
9.67146
12.0289
12.7636
11.0187
8.18094
6.28213
4.38105
1.72889
1.23046
48.0357
54.6616
58.6122
61.9976
65.9657
68.5699
70.9118
69.5186
62.0759
53.4281
44.8867
37.4986
31.617
27.0366
23.3396
20.2109
17.4672
15.2409
12.9266
9.96082
54.6028
62.0974
66.3182
69.5637
74.9216
80.1618
84.3674
80.3877
64.333
49.6831
39.0825
32.3273
27.8273
24.3917
21.5214
18.9987
16.7045
14.7611
12.919
10.2644
58.4945
66.3079
70.3271
71.6888
77.6824
86.5351
93.141
86.9427
59.8955
38.7925
30.364
26.6089
24.2259
22.1937
20.205
18.2053
16.2225
14.536
12.8468
10.4168
61.6568
69.3172
71.6059
70.9361
71.9446
87.3106
101.441
103.2
63.4055
22.0729
21.2407
20.757
19.9795
18.9057
17.6405
16.2213
14.6973
13.3723
11.8226
9.61374
65.3505
74.0121
76.5636
70.445
17.5695
14.4121
15.8012
17.5752
18.2819
18.003
17.1154
15.6745
14.0093
12.5454
10.8003
8.72181
68.1029
79.3335
85.3478
85.4987
14.8536
14.9313
15.3012
16.1782
17.1428
17.1251
16.6295
15.4765
13.903
12.3003
10.3967
8.30073
70.5203
83.6846
92.1792
100.11
15.2262
15.0575
15.1532
15.5967
16.1849
16.1747
15.8135
14.8435
13.3702
11.7319
9.75029
7.77294
69.4217
80.2222
86.7429
102.622
14.8216
14.2575
14.4705
14.7989
15.4087
15.4993
15.2694
14.5112
13.1554
11.4323
9.17276
7.39848
62.3159
64.6976
60.634
64.923
17.6421
14.8878
15.3485
14.8523
5.4781
7.81436
10.0756
11.7964
13.2605
14.1348
14.1295
13.758
12.709
11.0413
8.71074
7.22825
53.7665
50.1615
39.2863
22.4591
14.3953
14.9973
15.1041
14.248
8.1508
5.28731
5.9419
7.79235
9.96354
11.7269
12.3835
12.2709
11.6363
10.2205
8.12673
7.31313
45.2071
39.4279
30.5266
21.073
15.6016
15.3013
15.1428
14.453
10.3776
6.13648
5.45519
5.81956
7.10515
8.78249
9.80561
9.91291
9.57679
8.745
7.83483
7.87154
37.7299
32.4826
26.5671
20.4483
17.2569
16.0842
15.4721
14.7553
12.0264
8.11935
5.9543
5.42407
5.4752
6.03812
6.65585
7.29457
7.94356
8.10803
8.31436
9.46167
31.7476
27.8403
24.0788
19.648
17.9057
16.9384
15.9635
15.2926
13.4054
10.2942
7.37474
5.5645
4.88796
4.81563
5.4141
6.56854
7.62242
8.56208
9.89331
11.7338
27.0931
24.3261
22.0025
18.6094
17.6273
16.893
15.9512
15.3131
14.0822
11.9108
9.05968
6.22224
4.86448
4.74301
5.4328
6.89476
8.72447
10.6812
12.2789
12.8828
23.351
21.4247
20.0086
17.3941
16.7456
16.3553
15.6013
15.0542
14.0205
12.4104
10.0093
6.86857
5.56049
5.53137
6.72845
9.08716
11.2051
12.4327
12.7482
11.6149
20.1985
18.8952
18.0219
16.0135
15.3226
15.1777
14.6622
14.2538
13.572
12.2597
10.0062
7.51808
6.79638
7.13336
9.25754
10.9725
10.7129
10.1529
9.85929
8.50024
17.4446
16.6041
16.0543
14.5134
13.7
13.6094
13.2094
12.8873
12.5082
11.5723
9.6488
8.17237
7.8806
9.08222
11.4711
10.7128
7.80415
7.24454
7.2667
6.33789
15.2175
14.67
14.3851
13.2113
12.2942
12.0382
11.5806
11.2018
10.8684
10.1307
8.79893
8.2515
8.82393
11.054
12.6299
10.0602
7.21312
6.877
6.6085
4.93546
12.9121
12.8473
12.7214
11.6869
10.6086
10.184
9.60612
9.01184
8.59233
8.05803
7.84147
8.40493
10.1115
12.5403
12.8267
9.7572
7.24821
6.61632
5.24931
2.21489
9.94733
10.2204
10.3325
9.51155
8.58885
8.15676
7.65687
7.29975
7.15165
7.2564
7.85512
9.48767
11.8181
12.9496
11.5829
8.43189
6.32709
4.91351
2.19423
1.25288
47.3182
54.0587
58.08
61.3788
65.224
67.9332
70.3063
68.8857
61.351
52.7046
44.1955
36.8203
30.9745
26.4598
22.8654
19.8769
17.2665
15.1814
13.0865
10.2818
53.9972
61.6701
65.9373
68.8541
74.0827
79.4356
83.6727
79.6547
63.5487
48.9411
38.464
31.805
27.366
23.9796
21.1672
18.7423
16.5709
14.7293
13.0704
10.6318
57.9276
65.8353
69.7269
70.6856
76.6065
85.5539
92.1781
85.9382
58.7055
37.7471
29.5555
26.021
23.7966
21.8537
19.9175
17.9863
16.1054
14.5034
12.9926
10.797
61.0971
68.657
70.5413
69.5364
69.9123
85.7935
100.113
101.82
62.2707
21.3713
20.5355
20.2304
19.63
18.6572
17.4379
16.0773
14.6383
13.39
12.0184
10.0361
64.8084
73.3346
75.5657
68.8023
17.219
14.2732
15.4572
17.1904
18.0728
17.852
17.0449
15.6816
14.0747
12.6744
11.0787
9.14181
67.5117
78.6721
84.4413
84.3342
14.7798
15.1962
15.5522
16.3718
17.2228
17.1811
16.6897
15.5846
14.0657
12.5259
10.7597
8.76522
69.9499
83.0321
91.2904
98.9903
15.2405
15.2193
15.2859
15.6514
16.2066
16.1715
15.8284
14.9618
13.5963
12.0321
10.1824
8.27399
68.7548
79.4095
85.5928
101.105
14.7295
14.2555
14.4256
14.6999
15.2717
15.4942
15.3176
14.6898
13.4505
11.834
9.72941
7.95703
61.5637
63.8229
59.1144
62.7239
17.1986
14.8221
15.2717
14.6338
5.19191
7.53487
9.84515
11.6157
13.1016
14.1356
14.2987
14.0184
13.111
11.566
9.38606
7.80669
53.0806
49.5073
38.3891
21.8402
14.3385
15.1002
15.0623
14.0473
7.82418
5.11389
5.73716
7.62202
9.87147
11.7998
12.6834
12.6416
12.106
10.8261
8.82679
7.88885
44.607
39.0104
30.0856
20.877
15.5678
15.482
15.1311
14.2725
10.0804
5.86758
5.50663
5.81421
7.14583
8.99543
10.1834
10.4136
10.1354
9.40865
8.48507
8.40025
37.1814
32.2026
26.348
20.4109
17.2765
16.3038
15.4604
14.5857
11.764
7.81086
5.8784
5.66159
5.77683
6.42708
7.12178
7.82048
8.52049
8.70106
8.86114
9.83864
31.2489
27.6139
23.9617
19.6805
17.9619
17.094
15.9682
15.1539
13.1733
10.0556
7.29808
5.83767
5.29395
5.21591
5.80864
7.00075
8.09538
9.01541
10.2666
11.9322
26.6543
24.1143
21.9079
18.6328
17.697
17.0284
15.9453
15.2727
14.0728
11.8998
9.1528
6.51348
5.23266
5.08364
5.76271
7.21676
9.02581
10.9071
12.4557
12.9344
22.9994
21.2326
19.9063
17.3765
16.8432
16.4937
15.6263
15.0753
14.1158
12.6257
10.2412
7.19168
5.86804
5.80418
6.94988
9.26632
11.3282
12.5121
12.7894
11.6204
19.9686
18.7694
17.9465
16.0017
15.4588
15.3513
14.7762
14.413
13.7989
12.5432
10.3795
7.89295
7.09477
7.33885
9.3719
11.0638
10.803
10.1599
9.82483
8.49056
17.3255
16.5753
16.0559
14.5569
13.8609
13.8197
13.4221
13.1734
12.8555
11.9463
10.0804
8.58588
8.20534
9.23895
11.5282
10.8324
7.71465
7.06872
7.16278
6.36604
15.2193
14.7209
14.4519
13.3119
12.4996
12.3032
11.884
11.5916
11.3232
10.6413
9.33848
8.70287
9.14116
11.1492
12.6912
10.1381
7.05082
6.75007
6.58581
5.16973
13.1226
13.0689
12.957
11.9585
10.9564
10.5861
10.064
9.54636
9.19215
8.66537
8.38629
8.84288
10.3772
12.6403
12.9006
9.78741
7.15759
6.59371
5.53234
2.51331
10.3077
10.6397
10.7832
9.99969
9.06751
8.65355
8.17434
7.83251
7.67669
7.76135
8.30352
9.8055
11.9857
13.0301
11.6695
8.47251
6.36228
5.15592
2.49187
1.27928
47.3203
54.0363
58.0199
61.2754
65.1313
67.8841
70.2773
68.8484
61.3562
52.7281
44.2166
36.8356
30.987
26.471
22.8745
19.883
17.2696
15.1841
13.0911
10.2873
54.0242
61.6742
65.8777
68.6071
73.8483
79.3817
83.6473
79.5801
63.5731
49.0408
38.5421
31.8436
27.3799
23.9819
21.1648
18.737
16.5634
14.7217
13.0658
10.6322
57.9883
65.8992
69.7318
70.2802
76.2547
85.5621
92.2126
85.8028
58.7892
37.9664
29.7047
26.077
23.7984
21.8314
19.8897
17.9596
16.0801
14.4804
12.9729
10.7863
61.1819
68.8246
70.8269
69.2278
69.1397
85.5509
100.038
101.132
61.9123
21.5731
20.7374
20.3412
19.6587
18.6366
17.3983
16.0339
14.5966
13.352
11.9857
10.015
64.8779
73.4924
75.7741
68.0583
16.4563
14.2658
15.5105
17.2653
18.0639
17.8193
16.9849
15.6089
14.0042
12.6157
11.0319
9.11034
67.5542
78.7144
84.4167
83.9186
14.9829
15.2008
15.5297
16.3243
17.1704
17.1285
16.6302
15.5173
13.9978
12.4677
10.7132
8.73276
69.9574
83.0223
91.248
98.6047
15.7364
15.2409
15.2712
15.5932
16.1303
16.1024
15.7709
14.917
13.563
12.0082
10.1631
8.24999
68.7229
79.3536
85.5113
100.757
15.0237
14.2875
14.4275
14.6826
15.2556
15.4574
15.2762
14.6426
13.4041
11.7943
9.69108
7.92194
61.4962
63.7578
59.1836
63.0472
16.4709
14.8386
15.4452
14.6661
5.14969
7.68439
9.95397
11.6933
13.166
14.1719
14.2894
13.9968
13.0822
11.5313
9.34262
7.76726
52.9981
49.3701
38.3228
21.652
14.185
15.1243
15.1331
14.1272
7.79383
5.13121
5.78364
7.69491
9.96372
11.8886
12.7263
12.6715
12.1115
10.8095
8.79017
7.85262
44.541
38.8991
30.0313
20.8877
15.5018
15.4633
15.1689
14.3067
10.0411
5.84306
5.51087
5.84215
7.21781
9.09524
10.275
10.4713
10.1811
9.42614
8.4653
8.37785
37.1458
32.1561
26.3536
20.5036
17.3223
16.2922
15.4877
14.584
11.7206
7.76922
5.86941
5.67642
5.82645
6.5064
7.2102
7.89706
8.57888
8.7242
8.86527
9.83233
31.2356
27.6165
24.0013
19.7955
18.1026
17.1634
16.0182
15.1453
13.1229
10.0041
7.26462
5.8415
5.32564
5.25214
5.85945
7.06196
8.14855
9.05882
10.3019
11.9471
26.6552
24.1402
21.9587
18.7298
17.8422
17.1203
16.0032
15.3009
14.0513
11.8522
9.10545
6.50129
5.2509
5.1028
5.79536
7.26361
9.08346
10.9724
12.5086
12.952
23.0083
21.2652
19.956
17.4499
16.9827
16.6064
15.6943
15.1157
14.1211
12.5961
10.1985
7.16458
5.85162
5.79469
6.95845
9.30037
11.3905
12.5751
12.8316
11.629
19.9814
18.8021
17.9897
16.0583
15.5789
15.4615
14.8416
14.4718
13.8233
12.5232
10.3416
7.84233
7.04459
7.29977
9.36271
11.0997
10.8571
10.1927
9.84024
8.48655
17.341
16.6074
16.0937
14.6033
13.9506
13.9105
13.4764
13.2377
12.8971
11.9477
10.0445
8.52354
8.14811
9.19055
11.5208
10.8734
7.74723
7.07711
7.16519
6.36398
15.2363
14.7506
14.4846
13.35
12.5598
12.3704
11.9253
11.6484
11.3642
10.6512
9.30598
8.66483
9.09828
11.1159
12.6927
10.1634
7.06527
6.75627
6.58932
5.17123
13.1402
13.0952
12.9843
11.9892
10.9936
10.6326
10.0941
9.58835
9.22369
8.6749
8.38151
8.82697
10.3538
12.6216
12.8995
9.80033
7.16693
6.59844
5.53466
2.5136
10.3233
10.6602
10.8048
10.0235
9.08727
8.67877
8.195
7.85927
7.70218
7.78146
8.31485
9.81304
11.9803
13.0146
11.6577
8.46976
6.36402
5.15615
2.49027
1.2792
48.0443
54.6367
58.5512
61.8327
65.7563
68.4987
70.8654
69.4435
61.9963
53.3753
44.8413
37.4612
31.6029
27.0456
23.3618
20.2368
17.4921
15.2637
12.9453
9.97442
54.6464
62.1018
66.268
69.2016
74.562
80.101
84.3304
80.2593
64.2216
49.6421
39.053
32.2933
27.8018
24.3842
21.5273
19.0077
16.7107
14.7644
12.9205
10.2676
58.5676
66.3454
70.2959
71.1484
77.2584
86.6035
93.209
86.7654
59.6691
38.6937
30.3047
26.5483
24.1731
22.1574
20.1839
18.1889
16.2018
14.5101
12.8153
10.394
61.7993
69.5346
71.8378
70.1746
70.3924
86.7914
101.194
102.332
62.4041
22.0247
21.1593
20.6649
19.8951
18.8369
17.585
16.1708
14.6453
13.3183
11.7652
9.56738
65.52
74.2468
76.766
68.9472
16.7268
14.3558
15.7294
17.5356
18.2099
17.9155
17.0078
15.5534
13.8921
12.4446
10.7096
8.65083
68.168
79.3924
85.2852
84.6421
14.6505
14.8156
15.2347
16.1282
17.0891
17.0616
16.5446
15.3736
13.7953
12.2014
10.3067
8.22916
70.51
83.5939
91.9997
99.3515
14.9568
14.833
14.9875
15.4595
16.0837
16.0869
15.7455
14.8004
13.3399
11.7034
9.70841
7.71777
69.3046
79.9513
86.3029
101.507
14.4362
14.0763
14.3179
14.6817
15.3239
15.4089
15.1806
14.4248
13.082
11.3733
9.11656
7.33987
62.0804
64.3147
59.9154
63.1689
16.8547
14.8505
15.3239
14.8086
5.30552
7.93879
10.1806
11.8696
13.3117
14.1054
14.0784
13.6871
12.6511
10.991
8.65445
7.1715
53.5589
49.8479
38.8885
22.2279
14.4834
15.0621
15.1197
14.2283
7.93489
5.26591
6.0107
7.93796
10.1142
11.8047
12.3919
12.2705
11.6249
10.1989
8.08951
7.27123
45.0597
39.27
30.4341
21.146
15.7284
15.4154
15.2071
14.474
10.2036
6.01635
5.49249
5.9161
7.24211
8.90102
9.89073
9.96521
9.62606
8.78254
7.83138
7.86037
37.652
32.4611
26.6457
20.6381
17.472
16.241
15.5976
14.7896
11.9027
7.95885
5.93871
5.45209
5.52567
6.11264
6.7397
7.37831
8.03103
8.16463
8.34954
9.47361
31.7327
27.8986
24.2293
19.8755
18.1642
17.1241
16.1305
15.3528
13.3241
10.1521
7.29693
5.55764
4.89259
4.82404
5.4478
6.63323
7.70266
8.64941
9.97393
11.7659
27.1183
24.4183
22.1658
18.8129
17.8719
17.0768
16.1089
15.4016
14.0763
11.8218
8.95879
6.17184
4.85227
4.73264
5.44706
6.94867
8.82255
10.8076
12.3811
12.8993
23.3951
21.5205
20.155
17.5504
16.9573
16.5289
15.7371
15.1567
14.043
12.3748
9.92121
6.79508
5.50455
5.48531
6.7123
9.12826
11.3093
12.5389
12.8044
11.5891
20.2485
18.9823
18.1429
16.1295
15.493
15.3303
14.7698
14.3712
13.6333
12.2434
9.95278
7.42953
6.70461
7.04751
9.2164
11.0435
10.8222
10.1945
9.85777
8.46246
17.4944
16.6805
16.1535
14.6026
13.8291
13.7363
13.2921
13.0081
12.5836
11.5837
9.6056
8.0817
7.78827
8.98505
11.4517
10.8334
7.8869
7.26026
7.27212
6.32883
15.2652
14.7378
14.4683
13.2833
12.3902
12.141
11.6517
11.3015
10.9331
10.1519
8.76874
8.20056
8.75951
10.9857
12.6546
10.1664
7.25068
6.89246
6.6186
4.92858
12.9565
12.9076
12.7883
11.744
10.6766
10.262
9.66567
9.07508
8.62941
8.07443
7.83917
8.3878
10.0816
12.5198
12.8712
9.82258
7.27185
6.62677
5.24999
2.20679
9.98606
10.2679
10.3818
9.55683
8.63367
8.20361
7.69478
7.32964
7.17346
7.27663
7.87265
9.51091
11.831
12.9622
11.6071
8.44764
6.3343
4.91749
2.19305
1.25253
49.3047
56.0053
60.0639
63.5542
67.6536
70.3863
72.7592
71.4824
64.0826
55.3577
46.5788
38.9098
32.7955
28.039
24.2013
20.9341
18.0703
15.6639
13.059
9.82238
55.9979
63.5818
67.9147
71.2534
76.6981
82.106
86.2903
82.3454
66.3005
51.5983
40.6906
33.5255
28.6821
25.0304
22.0559
19.4825
17.1724
15.1784
13.1572
10.2056
60.0359
67.9576
72.1606
73.6539
79.6727
88.7838
95.2562
88.9845
61.8758
40.5118
31.8757
27.7604
25.0214
22.7128
20.5694
18.5208
16.5702
14.906
13.1795
10.5784
63.4562
71.5058
74.1947
72.3726
73.0605
88.9101
103.086
104.465
64.4608
23.2902
22.2207
21.5692
20.5947
19.3268
17.9089
16.4045
14.8919
13.563
11.9455
9.62003
67.3667
76.3152
79.0977
71.5574
17.3227
15.0488
16.6038
18.4146
18.6554
18.1957
17.0578
15.5124
13.9464
12.5319
10.7109
8.61812
70.002
81.3282
87.371
86.529
14.778
15.4456
15.8285
16.6902
17.3788
17.2249
16.5154
15.255
13.7466
12.1758
10.1464
8.06647
72.3501
85.5059
94.0263
101.019
15.2793
15.4271
15.5067
15.8598
16.2837
16.2285
15.7852
14.7625
13.291
11.5952
9.40311
7.46072
71.3082
82.0275
88.5467
103.821
14.7252
14.501
14.6818
14.9933
15.5209
15.5452
15.2773
14.4347
12.9847
11.1081
8.63257
7.0591
64.1512
66.3888
62.1302
65.6041
17.4148
14.8433
15.3239
14.7878
5.5838
8.14235
10.3857
12.0706
13.49
14.2126
14.1601
13.6723
12.4827
10.6309
8.15038
6.92693
55.4909
51.7159
40.675
23.2156
14.87
15.3772
15.4262
14.5182
8.3052
5.44638
6.2052
8.07503
10.2354
11.8742
12.3008
12.1166
11.3377
9.6942
7.60156
7.04654
46.7047
40.754
31.8768
22.1011
16.4419
15.7594
15.5151
14.7378
10.5883
6.3201
5.47336
5.89669
7.2307
8.80431
9.60726
9.55972
9.15688
8.2829
7.53395
7.7294
38.9934
33.5188
27.667
21.4264
18.2488
16.6236
15.8664
15.067
12.2619
8.29235
5.99726
5.2737
5.31484
5.81238
6.38892
7.08728
7.77365
7.90084
8.19308
9.51705
32.8275
28.6284
24.8883
20.4425
18.5204
17.3334
16.3008
15.5686
13.6269
10.4383
7.41514
5.39707
4.64976
4.60489
5.26283
6.42589
7.49738
8.61489
10.1341
11.8684
28.0321
24.9561
22.5774
19.1942
18.0847
17.1927
16.2516
15.578
14.2981
12.0243
9.01594
5.97842
4.64768
4.56256
5.31774
6.94255
8.99278
11.1054
12.5078
12.6941
24.17
21.9756
20.4476
17.8065
16.9859
16.5041
15.818
15.3012
14.2313
12.4323
9.80613
6.57766
5.36888
5.38545
6.87741
9.41883
11.3877
12.2993
12.3697
11.0591
20.8903
19.4002
18.4132
16.3237
15.4613
15.2442
14.7938
14.4452
13.727
12.236
9.73546
7.27551
6.5954
7.10326
9.53102
10.7833
10.1143
9.57485
9.47421
8.21944
18.0248
17.0937
16.4732
14.8247
13.8958
13.7183
13.3085
12.988
12.5235
11.4258
9.29804
7.95941
7.70136
9.23672
11.5551
10.1343
7.66917
7.50312
7.4504
6.27649
15.625
15.1119
14.8226
13.5071
12.4786
12.1358
11.5959
11.1131
10.6607
9.75126
8.40801
8.07313
8.84882
11.367
12.4329
9.56794
7.50261
7.22152
6.70649
4.39872
13.0265
13.104
13.1038
11.8985
10.6566
10.106
9.39069
8.64346
8.17727
7.66067
7.64946
8.36195
10.3669
12.716
12.4474
9.45746
7.44851
6.71372
4.56599
1.73684
9.79407
10.1664
10.5209
9.58956
8.57683
8.04269
7.45693
7.08272
6.96506
7.11466
7.83177
9.65699
12.0158
12.7842
11.0747
8.20967
6.28299
4.39532
1.7345
1.23043
50.2301
57.1988
61.5454
65.3576
69.7321
72.6142
75.1884
74.3503
67.1389
58.0138
48.757
40.6221
34.1033
29.0029
24.8938
21.4369
18.4485
15.8932
13.0842
9.74429
57.1641
65.3279
70.2111
74.3634
80.1809
85.4985
89.8877
86.4427
70.1612
54.972
43.1286
35.2124
29.8235
25.7864
22.5409
19.7916
17.3967
15.2766
13.1032
10.0516
61.4509
70.1865
75.2657
78.2507
84.1909
93.0569
99.5868
93.8361
66.8418
44.1315
34.2588
29.3177
26.0175
23.3142
20.9193
18.7413
16.7459
14.9906
13.0911
10.3577
65.1438
74.4132
78.5864
76.5995
78.0595
92.529
106.175
108.482
69.6884
25.797
23.9983
22.8399
21.4691
19.8954
18.2378
16.5793
15.0079
13.5686
11.7692
9.36805
69.4002
79.721
83.5571
76.9707
18.8499
16.3374
17.9782
19.3221
19.1739
18.3501
16.9272
15.3007
13.7696
12.3122
10.3817
8.39311
72.1868
84.671
91.6537
90.1468
16.1029
16.5706
16.8607
17.5637
17.7203
17.3489
16.3382
14.8969
13.3525
11.7286
9.59886
7.7773
74.7419
89.0446
98.3185
104.206
16.4603
16.2406
16.2716
16.5108
16.6004
16.3858
15.6533
14.3683
12.7884
11.017
8.73674
7.18233
74.1333
85.9638
93.0326
107.46
15.4634
15.0006
15.1399
15.4586
15.7464
15.6499
15.1674
14.0843
12.4834
10.4714
7.98185
6.85523
67.0317
69.9079
66.3652
68.7257
19.1465
15.9124
16.5004
15.7135
6.06451
8.55564
10.7428
12.4499
13.773
14.2373
14.0848
13.4063
12.0344
9.98972
7.5757
6.7517
57.9639
54.707
43.8321
25.6657
16.3356
16.701
16.5314
15.391
8.9383
5.86177
6.60739
8.5164
10.6201
11.9754
12.1719
11.8813
10.901
9.03723
7.28112
6.98521
48.7113
42.8867
33.959
23.8127
17.955
17.0059
16.5754
15.5528
11.2741
6.83471
5.86298
6.28681
7.52733
8.8573
9.42342
9.33605
8.9337
8.12673
7.61987
7.99683
40.568
34.9978
29.0235
22.6017
19.2513
17.6957
16.7749
15.8576
13.0034
8.95862
6.4412
5.49465
5.44583
5.84287
6.49311
7.41989
8.04764
8.16959
8.67875
10.0826
34.0409
29.6378
25.7556
21.2199
19.0918
17.8247
16.8056
16.0315
14.2253
11.1339
7.89405
5.55679
4.88301
4.95557
5.7543
6.93218
8.06018
9.46068
11.0029
11.9668
28.9361
25.6291
23.0954
19.6701
18.2565
17.4291
16.5609
15.8886
14.5579
12.3981
9.28338
6.07284
5.01
5.03833
6.02873
7.88783
9.99918
11.7315
12.4617
11.8811
24.8266
22.4057
20.7378
18.0489
16.8198
16.3662
15.7736
15.3374
14.3579
12.5217
9.82998
6.76576
5.92332
6.11381
7.97448
9.92996
10.9255
11.2064
11.2356
10.0876
21.3745
19.6743
18.587
16.4256
15.1824
14.866
14.4424
14.1911
13.6018
12.1897
9.68269
7.70053
7.16447
8.06156
10.0456
9.52695
8.56859
8.58552
8.97077
7.89414
18.3993
17.3005
16.6181
14.8876
13.6547
13.2903
12.8225
12.541
12.1609
11.1215
9.18954
8.29215
8.31145
10.2424
11.1133
8.62823
7.57199
7.9084
7.67566
6.21164
15.8617
15.2084
14.891
13.4748
12.2146
11.666
11.0274
10.5009
10.0623
9.17622
8.28677
8.36689
9.71011
11.9922
11.3869
8.63594
7.9064
7.64577
6.70592
3.54831
13.0688
13.0558
13.0134
11.6977
10.3032
9.5503
8.73649
8.00383
7.62514
7.3517
7.72884
8.84739
11.2324
12.6806
11.3624
8.99079
7.67294
6.71157
3.5052
1.40555
9.73649
10.0241
10.3119
9.33015
8.35353
7.75747
7.18279
6.87561
6.78471
7.03746
8.08288
10.2065
12.1075
11.9833
10.1247
7.89848
6.22704
3.56964
1.40857
1.22547
51.4975
59.095
63.8916
67.9267
72.5233
75.663
78.4288
78.1276
71.5412
62.0814
52.3416
43.6257
36.5352
30.8875
26.2912
22.4216
19.0921
16.2497
13.1472
9.72626
59.0525
68.2475
73.7637
78.3676
84.4544
89.7908
94.4937
91.7969
75.7979
60.3233
47.4126
38.54
32.3786
27.7187
23.9543
20.7827
18.0309
15.6165
13.2106
10.0251
63.7758
73.7029
79.4296
83.1661
89.2667
97.797
104.581
99.6737
72.9021
48.9481
37.9302
32.1834
28.292
25.1014
22.2752
19.7187
17.4017
15.3858
13.2304
10.3265
67.6435
78.2084
83.2227
82.1887
85.1498
98.3377
111.619
115.32
75.8608
28.9124
26.631
25.0059
23.2735
21.3908
19.4322
17.4876
15.6548
13.9866
11.9275
9.38163
72.1232
83.8777
88.5188
84.3538
21.436
17.6396
19.7009
20.806
20.4694
19.3442
17.6463
15.8111
14.1173
12.5298
10.4233
8.4116
75.2767
89.0149
96.4751
95.9654
17.0988
17.3876
18.0355
18.9161
18.8858
18.2788
16.9403
15.2178
13.4816
11.7423
9.50159
7.80071
78.0568
93.7496
103.457
109.755
16.956
16.9233
17.2233
17.6801
17.6433
17.2063
16.0956
14.4691
12.7009
10.8422
8.54085
7.20257
77.8822
91.1279
98.4756
114.453
15.8647
15.6086
15.9228
16.4671
16.6041
16.3803
15.6149
14.1975
12.3646
10.1937
7.78364
6.8912
71.1278
74.9869
70.9506
72.6966
20.9752
17.4695
17.5884
16.5461
6.72656
9.17329
11.4127
13.2776
14.6161
14.8573
14.559
13.6044
11.9549
9.63452
7.42907
6.8137
61.7325
59.4976
47.7491
28.1741
18.0108
17.9608
17.537
16.1606
9.81566
6.62655
7.33089
9.2547
11.3819
12.5608
12.5831
12.1024
10.8047
8.74272
7.35761
7.24596
52.0416
46.8249
37.2834
26.2043
19.9471
18.5774
17.7448
16.4692
12.1556
7.63901
6.51379
6.90179
8.10791
9.248
9.62318
9.52308
9.15472
8.31948
8.05531
8.62682
43.3838
38.16
31.8062
24.7056
20.84
19.292
18.0775
16.9672
13.9815
9.81523
7.08431
6.0022
5.91002
6.27525
7.09749
8.166
8.58851
8.78333
9.55259
10.9042
36.3518
32.1139
28.0386
23.0402
20.4678
19.1892
17.9974
16.9848
15.1592
11.9926
8.54626
6.02073
5.44252
5.61918
6.51707
7.73744
8.982
10.5822
11.9676
12.1946
30.7435
27.5165
24.9067
21.189
19.3002
18.4592
17.4721
16.6979
15.2333
13.0338
9.75982
6.51514
5.70715
5.82903
7.0953
9.08807
11.0234