/*--------------------------------*- C++ -*----------------------------------*\
  =========                 |
  \\      /  F ield         | OpenFOAM: The Open Source CFD Toolbox
   \\    /   O peration     | Website:  https://openfoam.org
    \\  /    A nd           | Version:  9
     \\/     M anipulation  |
\*---------------------------------------------------------------------------*/
FoamFile
{
    format      ascii;
    class       volScalarField;
    location    "0.002";
    object      rho.Air;
}
// * * * * * * * * * * * * * * * * * * * * * * * * * * * * * * * * * * * * * //

dimensions      [1 -3 0 0 0 0 0];

internalField   nonuniform List<scalar> 
9720
(
0.034334
0.0418366
0.0440626
0.0455319
0.0475674
0.0486408
0.0493812
0.0487209
0.0444691
0.0393083
0.0337461
0.0286929
0.0246384
0.0214479
0.0187096
0.0159113
0.0126189
0.00953859
0.00823657
0.0300912
0.0418406
0.0593049
0.063428
0.0676001
0.0736165
0.0790578
0.0831846
0.0806699
0.0663829
0.0523677
0.0407987
0.0322805
0.0261182
0.0217153
0.018311
0.0148783
0.0107294
0.00759108
0.00703023
0.0293244
0.0441057
0.063554
0.0679236
0.0715073
0.0768162
0.0837805
0.0887762
0.0846333
0.0621133
0.0420327
0.0328596
0.0278346
0.0242075
0.0211925
0.0183461
0.0149154
0.0104518
0.00740309
0.00697311
0.0345502
0.045609
0.0682221
0.0723089
0.0705542
0.0723751
0.0833799
0.0946314
0.0990785
0.0654665
0.0227682
0.0209046
0.0196622
0.0182868
0.0167439
0.0149278
0.0124009
0.00895332
0.00646269
0.00595909
0.040942
0.0475458
0.0742279
0.0775633
0.0743628
0.0193375
0.00990421
0.011315
0.0121666
0.0119998
0.011368
0.0103367
0.0088236
0.00675035
0.00513379
0.00482483
0.0520233
0.0484675
0.0790759
0.0835318
0.0832597
0.0100227
0.00400148
0.00452722
0.00559887
0.00707613
0.0074101
0.00717753
0.00641981
0.00507295
0.00400078
0.00387252
0.0638983
0.0490603
0.0827235
0.0880239
0.0938154
0.0057829
0.00249549
0.00280913
0.00330909
0.00407716
0.00456462
0.00453353
0.0042164
0.00351035
0.00309405
0.00309464
0.0707194
0.0483972
0.0798043
0.0832914
0.0975872
0.00467584
0.00275882
0.00306915
0.0034758
0.00398928
0.00411764
0.00402868
0.00372338
0.00323892
0.00300832
0.00302663
0.0765575
0.0441472
0.0654031
0.0601531
0.0615108
0.0174743
0.0099935
0.00615903
0.00524099
0.00180446
0.00177038
0.00232348
0.00298726
0.00365338
0.00398115
0.00396238
0.00378004
0.00335963
0.00307678
0.00309435
0.0864759
0.0390338
0.0515534
0.0405895
0.0214557
0.0101382
0.0045157
0.00287696
0.00312104
0.00205712
0.00158796
0.00174175
0.00222768
0.00297107
0.00359128
0.00377953
0.00369647
0.00340796
0.00321227
0.00330274
0.112994
0.033537
0.0402023
0.0319607
0.0202644
0.0119783
0.00530001
0.00320543
0.00341589
0.00272334
0.00184419
0.00185936
0.00205066
0.00242123
0.00289635
0.00325785
0.00350218
0.00353411
0.00369865
0.00454953
0.1824
0.0285526
0.0319178
0.0273161
0.0192886
0.0126409
0.00663599
0.00372111
0.00383242
0.00341241
0.00253122
0.00215623
0.00217954
0.00229588
0.0025796
0.00311057
0.00374508
0.00478345
0.00750856
0.0152229
0.350257
0.0245626
0.0259495
0.0239591
0.0180813
0.0123747
0.007949
0.0045158
0.00424032
0.00399728
0.00338242
0.00271951
0.00238338
0.00240492
0.00276059
0.00414064
0.00877105
0.021827
0.0523016
0.106834
0.771623
0.021415
0.0216613
0.0211124
0.0166516
0.0116226
0.0079505
0.00485633
0.00425056
0.00419431
0.00397029
0.00331116
0.00277594
0.00288556
0.00492639
0.0226771
0.0957758
0.239532
0.406475
0.605584
1.83573
0.0186969
0.0182928
0.0183317
0.0148882
0.0104684
0.00751251
0.00476879
0.0041276
0.00414927
0.00404173
0.00362912
0.00339167
0.00432971
0.0222225
0.193522
0.75805
1.4313
1.86061
2.38252
4.08606
0.0159024
0.0148425
0.0148812
0.0123472
0.00882968
0.00650936
0.00434798
0.00380386
0.00392838
0.00391577
0.00377426
0.00400259
0.00867733
0.091156
0.744242
2.52115
4.2887
5.05965
5.75806
6.11734
0.0126083
0.0106622
0.0103719
0.00886223
0.00667085
0.00500835
0.00354381
0.00329167
0.0034434
0.00353421
0.00368997
0.00489352
0.0206449
0.226955
1.40225
4.28653
6.93027
7.53483
7.30179
5.78181
0.00953118
0.00755032
0.00735562
0.00639598
0.00505161
0.00392271
0.00309228
0.00302903
0.00310925
0.00325688
0.0037562
0.0072929
0.0490663
0.390867
1.84729
5.09503
7.55918
7.65335
6.19965
2.81184
0.00823385
0.00700824
0.00694541
0.00590861
0.00474868
0.00379922
0.00308992
0.00304474
0.00312069
0.00333404
0.0045101
0.0145426
0.102533
0.596516
2.40481
5.82518
7.33458
6.20584
2.72086
1.29486
0.0301523
0.0293508
0.0345302
0.0407953
0.0516954
0.063215
0.0696849
0.0751793
0.0846964
0.110796
0.180171
0.349273
0.775351
1.85984
4.15285
6.17442
5.803
2.8108
1.29497
1.22505
0.0300634
0.0351523
0.0367075
0.0375528
0.0386658
0.0390539
0.0392355
0.0384362
0.0350093
0.0313654
0.0274234
0.0237323
0.0206581
0.0181914
0.0160477
0.0138207
0.0111558
0.00865306
0.00748503
0.027994
0.0351246
0.0519458
0.0562753
0.0608295
0.066604
0.0708829
0.0737346
0.0705049
0.0564973
0.0431028
0.0317128
0.0229768
0.017708
0.0148703
0.012925
0.010815
0.0081368
0.0064084
0.00616304
0.0277746
0.0367209
0.0564589
0.0611575
0.0646415
0.0709783
0.0755046
0.0785539
0.0743102
0.0565565
0.037886
0.0273699
0.0207773
0.0165595
0.0139754
0.0121117
0.00998062
0.00730944
0.00606106
0.00598087
0.0325888
0.0376082
0.0616702
0.0657441
0.0633713
0.0687864
0.0781663
0.0818951
0.0801259
0.04858
0.0155749
0.0145294
0.0128302
0.0109759
0.00955056
0.0084145
0.00701341
0.00539954
0.00481259
0.00474057
0.0372569
0.0386175
0.0673085
0.0718971
0.0750554
0.00528184
0.00158477
0.00320118
0.00419035
0.00464651
0.00454776
0.00430489
0.00387889
0.00343351
0.00335221
0.00334618
0.0455982
0.0388266
0.0708427
0.0755066
0.0762494
0.000128902
0.000529648
0.000923798
0.00139866
0.00194846
0.00248469
0.00266878
0.00263451
0.00254016
0.00251693
0.00252618
0.0534373
0.0389484
0.0732133
0.0779981
0.0778273
0.000447634
0.00101383
0.00121253
0.00150128
0.00187156
0.00224499
0.00239623
0.00238355
0.00232325
0.00230653
0.00232514
0.0562615
0.0382339
0.0697554
0.0733608
0.0782423
0.0012015
0.00201917
0.00227025
0.00258645
0.00281949
0.00281696
0.00277611
0.00264792
0.00246193
0.00237796
0.00238924
0.0579396
0.034837
0.0553246
0.0550836
0.0437017
0.00312912
9.38582e-05
0.000357212
0.00108903
0.0010026
0.00136837
0.00183558
0.00237243
0.00288557
0.00333266
0.00338949
0.00326636
0.0029264
0.00260138
0.00257998
0.06193
0.0311875
0.042165
0.0369866
0.0159242
0.00217428
0.000509883
0.000828339
0.00177159
0.00135414
0.00123844
0.00141924
0.00189367
0.00256348
0.00318212
0.00339509
0.00337044
0.00314524
0.00281653
0.00281559
0.0754954
0.0272789
0.0311849
0.0272359
0.0150193
0.00417758
0.0010309
0.00115304
0.00211721
0.00182158
0.0014399
0.00151474
0.00176416
0.00219612
0.00274146
0.00311027
0.00325644
0.00319609
0.00314876
0.00345154
0.117584
0.0236341
0.0228113
0.0210488
0.013437
0.00533463
0.00163663
0.0015478
0.0025462
0.00236039
0.00193513
0.00179458
0.00187773
0.00204694
0.00233162
0.00277957
0.0032652
0.00376102
0.00494344
0.00838669
0.229423
0.0205969
0.017791
0.0169726
0.0115441
0.00526276
0.00234926
0.001947
0.00267963
0.0028765
0.00262199
0.00229394
0.00209027
0.00211806
0.00236905
0.00318327
0.00545102
0.0114431
0.0264313
0.0563737
0.524079
0.0181567
0.0150064
0.0143382
0.00998967
0.00494917
0.00276721
0.00227819
0.00267099
0.00328162
0.00320291
0.00285785
0.00242316
0.0024307
0.00335236
0.0112343
0.0462991
0.124796
0.23441
0.367785
1.30496
0.0160255
0.0130143
0.0123445
0.00865744
0.00448408
0.0027461
0.00234
0.00262064
0.00327804
0.00338447
0.00319465
0.00288728
0.00327792
0.0112498
0.0930455
0.407997
0.867538
1.22789
1.62507
3.18736
0.0137982
0.0108058
0.0100289
0.0070524
0.00385915
0.00260923
0.00230562
0.00249925
0.00311815
0.00333624
0.00325427
0.00331185
0.00551974
0.0460806
0.408596
1.54964
3.02351
3.90824
4.77429
5.71929
0.011129
0.0080367
0.00721156
0.00531574
0.00331674
0.00241589
0.00221315
0.00232967
0.00276513
0.00304659
0.00314158
0.00375842
0.0114918
0.125598
0.884861
3.09732
5.90092
7.08199
7.11628
6.03794
0.0086206
0.00631506
0.00595772
0.00471363
0.00322471
0.00237805
0.00218877
0.00225421
0.00246295
0.00268828
0.00305803
0.00490002
0.02672
0.240698
1.28609
4.09323
7.18728
7.60801
6.68713
3.56704
0.00743821
0.00607019
0.00587618
0.00463455
0.00321549
0.00238486
0.00220464
0.00226505
0.0024471
0.00268585
0.00334427
0.00835396
0.0578202
0.385423
1.73905
5.02305
7.21597
6.70262
3.48703
1.40656
0.0279378
0.0277068
0.0325002
0.0371503
0.0454913
0.0533117
0.0560327
0.0576948
0.0616601
0.0754327
0.118587
0.233674
0.54025
1.36816
3.36902
5.88758
6.0941
3.5307
1.40162
1.22545
0.0257402
0.0284003
0.0295905
0.029884
0.0303755
0.0304859
0.0305687
0.0300061
0.0276913
0.0254938
0.0229403
0.0202891
0.017918
0.015935
0.01417
0.0122973
0.0100118
0.00789819
0.00685553
0.0244434
0.0283248
0.0352629
0.0388188
0.0412789
0.0445037
0.045619
0.0454996
0.0417812
0.0331659
0.0224251
0.0133412
0.00929762
0.00862663
0.00866798
0.00846461
0.00780475
0.00647434
0.00559556
0.00546643
0.0244782
0.0295116
0.0389912
0.0445058
0.0468229
0.051282
0.0520155
0.051511
0.0465011
0.0350706
0.0169234
0.00875296
0.00656058
0.00649314
0.0067561
0.00676303
0.00641785
0.00552243
0.00517101
0.00515797
0.0283633
0.0297784
0.0417841
0.0477742
0.0220405
0.0105908
0.0112561
0.0243229
0.000826995
4.23052e-05
0.00106253
0.001868
0.00219803
0.0025164
0.00313453
0.00371376
0.00373792
0.00369493
0.00376473
0.00381256
0.0315459
0.0302132
0.0446893
0.0517435
0.00029054
2.8594e-06
8.89623e-05
0.000222836
0.000415532
0.00066179
0.00097278
0.00131697
0.00163125
0.00193221
0.00228468
0.00241579
0.0368588
0.0303054
0.0451511
0.0514878
0.0262522
0.000147095
0.000385608
0.000458103
0.000570119
0.000733818
0.000964428
0.00120781
0.00143939
0.0016428
0.00185329
0.00195329
0.0414222
0.0304005
0.0448003
0.0507172
0.0271249
0.000733963
0.00111979
0.00112382
0.00113984
0.00118446
0.0012799
0.00141816
0.00157338
0.00171712
0.00186796
0.00195554
0.0414483
0.0299498
0.0411816
0.0457945
0.000608062
0.0017212
0.00215943
0.00233994
0.00260882
0.00260918
0.00246643
0.00228085
0.00211397
0.00203758
0.00205374
0.00208714
0.0409461
0.0276653
0.0324933
0.0343534
0.000155393
1.33662e-06
8.24044e-05
0.000507948
0.00131786
0.00100026
0.00144152
0.00189866
0.00237472
0.0028162
0.00326442
0.00328111
0.00312559
0.00276424
0.00241984
0.00236729
0.0416747
0.0254428
0.0221166
0.017494
0.00115375
7.14237e-05
0.000294786
0.000912649
0.00182865
0.00129114
0.00115893
0.0013414
0.00181307
0.00248145
0.00314016
0.00338235
0.00336224
0.00314765
0.0027243
0.00261957
0.0465386
0.0228813
0.0135251
0.00955982
0.00204065
0.000219072
0.000365193
0.000919826
0.00203701
0.00168247
0.00131225
0.00138991
0.00163177
0.002125
0.00276786
0.00317728
0.00323765
0.00314031
0.0029398
0.00299417
0.0652051
0.0202345
0.00939858
0.00688029
0.00235762
0.00042854
0.000480692
0.000940835
0.00231648
0.00211522
0.00170746
0.00162021
0.00173354
0.0019662
0.00229251
0.00269032
0.00308674
0.00331093
0.00367489
0.00475123
0.121124
0.0178675
0.00869381
0.00675878
0.00267584
0.000649928
0.000648229
0.000997949
0.00228699
0.00255857
0.00231513
0.00207694
0.00196671
0.0020169
0.00220697
0.0027129
0.00364307
0.00556842
0.0104725
0.0212034
0.278237
0.015893
0.00873283
0.00693958
0.00332021
0.000932642
0.000857706
0.00110669
0.00211011
0.00299204
0.00291499
0.00266201
0.00229051
0.00220934
0.0025169
0.00459387
0.0141454
0.0405375
0.090032
0.1567
0.739893
0.0141349
0.00850972
0.00689738
0.00376583
0.00123702
0.00107507
0.00124706
0.00193775
0.00296936
0.00318692
0.00305247
0.00266097
0.00270156
0.00466067
0.0259293
0.133407
0.357627
0.611679
0.870818
2.05495
0.0122652
0.00779452
0.00645218
0.00373566
0.00152629
0.0012859
0.00140184
0.00183365
0.00279465
0.00316087
0.00306409
0.0029892
0.00363289
0.0149375
0.138377
0.675203
1.67972
2.51698
3.26536
4.59358
0.00998296
0.00639542
0.00544631
0.00363732
0.00182066
0.00148173
0.00155113
0.00183968
0.00247988
0.00291126
0.00295544
0.00319143
0.00575293
0.0445391
0.385525
1.75999
4.19081
5.79026
6.27213
5.85017
0.00786764
0.00550805
0.00507279
0.00369381
0.00217546
0.0016967
0.00171155
0.00187565
0.00221036
0.00250919
0.0027646
0.00359679
0.0114024
0.101588
0.680335
2.71903
5.96529
7.06884
6.65578
4.40767
0.00680713
0.00538287
0.00505723
0.00373216
0.00230595
0.00179988
0.00180182
0.00191988
0.0021831
0.00243157
0.00283115
0.00478595
0.0236778
0.178604
0.982572
3.54948
6.44194
6.6883
4.56139
1.74389
0.0242264
0.0242683
0.0280559
0.0312189
0.0365681
0.041266
0.0413658
0.0408954
0.0415886
0.0466709
0.0662683
0.125352
0.294514
0.799069
2.22498
4.8199
5.93131
4.37752
1.72889
1.23046
0.0237199
0.025878
0.0271732
0.0274538
0.0279182
0.0280815
0.0282301
0.0277324
0.0256305
0.023701
0.0214209
0.0190036
0.0167897
0.0149113
0.0132445
0.0114927
0.00931094
0.00741251
0.0065776
0.0217697
0.0257945
0.0239493
0.0254251
0.0252072
0.0259113
0.0260831
0.0261678
0.0248664
0.0202624
0.0133858
0.00739605
0.00602132
0.00644887
0.00722199
0.00722572
0.00688634
0.00592815
0.00524206
0.00513096
0.0219097
0.0270806
0.0254648
0.0286288
0.0278272
0.0292165
0.0284831
0.0280839
0.0257522
0.0184183
0.00795381
0.00331925
0.00343003
0.00403651
0.0051662
0.00557948
0.00549066
0.00504729
0.0048
0.00475444
0.0248618
0.0273229
0.0251967
0.0279847
0.000511296
0.000903961
0.00248342
0.0281556
0.000367747
6.37176e-05
0.000133927
0.000313798
0.000633028
0.00116413
0.00198269
0.00274611
0.00313399
0.00326972
0.00345086
0.00350377
0.0275935
0.0277223
0.0257871
0.0291732
0.000722809
2.39417e-06
9.5427e-05
0.000185572
0.000306732
0.000479958
0.000736252
0.00106131
0.00140683
0.00171522
0.00206974
0.00219869
0.031743
0.0279337
0.0259072
0.0282543
0.0132706
0.000153123
0.000416591
0.000474279
0.000559651
0.000683128
0.000860201
0.00109165
0.00133152
0.00152877
0.00173709
0.00183944
0.0354533
0.0280928
0.0259724
0.0278016
0.0292958
0.000745086
0.00110437
0.00111018
0.00112715
0.00115956
0.00122292
0.00132902
0.00146757
0.00160379
0.00176177
0.00185463
0.0351317
0.02769
0.0247925
0.0256015
0.000487147
0.00163248
0.00198616
0.00218663
0.00248052
0.00251289
0.00236705
0.00216204
0.00198057
0.00194728
0.00197503
0.00201361
0.0342606
0.0256633
0.0203572
0.0186196
8.50457e-05
1.40738e-06
0.000124503
0.000650602
0.00146668
0.000915227
0.00125308
0.00167716
0.00217217
0.00263644
0.0031513
0.0031631
0.0030083
0.00267083
0.00236306
0.002308
0.0341854
0.023757
0.0137405
0.00856173
0.000165863
8.27869e-05
0.000375071
0.00101337
0.00185263
0.00126572
0.0010765
0.00122838
0.00164885
0.00231133
0.00300662
0.00334682
0.00333783
0.00312488
0.00270893
0.00257813
0.0369174
0.0214817
0.0077732
0.00356965
0.000346813
0.000161185
0.000419805
0.00099472
0.00205039
0.00166141
0.0012431
0.0013004
0.00154303
0.0020276
0.00269644
0.00319028
0.00323998
0.00313361
0.00291038
0.00291294
0.0490553
0.0190475
0.00615954
0.00363253
0.00066537
0.000263441
0.000488913
0.000995621
0.00231549
0.00208926
0.00166175
0.00155949
0.00166361
0.00193181
0.00231656
0.00271907
0.00304997
0.00322307
0.00346291
0.00416675
0.0864184
0.0168121
0.00655539
0.00419748
0.00119683
0.000411192
0.000591839
0.00101454
0.00227369
0.00256344
0.00230567
0.00206119
0.00194937
0.00201137
0.00220372
0.00266479
0.00337582
0.00465882
0.00775095
0.014161
0.193024
0.0149221
0.00729606
0.00529481
0.00203799
0.00064443
0.000746281
0.00106929
0.00207351
0.00294444
0.00291752
0.00271096
0.00235693
0.00222757
0.00244476
0.00364189
0.00855066
0.0231716
0.0543137
0.0985248
0.523557
0.0132516
0.00728811
0.00565151
0.00280886
0.000956186
0.000962898
0.00117098
0.00185476
0.00287826
0.00320929
0.00312003
0.0027403
0.00270208
0.00370089
0.0134758
0.0681352
0.207052
0.401062
0.601641
1.56598
0.011498
0.00692078
0.00553641
0.00315649
0.00129928
0.00118855
0.00131117
0.00173651
0.00267343
0.00317209
0.0031203
0.00301535
0.00340687
0.00896835
0.0704909
0.39259
1.13375
1.8955
2.55808
3.9402
0.00931536
0.005913
0.00502872
0.00325323
0.00161283
0.00138265
0.00145322
0.00174531
0.00237139
0.00289491
0.00297201
0.00313877
0.00478023
0.0251112
0.22056
1.17625
3.23341
4.9471
5.67458
5.68863
0.00740788
0.00520363
0.00474686
0.0034055
0.00197847
0.00159581
0.00161903
0.00179555
0.00215047
0.00249255
0.00273651
0.00337986
0.00822609
0.0598801
0.435639
2.01307
5.07594
6.63325
6.54202
4.92383
0.00655962
0.00509249
0.00469731
0.00345168
0.00211235
0.00170096
0.00171485
0.00184877
0.00213024
0.00239685
0.00274908
0.00412468
0.0152833
0.108597
0.656983
2.72865
5.81339
6.56153
5.24896
2.21488
0.0215157
0.0216498
0.0245052
0.0271614
0.0312457
0.0349652
0.0347098
0.0338542
0.0337833
0.0364869
0.0487369
0.0868388
0.197633
0.546589
1.64932
4.08742
5.75092
4.90441
2.19422
1.25288
0.0230872
0.0252787
0.0266335
0.0269173
0.027377
0.0276028
0.0277713
0.027283
0.0251997
0.0233075
0.021052
0.0186288
0.0164072
0.0145332
0.0128958
0.0111948
0.00904826
0.00727364
0.0066163
0.0211269
0.0252117
0.0228144
0.0242402
0.0238957
0.0244379
0.0246569
0.0248712
0.0237912
0.019229
0.0126379
0.00695155
0.00572364
0.00624373
0.00699509
0.00697773
0.00663906
0.0057645
0.00520373
0.00514583
0.0215072
0.0265658
0.0241988
0.0271169
0.0260803
0.0272267
0.026452
0.0262533
0.0242768
0.0168351
0.00712485
0.00299121
0.00314807
0.00378119
0.00490773
0.00532581
0.0052592
0.00492243
0.00476552
0.0047539
0.0245423
0.0268326
0.0238723
0.0259458
0.0016636
0.00230289
2.22045e-16
0.0218217
0.000413695
6.08914e-05
0.000109148
0.000268586
0.000569065
0.0010853
0.00185844
0.00257039
0.00299131
0.00318653
0.00340964
0.00349249
0.0273821
0.0272579
0.0244175
0.0271224
9.42086e-05
2.56915e-06
0.000117402
0.000213491
0.000337341
0.000504791
0.00074346
0.0010518
0.00139469
0.00170227
0.00206031
0.00220421
0.0312099
0.0274655
0.0245941
0.0264245
0.000316808
0.000193748
0.000495743
0.000546924
0.000623288
0.000731173
0.000885866
0.00109869
0.00133966
0.00154271
0.00175785
0.00187118
0.034835
0.0276532
0.0247813
0.0261727
0.0241617
0.000797561
0.00119505
0.00118392
0.00118575
0.00120277
0.00124688
0.00134087
0.00148117
0.00162418
0.00179059
0.00189559
0.0346252
0.0272347
0.0237706
0.0242249
0.000303846
0.00158113
0.00199991
0.00218033
0.00247149
0.00250294
0.00235042
0.00214574
0.00199162
0.00198494
0.00201954
0.0020731
0.0338172
0.0252431
0.019421
0.0172131
6.21043e-05
2.07375e-06
0.000169918
0.000736252
0.00148168
0.000863706
0.00120023
0.00161953
0.00212711
0.00261359
0.00317591
0.00319775
0.0030534
0.00271881
0.00244189
0.00241842
0.0336889
0.0233996
0.0130698
0.00774245
0.000132337
0.000101415
0.000421954
0.00104251
0.00180337
0.00119959
0.00104691
0.00120338
0.00161591
0.00228966
0.00302174
0.00342835
0.00343098
0.00321657
0.0028267
0.00272092
0.0360565
0.0211676
0.00735676
0.00325544
0.000299853
0.00018495
0.000469885
0.00102724
0.00201266
0.00160003
0.00121033
0.00126841
0.00152468
0.0020353
0.00274457
0.0032845
0.00334523
0.0032473
0.00305323
0.00306336
0.0470256
0.0187433
0.00594579
0.00338363
0.000608387
0.000290991
0.000538907
0.00102916
0.00230498
0.00205163
0.00161882
0.00153297
0.00165652
0.00198589
0.00243019
0.00286185
0.00318559
0.0033573
0.00360421
0.00428056
0.0811003
0.0165045
0.00643054
0.00399975
0.00113188
0.000436824
0.000634682
0.00104859
0.00226673
0.00256145
0.00228524
0.00205827
0.00199647
0.00209173
0.00232585
0.00279573
0.00348231
0.00471388
0.00765572
0.0136258
0.178968
0.0146132
0.00715243
0.00511528
0.00193049
0.000657845
0.00077638
0.00109745
0.00207474
0.00299017
0.00296144
0.00276895
0.00245638
0.00233675
0.00255087
0.00367239
0.00810419
0.0213566
0.0501275
0.0912839
0.483731
0.0129673
0.00712578
0.00547914
0.00265939
0.000956842
0.00098074
0.00119475
0.00186026
0.00293248
0.00332096
0.00323063
0.00286395
0.00280881
0.00370342
0.0122067
0.0600342
0.184896
0.367391
0.556038
1.45922
0.0112626
0.00675952
0.00538377
0.00305071
0.00130092
0.00121093
0.0013386
0.00178444
0.00275209
0.00329348
0.00323914
0.00313902
0.00348742
0.00834811
0.0614269
0.343029
1.0266
1.76156
2.39436
3.76293
0.00910503
0.00581673
0.00496381
0.00320262
0.00161598
0.00141341
0.0014899
0.00180227
0.00245629
0.00301815
0.00310584
0.00326992
0.00477662
0.022485
0.192633
1.05183
2.96492
4.68544
5.49077
5.65323
0.00729695
0.00519978
0.00475152
0.00339076
0.00198616
0.00163871
0.00166947
0.00186537
0.00226106
0.00264092
0.00289919
0.00351557
0.00793604
0.0531636
0.386707
1.83522
4.77784
6.48388
6.51057
5.15526
0.00661833
0.00513523
0.00473553
0.00346526
0.00213603
0.0017572
0.00177958
0.00193308
0.00225666
0.00255773
0.00291401
0.00421713
0.0142164
0.0963656
0.586971
2.50562
5.60013
6.52847
5.53186
2.5133
0.02089
0.021269
0.0242531
0.0270285
0.0307693
0.0343194
0.0340686
0.0331626
0.0329409
0.0351944
0.0459418
0.0797615
0.17861
0.491878
1.5052
3.86541
5.70463
5.14383
2.49186
1.27928
0.0230821
0.0252759
0.0266175
0.0268841
0.0273484
0.0275882
0.0277606
0.0272679
0.0252026
0.0233199
0.0210627
0.0186337
0.0164074
0.0145286
0.0128852
0.0111781
0.00902835
0.00726134
0.00661263
0.0211033
0.0252024
0.0227996
0.0242468
0.0238543
0.0243682
0.0246114
0.0248383
0.0237599
0.0192305
0.0126341
0.00692459
0.00567514
0.00618064
0.00692582
0.00691114
0.00657706
0.00571767
0.0051787
0.00512552
0.0214508
0.0265699
0.0241616
0.0271178
0.0258655
0.0269779
0.0263192
0.0261854
0.0242485
0.0167927
0.00709141
0.00293286
0.00308548
0.0037069
0.00481503
0.00524219
0.00518321
0.00487049
0.00473155
0.00472213
0.0244422
0.0268502
0.0238877
0.0261319
0.00177976
0.00634995
0.000145246
0.0170883
0.000218415
5.86621e-05
9.75768e-05
0.000256377
0.000555967
0.00106777
0.00182511
0.00252278
0.00294546
0.00314991
0.0033798
0.00346427
0.0272351
0.027275
0.0244757
0.0273634
1.48217e-06
2.74129e-06
0.000122788
0.000225461
0.000355976
0.000527075
0.000761995
0.00106219
0.00139518
0.00169582
0.00204816
0.00219056
0.0309907
0.0274756
0.0246338
0.0265434
0.00302024
0.000239256
0.00053957
0.000588006
0.000663135
0.000768651
0.000918728
0.00112231
0.00135718
0.00155451
0.00176256
0.00187235
0.0345566
0.0276567
0.0247998
0.0262176
0.0272475
0.000952458
0.00128233
0.00126434
0.00125414
0.00126403
0.00129812
0.00138081
0.0015102
0.00164392
0.00180033
0.00190032
0.0343644
0.0272279
0.0237741
0.0242433
0.000738176
0.00178662
0.0021161
0.00228529
0.00256354
0.00258274
0.00241583
0.00219481
0.00202727
0.00200481
0.00203364
0.00208087
0.0335902
0.0252239
0.0194729
0.0173622
8.0318e-05
3.47042e-06
0.000193076
0.000761092
0.00146745
0.000870621
0.00129402
0.00172889
0.0022285
0.00270468
0.00324865
0.00325604
0.00309424
0.00274319
0.00245358
0.00242349
0.0335174
0.0233773
0.0130139
0.00762757
0.000121411
0.000106837
0.000441643
0.00108319
0.00184856
0.00121304
0.00106842
0.00123637
0.00167296
0.00236412
0.00309623
0.00349015
0.00348612
0.00325525
0.00284497
0.0027282
0.0359926
0.0211517
0.00726676
0.00318933
0.000286534
0.000194522
0.000489302
0.00107313
0.00205655
0.00161246
0.00122463
0.0012901
0.00155437
0.00208691
0.00281208
0.00335445
0.00339484
0.00328934
0.00307655
0.00308103
0.0471219
0.0187385
0.00591558
0.00332845
0.000593059
0.000307604
0.000563945
0.00107811
0.00235258
0.00207552
0.00162771
0.00154907
0.00168041
0.00202098
0.00248232
0.00292282
0.00323963
0.00340136
0.00363723
0.00431237
0.0815032
0.0165063
0.00638894
0.00395501
0.00111504
0.000461034
0.000667395
0.00110012
0.00233258
0.00257281
0.00229144
0.00206451
0.0020154
0.00211959
0.00236395
0.00284643
0.00353577
0.00476324
0.00770586
0.0137077
0.180065
0.0146177
0.00712965
0.005081
0.00190733
0.000685253
0.000813883
0.00114811
0.00215002
0.00304361
0.00296854
0.00276228
0.00246076
0.0023512
0.00257436
0.00370568
0.00811979
0.0213163
0.0500647
0.0914158
0.486533
0.0129715
0.00711003
0.00546051
0.00263472
0.000982516
0.00101713
0.00124176
0.00194022
0.00300338
0.00333658
0.00323906
0.00286284
0.00280625
0.0036962
0.0121136
0.0594221
0.183563
0.366281
0.556836
1.4666
0.0112658
0.00675103
0.00536998
0.00303468
0.00132272
0.00124702
0.00138054
0.00183901
0.00282646
0.00331774
0.00325366
0.00313989
0.00347321
0.00824492
0.060559
0.339174
1.01985
1.75921
2.40032
3.77428
0.00910764
0.0058161
0.00496072
0.0031953
0.00163381
0.00144732
0.00152645
0.00184968
0.0025193
0.00306047
0.00312931
0.00327623
0.00473883
0.0221238
0.189956
1.04152
2.95345
4.68693
5.49875
5.65821
0.00729914
0.00520268
0.00475309
0.00338939
0.00199891
0.00166798
0.00169982
0.00190322
0.00230201
0.0026789
0.00292429
0.00352062
0.00784573
0.0524289
0.382685
1.82399
4.77218
6.48877
6.5149
5.15705
0.0066238
0.00513868
0.0047371
0.00346494
0.00214664
0.00178444
0.00180726
0.00196587
0.00229227
0.00258753
0.00293752
0.00421698
0.0140691
0.0954342
0.583451
2.50096
5.60272
6.53286
5.53419
2.51359
0.0209237
0.0213015
0.024278
0.0270386
0.0307809
0.0343189
0.0340433
0.0331369
0.0329009
0.0351299
0.0458821
0.0797131
0.178571
0.492046
1.50689
3.87042
5.70819
5.1441
2.49026
1.2792
0.0237107
0.0258695
0.0271442
0.0273921
0.0278489
0.0280634
0.0282127
0.0277045
0.0256161
0.0237028
0.0214211
0.0189941
0.0167773
0.0148958
0.0132199
0.0114555
0.00926935
0.0073919
0.00657443
0.0217341
0.0257782
0.0239123
0.0254298
0.0251046
0.0256911
0.0259178
0.0260399
0.0247619
0.0201015
0.013256
0.00728573
0.00588464
0.00631735
0.0070628
0.00706334
0.00672852
0.00580986
0.00518869
0.00509304
0.0217959
0.0270865
0.0253853
0.0286052
0.0275882
0.0288301
0.0281247
0.0278369
0.0255814
0.0180028
0.00775019
0.00317195
0.00327704
0.00386045
0.00494778
0.00537316
0.00530135
0.00491944
0.00472809
0.00469165
0.0246277
0.0273551
0.0252658
0.0281497
0.00128099
0.00589167
2.22045e-16
0.0188023
0.000173891
6.48666e-05
0.000121872
0.000292829
0.000604796
0.00112474
0.00190288
0.00262696
0.00302381
0.00318625
0.00338945
0.00344723
0.0272284
0.0277687
0.0260061
0.0296209
1.2929e-06
2.50048e-06
0.000111254
0.000212973
0.000345436
0.000527248
0.000780126
0.00109031
0.00141419
0.00170587
0.00204682
0.00217186
0.031206
0.0279433
0.0260812
0.0286199
0.00679281
0.000220551
0.000488109
0.000546572
0.000633902
0.00075947
0.000933376
0.00114926
0.00137631
0.00155815
0.00174773
0.00184146
0.034825
0.0280972
0.0260716
0.0279719
0.0309598
0.000908311
0.00125772
0.0012529
0.00126125
0.00128468
0.00133461
0.00142149
0.00153554
0.00164796
0.00178142
0.00186304
0.0345732
0.0276645
0.0248197
0.0255935
0.000193632
0.0017578
0.002171
0.00235361
0.00262309
0.00264214
0.00248633
0.00226043
0.00206249
0.00198087
0.00199713
0.00202553
0.0338052
0.0256225
0.0202215
0.0182187
5.91587e-05
1.96189e-06
0.000184354
0.000817731
0.00164762
0.000942751
0.00140089
0.00184915
0.00233118
0.0027725
0.00323955
0.00323724
0.00306263
0.00270268
0.00237765
0.00231102
0.0338728
0.0237219
0.0135056
0.00815063
0.000143311
9.61887e-05
0.000438438
0.00116229
0.00204407
0.00133548
0.00112946
0.00130354
0.0017598
0.0024304
0.0030978
0.00340288
0.00338673
0.00315936
0.00272359
0.00258298
0.0368624
0.0214566
0.00756146
0.00340306
0.000324163
0.000185925
0.000487465
0.0011486
0.00222143
0.00174412
0.00128649
0.00135884
0.00161537
0.00211351
0.00277356
0.00325176
0.00328194
0.00317087
0.00293402
0.00293364
0.0494771
0.0190388
0.00608843
0.00350131
0.000647226
0.000303352
0.000564636
0.00114389
0.00247468
0.00219648
0.00170527
0.00160674
0.00172109
0.0019867
0.00237017
0.0027712
0.00309826
0.00326881
0.00350682
0.00422112
0.0879918
0.0168204
0.00651804
0.00409395
0.00118173
0.000468935
0.000678429
0.00116019
0.0024677
0.00264317
0.00235333
0.00209175
0.00198387
0.00204986
0.00224159
0.00270978
0.00342423
0.00471014
0.00782903
0.0143962
0.197789
0.0149369
0.00725849
0.00520338
0.00200367
0.000713148
0.000840828
0.00120614
0.00228592
0.00308721
0.00298543
0.00272696
0.00236522
0.00224158
0.00246439
0.00365333
0.0084698
0.022935
0.0542718
0.0998247
0.537432
0.0132647
0.0072494
0.00558579
0.00276183
0.00102416
0.00105421
0.00129329
0.00205536
0.00305604
0.00328737
0.00317319
0.00274938
0.00269916
0.00366156
0.0130487
0.0657927
0.202606
0.399732
0.610138
1.6036
0.0115074
0.00688892
0.00548488
0.00312563
0.00135664
0.00127684
0.00141519
0.00187652
0.0028537
0.00326256
0.00318572
0.00304255
0.00339678
0.00864321
0.0670359
0.377575
1.11221
1.89748
2.59666
3.99877
0.00932148
0.0059036
0.00501372
0.00324018
0.00165739
0.00146281
0.00154047
0.00185667
0.00251885
0.00301134
0.00305547
0.00318558
0.00472097
0.0238568
0.209405
1.1342
3.18935
4.96244
5.71757
5.71128
0.00741546
0.00521046
0.00475283
0.00340627
0.00200929
0.00166412
0.00169094
0.00188579
0.00224895
0.00259319
0.00281948
0.00342516
0.00800875
0.0568639
0.416868
1.9609
5.03736
6.64532
6.55564
4.91805
0.00657291
0.00510092
0.00470479
0.00345544
0.00213866
0.00176436
0.00178082
0.00192641
0.00220991
0.00247761
0.00282631
0.00415447
0.0148083
0.104138
0.636854
2.68813
5.80041
6.57013
5.24966
2.20679
0.0215808
0.0216859
0.0245179
0.0271393
0.0311532
0.0347967
0.0345282
0.033714
0.0337018
0.0365039
0.0488289
0.0868705
0.1968
0.542353
1.63874
4.07794
5.75309
4.90825
2.19305
1.25253
0.0257506
0.0284173
0.029587
0.0298503
0.0303287
0.0304682
0.0305542
0.0299795
0.0276522
0.0254643
0.0229162
0.0202624
0.0178862
0.015896
0.0141189
0.0122291
0.00993859
0.00786082
0.00684936
0.0244309
0.0283203
0.0352627
0.0388157
0.0411473
0.0440081
0.0450338
0.0449647
0.0413679
0.0328097
0.0222213
0.0132318
0.00915247
0.00847072
0.00847446
0.00824708
0.00757024
0.00628497
0.00552394
0.0054227
0.0243734
0.0295223
0.0390179
0.0445424
0.0467833
0.0508715
0.0513689
0.0509127
0.0460576
0.034565
0.0166918
0.00870855
0.00642166
0.00631513
0.00651302
0.00650442
0.00614952
0.00533177
0.00509052
0.00508769
0.028139
0.0298108
0.0419819
0.0478542
2.22045e-16
0.0054129
2.22045e-16
0.0179145
0.000166418
7.29897e-05
0.00107273
0.00184263
0.0021737
0.00248456
0.00303221
0.00355353
0.00358879
0.00357365
0.00367482
0.00374014
0.0311394
0.0302564
0.0453128
0.0522851
2.22045e-16
1.31211e-06
8.89803e-05
0.000225726
0.000431571
0.000693886
0.00100817
0.00133178
0.00162173
0.00190421
0.00224622
0.00237624
0.0362366
0.0303335
0.0459029
0.0523087
0.00793786
0.000162337
0.000411714
0.000489902
0.000610848
0.000788112
0.00102314
0.00126573
0.0014846
0.00166941
0.00185912
0.00195012
0.0407286
0.0304183
0.0454215
0.0513774
0.0305945
0.00084109
0.00121149
0.00121851
0.0012366
0.00128023
0.00137104
0.00149717
0.00163269
0.00175416
0.00188136
0.00195817
0.0408826
0.0299311
0.0415956
0.0462463