/*--------------------------------*- C++ -*----------------------------------*\
  =========                 |
  \\      /  F ield         | OpenFOAM: The Open Source CFD Toolbox
   \\    /   O peration     | Website:  https://openfoam.org
    \\  /    A nd           | Version:  9
     \\/     M anipulation  |
\*---------------------------------------------------------------------------*/
FoamFile
{
    format      ascii;
    class       volScalarField;
    location    "0.002";
    object      rho.C4;
}
// * * * * * * * * * * * * * * * * * * * * * * * * * * * * * * * * * * * * * //

dimensions      [1 -3 0 0 0 0 0];

internalField   nonuniform List<scalar> 
9720
(
52.977
59.9874
64.7025
68.5874
73.1452
76.2702
79.0656
78.8556
72.3252
62.8439
53.0895
44.372
37.304
31.7196
27.2368
23.5375
20.4341
17.9189
15.022
12.3237
59.9795
68.5896
74.0245
78.4315
84.2981
89.6776
94.499
92.0526
76.0971
60.5904
47.6298
38.7246
32.5521
27.9089
24.1998
21.1346
18.5492
16.3974
14.2415
11.8027
64.6781
74.0102
79.65
83.2139
88.7952
97.4099
104.472
100.002
73.1225
48.9775
37.9364
32.2167
28.3521
25.1894
22.4089
19.9364
17.7584
15.9748
14.062
11.9227
68.5708
78.6317
83.6191
82.9143
85.9257
98.6994
112.181
117.904
77.7338
28.6242
26.387
24.8532
23.2059
21.3884
19.4869
17.6164
15.8984
14.424
12.563
10.6916
73.0095
84.4618
89.4058
87.5566
22.981
17.5319
19.5653
20.6995
20.3914
19.3094
17.6765
15.9209
14.3369
12.923
10.9751
9.5969
76.1043
89.4766
97.1039
98.3421
17.8416
17.5304
18.1843
18.9935
18.9564
18.3535
17.0545
15.3992
13.7649
12.1862
10.0756
8.9954
78.8077
94.0654
103.791
111.315
17.9042
17.2321
17.5689
18.001
17.9587
17.5045
16.3885
14.7866
13.093
11.3821
9.18061
8.45616
78.552
91.3844
98.8103
116.36
17.0299
16.1398
16.5028
17.0797
17.2126
17.0099
16.2473
14.8371
13.0487
10.9578
8.5834
8.31782
71.8914
75.4045
71.7563
74.1412
22.0196
18.2384
18.3343
17.4378
7.61791
9.78703
12.1878
14.1916
15.6447
15.9286
15.6564
14.7071
13.0716
10.7649
8.52183
8.52228
62.4878
59.9982
48.3404
28.5513
17.9681
18.0087
17.741
16.6731
10.5435
7.30709
8.17787
10.38
12.8067
14.1625
14.23
13.7778
12.4674
10.31
8.8713
9.52978
52.8069
47.2564
37.7072
26.5018
19.9385
18.6448
18.0113
17.0427
13.0928
8.6019
7.65452
8.31107
9.82854
11.2258
11.7163
11.6788
11.3488
10.503
10.4273
12.3543
44.1683
38.5086
32.1183
24.9328
20.8595
19.3514
18.3099
17.5413
15.0549
11.1718
8.61323
7.73781
7.87266
8.43778
9.57344
11.0728
11.7805
12.3158
13.8751
18.2486
37.1768
32.42
28.284
23.2197
20.5106
19.2635
18.232
17.5511
16.2709
13.6805
10.5647
8.09183
7.81793
8.38322
9.92257
12.0328
14.3913
17.7594
21.4296
26.8442
31.6464
27.8285
25.1335
21.3561
19.3755
18.5616
17.7272
17.2736
16.3279
14.7855
12.0329
8.8792
8.57524
9.52492
12.5681
17.6916
23.7525
29.0498
32.5953
38.2792
27.1956
24.151
22.3672
19.4409
17.6841
17.1494
16.5754
16.4075
15.96
14.7448
12.4523
10.1357
10.3643
12.8092
20.4577
31.2255
40.3235
45.1393
48.7646
55.3751
23.5156
21.1053
19.9089
17.5774
15.9014
15.4267
14.9723
14.9446
14.8868
14.1493
12.2098
11.6082
12.544
18.1374
31.6175
48.2968
60.3357
65.3711
70.3994
78.482
20.4283
18.5356
17.7425
15.8688
14.3144
13.7731
13.2669
13.1413
13.196
12.6993
11.6866
12.1631
14.8456
24.3043
40.9517
60.797
78.7139
87.4925
94.1017
105.279
17.9281
16.3976
15.9618
14.3926
12.9009
12.1914
11.5137
11.0631
10.8692
10.4281
10.6424
12.5321
18.1052
29.6081
45.8824
66.0391
87.7148
107.483
118.593
120.207
15.0429
14.2485
14.0447
12.5262
10.9512
10.079
9.26004
8.66289
8.57411
8.89648
10.4798
13.9679
21.7298
33.1575
49.5535
71.0555
94.2631
117.421
1.22975
0.00110082
12.3447
11.8151
11.9167
10.6656
9.57697
8.988
8.47932
8.3499
8.546
9.52813
12.3404
18.3115
27.1202
38.7929
56.046
78.9953
105.217
109.244
0.000527059
2.22045e-16
51.2705
57.735
62.0219
65.7475
70.0942
72.9582
75.5308
74.7627
67.6246
58.516
49.2625
41.1286
34.6281
29.5788
25.5622
22.2462
19.4496
17.1795
14.5712
11.888
57.7065
65.4245
70.2783
74.3764
80.0715
85.3704
89.7913
86.5208
70.3741
55.2471
43.3615
35.3854
29.9626
25.9234
22.7081
20.0306
17.7591
15.8492
13.8833
11.4845
61.9615
70.2465
75.3051
78.2552
83.9284
92.7293
99.3782
93.9092
67.1291
44.4035
34.4336
29.4268
26.1031
23.402
21.0272
18.8966
16.9953
15.4181
13.7172
11.6457
65.66
74.5108
78.6989
79.803
81.4236
94.9484
108.809
112.275
73.068
25.8561
24.0421
22.8854
21.5206
19.9583
18.318
16.6925
15.1907
13.8926
12.2493
10.4178
69.9008
79.9552
83.9366
82.0858
21.319
16.441
18.0152
19.3583
19.2303
18.4318
17.0334
15.4312
13.9532
12.6151
10.8025
9.34678
72.6496
84.8481
91.9354
94.0176
17.0168
16.7316
17.0266
17.7191
17.8801
17.5325
16.5449
15.1217
13.6185
12.0983
10.0606
8.75954
75.2045
89.2381
98.5626
107.461
16.9704
16.5963
16.6304
16.883
16.9711
16.7669
16.034
14.7493
13.2033
11.5235
9.30252
8.24706
74.6046
86.2192
93.3858
111.365
16.1687
15.678
15.7961
16.1293
16.4271
16.3402
15.8525
14.7576
13.1734
11.2174
8.72035
8.10315
67.5329
70.1176
66.4198
71.3669
20.9478
17.1375
17.4265
16.8144
6.99228
9.18038
11.5613
13.4271
14.863
15.3519
15.204
14.5246
13.155
11.1155
8.62206
8.29716
58.4316
54.8635
43.8367
25.5434
16.2546
16.6406
16.6838
15.9206
9.77905
6.52945
7.44154
9.63209
12.0146
13.5552
13.8166
13.5496
12.5601
10.6155
8.73939
9.03539
49.1622
42.9977
33.9553
23.6325
17.8002
16.9456
16.7268
16.0477
12.2003
7.74454
6.90055
7.56935
9.11002
10.7446
11.4827
11.4573
11.0734
10.2378
9.7958
11.1571
41.0252
35.0802
29.0208
22.4511
19.1004
17.6467
16.9501
16.3652
13.9701
10.1769
7.80047
7.01944
7.18547
7.79048
8.70992
10.0191
10.9826
11.3372
12.3567
16.0384
34.5305
29.7108
25.7609
21.1157
18.9534
17.7897
16.9972
16.5538
15.2488
12.6387
9.67964
7.39551
6.95161
7.33835
8.67632
10.6261
12.6047
15.2761
18.6466
24.0059
29.488
25.7141
23.1108
19.6029
18.1372
17.4178
16.7643
16.431
15.6173
14.0688
11.4047
8.22178
7.46288
8.13041
10.3989
14.5645
19.844
25.2497
29.0765
34.6206
25.4756
22.5305
20.7813
18.022
16.7476
16.393
15.9938
15.8948
15.4314
14.2221
12.0768
9.21005
9.05194
10.6337
16.4517
25.8367
34.9128
40.5215
43.9613
50.2257
22.162
19.8772
18.6961
16.4655
15.1877
14.9519
14.7058
14.7674
14.6755
13.8934
11.9303
10.5338
11.1373
15.1181
26.3462
41.8154
54.6075
60.2015
65.1574
72.7842
19.3721
17.6287
16.8387
15.0288
13.7645
13.4659
13.1582
13.1551
13.2308
12.777
11.4069
11.4066
13.1751
20.7171
35.9748
55.5746
74.1011
83.1918
89.109
99.6142
17.1147
15.747
15.2954
13.7713
12.4743
11.9823
11.4805
11.1938
11.1344
10.7175
10.4299
11.663
15.8793
26.2343
41.8069
61.6553
84.2831
103.888
114.706
123.044
14.5234
13.8064
13.6101
12.1508
10.6993
9.98346
9.27077
8.71831
8.62929
8.76121
9.90484
12.6204
19.2193
29.9613
45.2959
66.7226
90.2715
114.981
13.0205
0.0819174
11.8454
11.4223
11.5582
10.3384
9.26955
8.70529
8.21994
8.09811
8.28944
9.03815
11.2299
16.2461
24.4205
35.3348
51.5083
74.2853
100.733
122.137
0.0357157
1.12396e-14
50.0115
56.3411
60.401
63.9354
68.0141
70.6698
73.0063
71.7595
64.4419
55.7193
46.9377
39.265
33.1583
28.4378
24.6733
21.5224
18.8191
16.6584
14.2505
11.6339
56.2846
63.5782
67.9572
71.5556
76.9521
82.1284
86.2419
82.3887
66.5406
51.8974
40.9334
33.6943
28.8005
25.1309
22.1721
19.651
17.4376
15.6161
13.7816
11.4257
60.2662
67.8758
72.1171
74.0541
80.0107
88.6733
95.054
88.9683
62.4575
41.0985
32.2434
27.9709
25.1461
22.8023
20.6621
18.6514
16.7785
15.261
13.7046
11.6998
63.6232
71.2728
73.9138
73.5917
75.2279
89.7724
103.681
105.991
66.9089
23.8164
22.6395
21.8494
20.7691
19.4503
18.0229
16.5384
15.0809
13.8703
12.3945
10.5831
67.5357
76.1479
78.9081
74.062
18.5383
15.3765
16.891
18.6176
18.8064
18.3525
17.2283
15.7155
14.1928
12.8738
11.1652
9.52808
70.1945
81.2729
87.3794
87.9786
15.9054
15.6476
16.0366
16.8747
17.5636
17.4327
16.7577
15.5343
14.0657
12.5862
10.656
9.02255
72.6213
85.6251
94.2114
102.277
16.414
15.8408
15.9469
16.323
16.7481
16.6962
16.247
15.2122
13.7447
12.1262
10.0124
8.50971
71.6866
82.3769
89.1354
106.06
15.9793
15.2884
15.4691
15.8016
16.3172
16.3229
16.0357
15.1629
13.705
11.8844
9.42293
8.28141
64.5866
66.7494
62.8913
67.07
18.5034
15.5892
16.224
15.7258
6.22648
8.98927
11.4274
13.2162
14.698
15.413
15.345
14.8313
13.631
11.7977
9.24815
8.44469
55.8403
51.8776
40.9163
23.2321
14.7333
15.4483
15.7387
15.1425
9.00108
6.11058
7.07665
9.24851
11.693
13.5233
13.9925
13.8141
13.0291
11.3321
9.0832
9.01039
46.9901
40.7454
31.7884
21.8824
16.2438
15.8116
15.8211
15.3848
11.489
7.17906
6.41649
7.09206
8.79556
10.7314
11.7139
11.703
11.3018
10.3613
9.60597
10.5527
39.2537
33.4284
27.4711
21.1523
18.0191
16.6489
16.1666
15.7297
13.2889
9.44181
7.20528
6.67309
6.97899
7.73517
8.54137
9.52627
10.5123
10.8141
11.4273
14.4694
33.0947
28.5186
24.6812
20.1773
18.3271
17.3427
16.5524
16.2093
14.7342
11.8861
9.02861
7.09613
6.55646
6.77076
7.87044
9.70036
11.4401
13.4019
16.2972
21.7359
28.342
24.8635
22.3982
18.974
17.9264
17.2215
16.5003
16.2053
15.4376
13.6949
11.0337
8.01324
6.83712
7.25204
8.92286
12.1878
16.5267
21.6216
25.9771
31.7588
24.5615
21.9291
20.3198
17.6508
16.8836
16.5554
16.0634
15.9137
15.3754
14.1859
12.0487
8.87957
8.08445
9.1007
13.2071
21.2094
30.071
36.6796
40.1707
45.3588
21.4061
19.4304
18.3606
16.2482
15.4193
15.3206
15.051
15.0502
14.8643
14.0045
12.0091
9.88304
10.0864
12.6913
21.728
36.4087
50.1174
56.1668
59.1142
64.1875
18.708
17.24
16.5296
14.8506
13.9378
13.8537
13.6192
13.6198
13.6547
13.1717
11.5606
10.9009
11.9527
17.4254
31.2557
51.221
69.6018
76.9815
80.1369
86.9577
16.558
15.4448
15.0514
13.685
12.6582
12.397
12.0208
11.8262
11.8079
11.4192
10.5951
11.1776
14.0317
22.7317
38.1395
57.7399
78.3794
95.2116
102.182
110.426
14.1541
13.6325
13.5258
12.2407
10.9794
10.4994
9.91487
9.39622
9.25528
9.13503
9.77979
11.7662
16.9497
26.9832
41.531
60.7387
81.7593
103.442
113.869
1.60295
11.5383
11.2993
11.5458
10.4499
9.36597
8.88548
8.41668
8.25602
8.43276
9.05398
10.6858
14.7353
22.2039
32.4706
46.4855
65.7831
88.6762
111.288
0.854133
1.36836e-10
48.6485
54.938
58.866
62.2269
66.1778
68.7761
71.1174
69.7143
62.2549
53.6005
45.068
37.7054
31.8667
27.3487
23.7391
20.7303
18.1417
16.1477
14.0309
11.6905
54.8768
62.1101
66.3238
69.5667
74.9239
80.1638
84.3693
80.3895
64.3346
49.6851
39.0864
32.3356
27.8455
24.43
21.5965
19.1362
16.9388
15.1563
13.4887
11.4187
58.7459
66.3135
70.3283
71.6891
77.6826
86.5353
93.1411
86.9428
59.8956
38.793
30.3657
26.6138
24.2377
22.2194
20.2574
18.3061
16.4028
14.8545
13.3238
11.4606
61.8841
69.3201
71.6061
70.9361
71.9446
87.3106
101.441
103.2
63.4055
22.0735
21.2427
20.7618
19.9899
18.9273
17.6835
16.3035
14.8454
13.6376
12.2214
10.5106
65.5608
74.0143
76.5638
70.445
17.5702
14.4232
15.8182
17.6001
18.3167
18.0522
17.1888
15.7887
14.1879
12.8359
11.2066
9.58317
68.3072
79.3354
85.3479
85.4987
14.8891
15.0201
15.3986
16.2891
17.2713
17.2708
16.8013
15.6894
14.1801
12.6892
10.8921
9.24077
70.7241
83.6865
92.1793
100.11
15.4145
15.3497
15.4526
15.9136
16.525
16.5312
16.1916
15.2524
13.8294
12.2891
10.3891
8.83663
69.6167
80.224
86.743
102.622
15.3012
14.8646
15.0899
15.4418
16.0934
16.2075
15.9973
15.2574
13.9277
12.2698
10.0274
8.65246
62.4953
64.6991
60.6341
64.9231
17.6426
14.917
15.5229
15.3087
5.92146
8.48599
10.9326
12.7833
14.3712
15.3271
15.3418
14.9857
13.939
12.2828
9.87392
8.76421
53.9395
50.1635
39.2868
22.4596
14.4046
15.0797
15.3867
14.8411
8.84355
5.90049
6.71938
8.86496
11.3642
13.3913
14.1585
14.069
13.4308
11.9593
9.67762
9.29081
45.389
39.4316
30.5282
21.0746
15.6158
15.3907
15.4277
15.0486
11.2414
6.93499
6.37808
6.97875
8.64919
10.7463
12.0253
12.1943
11.8535
10.949
9.95953
10.6775
37.937
32.4905
26.5715
20.4522
17.2777
16.1844
15.7671
15.3659
13.0012
9.22115
7.13158
6.84006
7.17753
8.05387
8.92646
9.81932
10.7501
11.0833
11.5543
14.2272
31.9972
27.8575
24.0894
19.6568
17.9349
17.0528
16.2745
15.933
14.4772
11.6957
8.94654
7.28088
6.84903
7.02977
8.04474
9.8611
11.5712
13.2412
15.753
20.9373
27.4042
24.3626
22.0259
18.6283
17.6695
17.0219
16.2742
15.967
15.2105
13.5367
11.0323
8.27318
7.09535
7.45044
8.98456
11.901
15.7383
20.2932
24.6735
30.5398
23.7482
21.4968
20.0574
17.433
16.8105
16.5079
15.9429
15.7216
15.1576
14.1145
12.2093
9.17639
8.25348
9.15429
12.5211
19.4916
27.8156
34.686
38.6132
43.7519
20.7141
19.0283
18.1174
16.09
15.4264
15.3698
15.0346
14.9366
14.7146
13.9769
12.2385
10.0769
10.1892
12.3377
19.9432
33.7353
47.8161
54.7355
57.2485
61.2822
18.1134
16.8321
16.2271
14.6535
13.8662
13.8651
13.6345
13.5985
13.6541
13.2799
11.8719
11.0087
11.9433
16.4389
28.8055
48.6945
67.8322
75.0631
76.6652
81.73
16.1161
15.056
14.693
13.4655
12.5696
12.4046
12.1065
11.9849
12.0369
11.789
10.9524
11.2255
13.6213
21.0941
35.8171
55.8865
75.9362
90.8843
96.2105
103.597
14.0064
13.4054
13.1847
12.0718
10.998
10.6565
10.2164
9.82359
9.70067
9.547
9.91271
11.6248
16.0707
25.3185
39.5207
58.2431
77.5136
96.7603
110.698
7.51784
11.661
11.3565
11.3539
10.3851
9.42443
9.06748
8.68913
8.51556
8.64093
9.17707
10.6017
14.2037
21.0545
30.8475
44.3095
62.0417
82.47
103.859
5.03879
4.28784e-08
47.907
54.3258
58.3261
61.601
65.4296
68.1333
70.5061
69.0759
61.5246
52.8717
44.3715
37.0216
31.2175
26.7631
23.2538
20.3831
17.9264
16.074
14.1893
12.0415
54.2619
61.6822
65.9427
68.8569
74.0849
79.4375
83.6746
79.6564
63.5502
48.943
38.4677
31.8132
27.3842
24.0177
21.2414
18.8779
16.8022
15.1202
13.64
11.8112
58.1716
65.8407
69.7281
70.6859
76.6067
85.554
92.1782
85.9383
58.7056
37.7476
29.5572
26.0258
23.8085
21.8796
19.9697
18.0862
16.284
14.8191
13.4702
11.8652
61.3179
68.6598
70.5415
69.5364
69.9123
85.7935
100.113
101.82
62.2707
21.372
20.5377
20.2355
19.641
18.6793
17.4812
16.1594
14.7858
13.6544
12.4204
10.9615
65.0123
73.3367
75.5659
68.8023
17.2197
14.2864
15.4768
17.2186
18.1112
17.9043
17.1205
15.7971
14.2543
12.9665
11.4921
10.0344
67.7097
78.6739
84.4415
84.3342
14.8224
15.3041
15.667
16.4987
17.3649
17.3373
16.8682
15.8013
14.3457
12.9196
11.2678
9.74658
70.1477
83.0339
91.2906
98.9903
15.4502
15.5482
15.6171
15.994
16.5675
16.542
16.2141
15.375
14.0603
12.5982
10.8424
9.39387
68.9438
79.4112
85.5929
101.105
15.2224
14.8939
15.0707
15.3608
15.9671
16.2123
16.0504
15.4411
14.2316
12.6902
10.6247
9.29118
61.7374
63.8244
59.1145
62.7239
17.1992
14.8599
15.4716
15.1105
5.61723
8.18779
10.6889
12.5919
14.2011
15.3265
15.5186
15.2566
14.3625
12.8477
10.622
9.4472
53.2486
49.5091
38.3895
21.8408
14.3495
15.1931
15.3583
14.6383
8.48802
5.70292
6.48025
8.66067
11.2472
13.4589
14.4816
14.4695
13.9439
12.6379
10.4852
9.99751
44.7842
39.014
30.0872
20.8788
15.5844
15.5822
15.4298
14.87
10.919
6.62245
6.42334
6.95567
8.68001
10.9815
12.4568
12.7736
12.5046
11.7398
10.7499
11.3616
37.3837
32.2105
26.3525
20.4152
17.3006
16.4156
15.7697
15.1998
12.7186
8.8626
7.0267
7.12208
7.55228
8.5449
9.51651
10.4858
11.4831
11.8453
12.2663
14.7484
31.4925
27.6312
23.9725
19.6901
17.9949
17.2197
16.2939
15.8005
14.2301
11.4183
8.84162
7.62226
7.39588
7.58512
8.59369
10.4622
12.2337
13.8832
16.2823
21.2238
26.9575
24.1509
21.9319
18.6527
17.7429
17.1676
16.2814
15.9366
15.2042
13.5173
11.1304
8.64097
7.60835
7.95492
9.48909
12.3966
16.2
20.6223
24.9185
30.5327
23.3867
21.3043
19.9554
17.4164
16.9113
16.6549
15.9789
15.7531
15.263
14.3509
12.4729
9.58349
8.6803
9.56863
12.87
19.7303
27.8761
34.6448
38.5024
43.4446
20.4726
18.9014
18.0419
16.0789
15.5653
15.5501
15.1577
15.1084
14.9597
14.2893
12.6731
10.5497
10.5974
12.634
20.0224
33.498
47.5289
54.4213
56.845
60.7132
17.9816
16.8013
16.2283
14.6976
14.0297
14.081
13.856
13.9006
14.0284
13.6952
12.3783
11.531
12.3863
16.6207
28.5563
48.1384
66.9215
74.3931
75.9514
80.8118
16.1059
15.1042
14.7589
13.5669
12.7783
12.6765
12.4215
12.3975
12.5318
12.3669
11.599
11.8029
14.0486
21.1024
35.3774
55.1472
74.8083
89.5594
95.011
102.479
14.2184
13.6291
13.4236
12.3488
11.355
11.0731
10.6978
10.3987
10.3671
10.2508
10.5776
12.1903
16.4053
25.2633
39.0266
57.3524
76.2073
94.9535
110.398
12.0948
12.0572
11.8053
11.8348
10.9066
9.9385
9.60738
9.26319
9.12314
9.26021
9.79742
11.1791
14.621
21.1974
30.6198
43.6678
60.97
80.9133
102.123
8.93584
3.0694e-07
47.909
54.3034
58.2658
61.4972
65.3363
68.0838
70.4769
69.0384
61.5298
52.8954
44.3928
37.0371
31.2302
26.7746
23.2633
20.39
17.9306
16.0784
14.1961
12.0506
54.2887
61.6863
65.8831
68.61
73.8505
79.3835
83.6491
79.5819
63.5746
49.0427
38.5459
31.8521
27.3985
24.0205
21.2398
18.8736
16.7959
15.1141
13.6372
11.8144
58.2324
65.9046
69.7329
70.2804
76.2549
85.5622
92.2127
85.8029
58.7893
37.9669
29.7064
26.082
23.8107
21.858
19.9429
18.0606
16.26
14.7977
13.452
11.8565
61.4031
68.8274
70.8271
69.2278
69.1397
85.5509
100.038
101.132
61.9124
21.5739
20.7399
20.3468
19.6703
18.6598
17.4429
16.1173
14.7454
13.6178
12.389
10.9416
65.0824
73.4944
75.7742
68.0583
16.457
14.2804
15.5321
17.296
18.1049
17.8741
17.063
15.7264
14.1853
12.909
11.4461
10.0025
67.7523
78.7162
84.4168
83.9186
15.0367
15.3181
15.6533
16.4595
17.3202
17.2913
16.8146
15.739
14.2814
12.8639
11.2227
9.71339
70.1551
83.0241
91.2481
98.6047
15.99
15.5904
15.6214
15.9528
16.5062
16.4861
16.1681
15.3399
14.0346
12.58
10.8272
9.37072
68.9121
79.3553
85.5114
100.757
15.5718
14.956
15.101
15.3705
15.9769
16.1979
16.0281
15.4093
14.1968
12.6585
10.591
9.25685
61.6698
63.7593
59.1837
63.0473
16.4716
14.8822
15.6514
15.1305
5.56571
8.36314
10.827
12.7032
14.3003
15.3964
15.537
15.2581
14.3518
12.8255
10.5852
9.41024
53.1657
49.372
38.3233
21.6526
14.1971
15.2222
15.4352
14.72
8.4541
5.72799
6.54458
8.76429
11.3805
13.5932
14.5643
14.5353
13.9782
12.6418
10.4598
9.96827
44.7177
38.9028
30.033
20.8897
15.5198
15.568
15.4743
14.9087
10.8778
6.59929
6.43764
7.00438
8.79116
11.1354
12.6051
12.8804
12.5947
11.7915
10.7504
11.3565
37.3474
32.1641
26.3582
20.5083
17.3483
16.4087
15.8051
15.2054
12.6756
8.81868
7.02322
7.15368
7.63775
8.67984
9.66936
10.6265
11.6019
11.915
12.3083
14.7783
31.4786
27.634
24.0124
19.8056
18.1379
17.2947
16.3542
15.8036
14.1899
11.3717
8.81085
7.63853
7.45823
7.6661
8.70657
10.6002
12.3654
14.0018
16.392
21.3139
26.9579
24.1769
21.9832
18.7505
17.8906
17.2656
16.3509
15.9813
15.1983
13.4805
11.0873
8.6361
7.649
8.01035
9.58459
12.5362
16.3754
20.8238
25.1061
30.6753
23.3951
21.3373
20.0059
17.4908
17.0535
16.7741
16.0593
15.8119
15.2881
14.3376
12.4388
9.5601
8.66806
9.57319
12.9269
19.877
28.1293
34.931
38.7533
43.6493
20.4851
18.9344
18.0859
16.1367
15.6883
15.6669
15.2348
15.1855
15.0057
14.288
12.6462
10.4967
10.5348
12.5802
20.0229
33.6313
47.8347
54.7606
57.1483
60.9663
17.997
16.8339
16.267
14.7452
14.1222
14.1777
13.92
13.9808
14.0911
13.7171
12.3537
11.4638
12.3131
16.5404
28.5155
48.2131
67.1987
74.7479
76.2633
81.0743
16.1232
15.1347
14.7927
13.6063
12.8416
12.7491
12.4707
12.4676
12.5905
12.395
11.5758
11.768
13.998
21.0483
35.3582
55.1994
74.9729
89.8438
95.2998
102.709
14.2369
13.6566
13.4523
12.3809
11.395
11.1247
10.7345
10.4511
10.4119
10.2738
10.5858
12.1854
16.3891
25.2494
39.0379
57.4284
76.3472
95.1223
110.626
11.7041
12.0753
11.8284
11.8588
10.9325
9.96161
9.63833
9.29071
9.15939
9.29717
9.83112
11.2069
14.6534
21.2257
30.6465
43.7207
61.0672
81.0379
102.259
8.88216
2.80279e-07
48.6567
54.9132
58.8045
62.061
65.9676
68.7046
71.071
69.6389
62.1751
53.5477
45.023
37.6688
31.8538
27.3594
23.764
20.7601
18.172
16.1778
14.0581
11.7156
54.9197
62.1144
66.2736
69.2046
74.5643
80.1029
84.3324
80.2611
64.2231
49.6441
39.057
32.3021
27.821
24.4242
21.605
19.1489
16.9498
15.1658
13.4976
11.432
58.8188
66.351
70.2971
71.1486
77.2586
86.6036
93.2091
86.7655
59.6692
38.6942
30.3066
26.5535
24.1859
22.185
20.2392
18.2935
16.3869
14.8347
13.299
11.4459
62.0273
69.5375
71.838
70.1746
70.3924
86.7914
101.194
102.332
62.4042
22.0255
21.1615
20.6703
19.9068
18.8606
17.631
16.2569
14.798
13.5893
12.17
10.4704
65.7311
74.249
76.7662
68.9472
16.7275
14.3689
15.7494
17.5644
18.2492
17.9696
17.0867
15.6731
14.0761
12.7406
11.121
9.51533
68.3724
79.3943
85.2853
84.6421
14.7
14.9213
15.3491
16.256
17.2339
17.222
16.7296
15.5982
14.0826
12.5994
10.8093
9.17286
70.7136
83.5958
91.9998
99.3515
15.1916
15.1687
15.3282
15.8146
16.459
16.4739
16.1497
15.2317
13.8184
12.2775
10.3606
8.78927
69.499
79.9531
86.303
101.507
14.9684
14.7497
15.0006
15.3846
16.0651
16.1661
15.9498
15.2052
13.8828
12.2344
9.9887
8.60512
62.259
64.3162
59.9155
63.1689
16.8553
14.8928
15.5411
15.322
5.7586
8.67429
11.1131
12.9371
14.5006
15.3683
15.3525
14.9663
13.9247
12.2678
9.84224
8.72536
53.7314
49.8499
38.889
22.2285
14.4945
15.1571
15.4359
14.8782
8.65189
5.91191
6.84298
9.09546
11.6137
13.5654
14.2522
14.1459
13.4861
11.9916
9.67803
9.28077
45.2416
39.2738
30.4358
21.1478
15.745
15.5173
15.5251
15.1203
11.1043
6.83845
6.46705
7.15218
8.88903
10.9785
12.2233
12.3494
11.9986
11.0695
10.0181
10.7279
37.8596
32.4693
26.6504
20.6426
17.4962
16.3544
15.9258
15.4511
12.9244
9.08876
7.16151
6.93152
7.31081
8.23343
9.12746
10.0271
10.9683
11.2566
11.6969
14.3573
31.983
27.9166
24.2408
19.8856
18.1977
17.2523
16.4748
16.0454
14.4508
11.5954
8.90763
7.32523
6.91704
7.11832
8.18917
10.0739
11.823
13.515
16.037
21.2044
27.4303
24.4561
22.191
18.8338
17.9192
17.2199
16.4636
16.107
15.2678
13.5056
10.9742
8.25877
7.13196
7.50929
9.11697
12.1468
16.1124
20.774
25.1634
30.9701
23.7939
21.5946
20.2063
17.5922
17.0282
16.696
16.1082
15.8727
15.2426
14.1458
12.172
9.13309
8.22432
9.15228
12.6169
19.7962
28.3936
35.4096
39.3074
44.3808
20.7661
19.118
18.2417
16.2097
15.6035
15.5366
15.1683
15.098
14.8363
14.0266
12.2418
10.0169
10.1114
12.2618
19.9584
34.0666
48.5953
55.6582
58.1318
62.1071
18.1661
16.9118
16.3306
14.7474
14.0026
14.0052
13.7393
13.7574
13.783
13.353
11.8821
10.9488
11.8674
16.3267
28.7399
48.894
68.543
76.0824
77.6581
82.646
16.168
15.1284
14.7818
13.5434
12.6737
12.5204
12.1969
12.1163
12.1445
11.861
10.9686
11.2161
13.5875
21.0144
35.7715
56.011
76.2603
91.6057
97.1603
104.353
14.0564
13.4715
13.2583
12.1358
11.0745
10.7471
10.2929
9.91127
9.76869
9.60115
9.95477
11.6589
16.0935
25.3248
39.5586
58.355
77.6925
96.9756
111.283
6.39744
11.71
11.4138
11.4136
10.4406
9.48039
9.12839
8.74376
8.56631
8.6893
9.23358
10.6694
14.3035
21.1647
30.9564
44.4309
62.1589
82.559
103.934
5.15169
2.98525e-08
50.0264
56.3378
60.3666
63.8262
67.9052
70.6299
73.0012
71.7117
64.2929
55.5601
46.7906
39.1497
33.083
28.3958
24.6553
21.5206
18.8285
16.6743
14.2663
11.6544
56.326
63.6039
67.9258
71.2595
76.7027
82.11
86.2939
82.3485
66.3032
51.6013
40.6959
33.5363
28.7045
25.076
22.1431
19.6395
17.4377
15.6229
13.7889
11.4395
60.3354
67.9688
72.1641
73.6548
79.6733
88.7843
95.2566
88.9848
61.8761
40.5126
31.8781
27.7666
25.0357
22.743
20.6296
18.6348
16.7727
15.2623
13.7107
11.7142
63.7277
71.5121
74.1957
72.3726
73.0605
88.9101
103.086
104.465
64.4608
23.2908
22.2227
21.5744
20.6066
19.3514
17.9573
16.4961
15.0558
13.8552
12.3812
10.5781
67.6185
76.3198
79.0982
71.5574
17.3233
15.059
16.62
18.4394
18.6908
18.2475
17.1364
15.635
14.1394
12.8452
11.144
9.52194
70.2439
81.332
87.3715
86.529
14.8176
15.5367
15.9284
16.8037
17.5088
17.3737
16.6929
15.4779
14.0407
12.589
10.6628
9.03121
72.5895
85.5094
94.0267
101.019
15.4991
15.7507
15.8337
16.1985
16.6391
16.5982
16.177
15.1896
13.7765
12.183
10.0586
8.53658
71.5363
82.0306
88.5471
103.821
15.2716
15.1928
15.3719
15.6992
16.2575
16.2955
16.043
15.2175
13.7942
11.9744
9.48744
8.32217
64.3612
66.3914
62.1305
65.6041
17.4153
14.8759
15.518
15.2957
6.07624
8.91622
11.3594
13.1787
14.7099
15.4995
15.4569
14.971
13.769
11.9035
9.30765
8.4842
55.693
51.7189
40.6757
23.2161
14.8783
15.4536
15.7083
15.1386
9.05991
6.13527
7.09993
9.30337
11.7989
13.6927
14.1952
14.0185
13.2079
11.4551
9.14698
9.06697
46.9161
40.759
31.8789
22.1027
16.4556
15.8453
15.8039
15.3642
11.5241
7.21547
6.49605
7.19425
8.94348
10.9325
11.9513
11.9271
11.4959
10.5192
9.71734
10.6699
39.2323
33.5288
27.6725
21.4308
18.2701
16.7232
16.1697
15.7116
13.3115
9.49824
7.28947
6.78022
7.11162
7.91107
8.74324
9.73551
10.7351
11.0196
11.6262
14.7007
33.113
28.6493
24.901
20.4528
18.5513
17.4497
16.6239
16.2457
14.7766
11.9542
9.11296
7.19229
6.66062
6.8879
8.0263
9.91233
11.7041
13.7264
16.6804
22.1502
28.3853
24.9989
22.6047
19.2159
18.1307
17.328
16.5922
16.274
15.5099
13.7741
11.1154
8.08617
6.92837
7.3579
9.07617
12.4513
16.9667
22.2198
26.6231
32.4034
24.6181
22.0583
20.5032
17.8505
17.0574
16.6677
16.1831
16.0184
15.4587
14.2554
12.1118
8.94047
8.14745
9.17015
13.3451
21.5677
30.772
37.6061
41.1422
46.3405
21.4679
19.5503
18.5203
16.4088
15.5752
15.4523
15.196
15.185
14.9642
14.0724
12.0626
9.92557
10.1163
12.694
21.8024
36.852
51.1346
57.417
60.4072
65.5158
18.7706
17.349
16.6659
14.9796
14.0781
13.9964
13.7695
13.7585
13.7562
13.2366
11.5959
10.9167
11.9512
17.3606
31.2275
51.4558
70.4801
78.3825
81.5744
88.4008
16.6192
15.5423
15.165
13.7866
12.7786
12.5315
12.1599
11.945
11.8879
11.4607
10.6097
11.1845
14.0167
22.668
38.087
57.8074
78.5948
96.0261
103.491
111.564
14.2147
13.7183
13.6169
12.3183
11.0742
10.6049
10.0245
9.47117
9.29986
9.16901
9.80487
11.7893
16.9697
26.9938
41.5137
60.6973
81.6631
103.361
108.536
1.12953
11.6001
11.3748
11.6283
10.5236
9.45879
8.98783
8.5126
8.32298
8.49323
9.10474
10.7459
14.8274
22.3177
32.5697
46.5073
65.6366
88.3667
110.981
0.984519
6.55834e-11
51.2854
57.7617
62.0633
65.827
70.1684
73.0314
75.596
74.734
67.4905
58.3451
49.0926
40.9877
34.5242
29.5063
25.5131
22.2138
19.4294
17.1679
14.5651
11.8966
57.7216
65.4516
70.3016
74.4267
80.2318
85.5435
89.9269
86.4742
70.1859
54.9938
43.1523
35.2436
29.8712
25.8656
22.6744
20.0133
17.7526
15.8489
13.889
11.5013
61.9653
70.2783
75.3247
78.2803
84.2117
93.0756
99.6028
93.8483
66.8505
44.1398
34.27
29.3351
26.0462
23.3637
21.0066
18.8951
17.0075
15.4364
13.7365
11.6708
65.6139
74.4799
78.6184
76.5997
78.0595
92.529
106.175
108.482
69.6884
25.7991
24.0041
22.8515
21.4899
19.932
18.303
16.6954
15.2092
13.919
12.2785
10.4498
69.8394
79.775
83.5799
76.9707
18.8505
16.3452
17.993
19.347
19.212
18.4076
17.0152
15.4394
13.99
12.6692
10.8673
9.40045
72.6028
84.7169
91.6728
90.1468
16.1316
16.6386
16.9386
17.6565
17.8307
17.4834
16.5083
15.1214
13.6607
12.1689
10.1441
8.82069
75.1462
89.084
98.3346
104.206
16.6481
16.5051
16.5424
16.7952
16.9019
16.71
16.0094
14.7719
13.2655
11.6091
9.39409
8.32016
74.5152
85.9955
93.0449
107.46
15.9778
15.6083
15.7495
16.086
16.3988
16.3234
15.8664
14.8131
13.2555
11.312
8.81286
8.17609
67.3817
69.9323
66.3737
68.7257
19.1469
15.9362
16.6578
16.1623
6.581
9.3113
11.6706
13.4919
14.913
15.4246
15.2902
14.623
13.2525
11.1987
8.68416
8.35871
58.2938
54.7285
43.8401
25.6676
16.343
16.7638
16.7799
15.977
9.7117
6.57293
7.52402
9.74587
12.1579
13.7173
13.9636
13.6861
12.6696
10.6796
8.78519
9.09297
49.0452
42.9096
33.9697
23.8183
17.9694
17.079
16.8321
16.1438
12.2199
7.78006
6.95053
7.65521
9.273
10.9477
11.6735
11.6097
11.1919
10.3198
9.8651
11.2517
40.9312
35.0277
29.0399
22.6125
19.2753
17.7841
17.0463
16.4663
14.0557
10.2307
7.83771
7.09184
7.29963
7.94666
8.87796
10.1906
11.1307
11.4616
12.485
16.2297
34.4583
29.6835
25.7824
21.2391
19.1279
17.931
17.0951
16.6628
15.3622
12.7123
9.70902
7.44611
7.03521
7.4403
8.82065
10.7947
12.8018
15.5303
18.9538
24.3523
29.4342
25.7051
23.1419
19.7041
18.3106
17.5595
16.875
16.5434
15.7316
14.1605
11.4486
8.25473
7.52444
8.20724
10.518
14.7886
20.2382
25.7612
29.6212
35.2092
25.4384
22.5342
20.8204
18.1099
16.903
16.5308
16.1204
16.0199
15.5492
14.3228
12.1482
9.24384
9.08284
10.6695
16.5665
26.1768
35.5652
41.3392
44.8832
51.2376
22.1413
19.8886
18.734
16.5356
15.3144
15.0827
14.8368
14.9053
14.8042
14.0032
12.0143
10.567
11.1546
15.1029
26.4224
42.2414
55.5559
61.3544
66.3753
73.9908
19.3672
17.6462
16.8702
15.0805
13.8661
13.5882
13.2893
13.3004
13.368
12.8985
11.4926
11.457
13.187
20.6746
35.9877
55.8171
74.9211
84.3606
90.1888
100.605
17.1208
15.7672
15.3236
13.8135
12.5597
12.0938
11.608
11.3293
11.2624
10.8259
10.508
11.7215
15.9061
26.2272
41.8043
61.7138
84.479
104.423
115.11
122.284
14.533
13.8255
13.6422
12.1926
10.7748
10.0823
9.38238
8.82425
8.72607
8.85507
9.98973
12.7035
19.296
30.0266
45.2788
66.6374
90.2078
114.96
11.7661
0.0488216
11.8687
11.4517
11.6012
10.3907
9.34183
8.78582
8.30844
8.18603
8.38251
9.14156
11.3486
16.3921
24.5795
35.4554
51.4655
74.0912
100.498
121.98
0.0485187
6.50939e-15
52.9953
60.032
64.7765
68.7441
73.2926
76.4023
79.149
78.8099
72.1706
62.6669
52.9191
44.2312
37.2021
31.6507
27.1913
23.507
20.4134
17.9041
15.0099
12.3234
59.986
68.6232
74.0804
78.6199
84.6696
89.9862
94.6682
91.9408
75.9082
60.4168
47.5007
38.6358
32.4981
27.8831
24.1932
21.1382
18.5563
16.4041
14.2464
11.8115
64.66
74.0247
79.6921
83.36
89.4229
97.9429
104.71
99.7746
72.9713
49
37.9805
32.2414
28.3668
25.2067
22.4336
19.9664
17.7884
16.0009
14.0813
11.9404
68.464
78.4734
83.4297
82.2452
85.1698
98.3546
111.634
115.33
75.8719
28.9374
26.661
25.0448
23.3263
21.4667
19.548
17.6719
15.9495
14.4677
12.5984
10.7198
72.8968
84.1032
88.6847
84.3776
21.4384
17.6622
19.7331
20.8508
20.5311
19.4315
17.774
16.0045
14.414
12.9954
11.0418
9.64628
76.0155
89.2139
96.6236
95.9829
17.1173
17.4518
18.1138
19.014
19.0057
18.429
17.134
15.4796
13.8474
12.2697
10.1542
9.05156
78.7737
93.9252
103.587
109.77
17.0736
17.1229
17.4418
17.9246
17.9141
17.5105
16.4428
14.8787
13.2053
11.4908
9.27617
8.52495
78.5608
91.2722
98.577
114.464
16.2199
16.0713
16.4072
16.9908
17.1647
16.9802
16.2577
14.891
13.1292
11.0548
8.66515
8.37646
71.7523
75.0959
71.0175
72.7066
20.9772
17.4915
17.7263
16.9588
7.20514
9.82238
12.2064
14.1904
15.6313
15.9205
15.6626
14.7448
13.1266
10.8139
8.56097
8.56683
62.3144
59.5896
47.7994
28.1981
18.0346
18.0331
17.762
16.6763
10.5338
7.31891
8.21532
10.4259
12.8425
14.1943
14.2639
13.8119
12.4844
10.3093
8.892
9.56687
52.6166
46.9116
37.3324
26.2335
19.9803
18.6627
17.9826
16.998
13.0302
8.57796
7.62399
8.30461
9.86107
11.2839
11.778
11.7211
11.3809
10.5217
10.443
12.4033
43.9875
38.2543
31.8629
24.7436
20.8856
19.395
18.3352
17.5251
14.969
11.0869
8.54229
7.68889
7.84622
8.44175
9.60485
11.1202
11.8188
12.3418
13.9151
18.3651
37.017
32.2318
28.112
23.0919
20.5301
19.3128
18.2778
17.5688
16.2356
13.5637
10.4271
8.01293
7.77469
8.35998
9.9331
12.0673
14.4548
17.8733
21.5957
27.076
31.5048
27.6792
25.0102
21.2636
19.3877
18.6119
17.7835
17.3163
16.3415
14.76
11.9459
8.79555
8.51241
9.47538