/*--------------------------------*- C++ -*----------------------------------*\
  =========                 |
  \\      /  F ield         | OpenFOAM: The Open Source CFD Toolbox
   \\    /   O peration     | Website:  https://openfoam.org
    \\  /    A nd           | Version:  9
     \\/     M anipulation  |
\*---------------------------------------------------------------------------*/
FoamFile
{
    format      ascii;
    class       volScalarField;
    location    "0.002";
    object      rhoE;
}
// * * * * * * * * * * * * * * * * * * * * * * * * * * * * * * * * * * * * * //

dimensions      [1 -1 -2 0 0 0 0];

internalField   nonuniform List<scalar> 
9720
(
2.3943e+08
2.56143e+08
2.7352e+08
2.86706e+08
3.11375e+08
3.29202e+08
3.52832e+08
3.65956e+08
3.51416e+08
3.16773e+08
2.77163e+08
2.41315e+08
2.1312e+08
1.9177e+08
1.74956e+08
1.60778e+08
1.47989e+08
1.36418e+08
1.19769e+08
9.58192e+07
2.55995e+08
2.76986e+08
2.95512e+08
3.10425e+08
3.41476e+08
3.71093e+08
4.05905e+08
4.12358e+08
3.53263e+08
2.86641e+08
2.30858e+08
1.95475e+08
1.7363e+08
1.5873e+08
1.47506e+08
1.38414e+08
1.30354e+08
1.22931e+08
1.12616e+08
9.35819e+07
2.73137e+08
2.95156e+08
3.12171e+08
3.22507e+08
3.51626e+08
3.96266e+08
4.41427e+08
4.38314e+08
3.36582e+08
2.29195e+08
1.81676e+08
1.61696e+08
1.50995e+08
1.43293e+08
1.36757e+08
1.30851e+08
1.2527e+08
1.20635e+08
1.12509e+08
9.64098e+07
2.86097e+08
3.10575e+08
3.23693e+08
3.21961e+08
3.36931e+08
3.91643e+08
4.61501e+08
5.06245e+08
3.46368e+08
1.33803e+08
1.25609e+08
1.24224e+08
1.23226e+08
1.21738e+08
1.19622e+08
1.16934e+08
1.13943e+08
1.11348e+08
1.03069e+08
8.85275e+07
3.1007e+08
3.41319e+08
3.53383e+08
3.42431e+08
9.84387e+07
7.98397e+07
9.16583e+07
1.01329e+08
1.04889e+08
1.05531e+08
1.03812e+08
1.01187e+08
9.89239e+07
9.6828e+07
8.83911e+07
7.83364e+07
3.28164e+08
3.69777e+08
3.9436e+08
3.89623e+08
8.93722e+07
9.63067e+07
9.99378e+07
1.05579e+08
1.07409e+08
1.07442e+08
1.04722e+08
1.00428e+08
9.61815e+07
9.13927e+07
8.06768e+07
7.21705e+07
3.51199e+08
4.03499e+08
4.37938e+08
4.57431e+08
1.0686e+08
1.08769e+08
1.09624e+08
1.11596e+08
1.11567e+08
1.09957e+08
1.05723e+08
9.95636e+07
9.32937e+07
8.60276e+07
7.33606e+07
6.69461e+07
3.64205e+08
4.08797e+08
4.32484e+08
4.98619e+08
1.11789e+08
1.1363e+08
1.15768e+08
1.18655e+08
1.18422e+08
1.16937e+08
1.12543e+08
1.05071e+08
9.60321e+07
8.41183e+07
6.90385e+07
6.58488e+07
3.48867e+08
3.49414e+08
3.296e+08
3.29386e+08
9.40528e+07
9.30445e+07
1.09868e+08
1.14543e+08
5.73133e+07
7.10102e+07
9.11723e+07
1.07063e+08
1.17603e+08
1.19117e+08
1.17136e+08
1.11098e+08
1.01163e+08
8.57567e+07
7.08239e+07
6.90136e+07
3.14542e+08
2.83177e+08
2.25754e+08
1.3333e+08
8.25516e+07
9.92622e+07
1.11874e+08
1.1661e+08
7.76261e+07
5.12503e+07
6.03848e+07
7.88194e+07
9.90811e+07
1.10643e+08
1.12072e+08
1.10059e+08
1.01892e+08
8.6593e+07
7.81637e+07
7.83678e+07
2.75355e+08
2.28659e+08
1.80388e+08
1.2614e+08
9.41939e+07
1.02838e+08
1.1245e+08
1.1853e+08
9.8689e+07
6.45573e+07
5.6254e+07
6.18355e+07
7.4719e+07
8.76518e+07
9.38997e+07
9.62695e+07
9.6784e+07
9.24561e+07
9.31402e+07
9.50729e+07
2.39982e+08
1.94194e+08
1.61135e+08
1.24532e+08
1.02756e+08
1.07899e+08
1.1398e+08
1.20918e+08
1.13608e+08
8.56893e+07
6.46857e+07
5.6165e+07
5.77089e+07
6.44351e+07
7.59371e+07
9.03687e+07
9.76131e+07
1.01081e+08
1.10059e+08
1.16169e+08
2.12236e+08
1.72813e+08
1.50584e+08
1.2313e+08
1.05968e+08
1.09372e+08
1.13799e+08
1.20266e+08
1.21753e+08
1.0617e+08
8.08378e+07
5.95378e+07
5.81258e+07
6.39806e+07
7.40598e+07
8.64564e+07
1.0064e+08
1.18861e+08
1.29571e+08
1.26894e+08
1.91224e+08
1.58191e+08
1.42928e+08
1.21347e+08
1.06186e+08
1.08731e+08
1.12006e+08
1.18476e+08
1.21471e+08
1.15201e+08
9.40729e+07
6.76901e+07
6.50287e+07
6.75006e+07
7.78735e+07
9.46653e+07
1.15526e+08
1.28172e+08
1.30284e+08
1.23091e+08
1.74634e+08
1.47155e+08
1.36464e+08
1.19145e+08
1.04006e+08
1.0528e+08
1.07618e+08
1.13643e+08
1.18914e+08
1.15606e+08
9.96188e+07
8.01356e+07
7.68082e+07
7.91307e+07
8.81738e+07
9.50961e+07
1.04358e+08
1.10232e+08
1.17326e+08
1.12951e+08
1.60609e+08
1.38198e+08
1.30647e+08
1.16522e+08
1.01123e+08
1.00572e+08
1.01433e+08
1.05969e+08
1.12115e+08
1.12467e+08
1.00376e+08
9.44565e+07
8.97978e+07
9.7222e+07
9.70485e+07
8.25342e+07
8.40234e+07
9.41702e+07
1.06095e+08
9.44996e+07
1.47954e+08
1.30253e+08
1.25142e+08
1.13611e+08
9.87963e+07
9.62569e+07
9.4988e+07
9.68328e+07
1.01861e+08
1.03284e+08
9.92641e+07
1.00419e+08
1.03614e+08
1.18964e+08
1.07462e+08
8.51526e+07
9.20899e+07
9.84762e+07
9.55739e+07
6.59222e+07
1.36508e+08
1.22936e+08
1.20517e+08
1.1101e+08
9.66853e+07
9.14904e+07
8.72991e+07
8.49926e+07
8.63724e+07
8.71665e+07
9.32231e+07
1.02408e+08
1.21179e+08
1.31736e+08
1.1353e+08
9.55335e+07
9.87957e+07
9.49691e+07
6.79099e+07
1.65083e+07
1.19985e+08
1.12699e+08
1.12364e+08
1.02697e+08
8.82297e+07
8.07504e+07
7.40933e+07
6.96356e+07
7.10037e+07
7.80256e+07
9.30564e+07
1.10383e+08
1.31528e+08
1.33386e+08
1.20054e+08
1.07091e+08
9.60068e+07
6.80935e+07
1.43898e+07
576310
9.60434e+07
9.37316e+07
9.63861e+07
8.83011e+07
7.82113e+07
7.21451e+07
6.71047e+07
6.59933e+07
6.90238e+07
7.81146e+07
9.45987e+07
1.1616e+08
1.28011e+08
1.24836e+08
1.13988e+08
9.49015e+07
6.63316e+07
1.65654e+07
577341
306302
2.33042e+08
2.47318e+08
2.63237e+08
2.7619e+08
2.99886e+08
3.16435e+08
3.37893e+08
3.48155e+08
3.29029e+08
2.94745e+08
2.56368e+08
2.2259e+08
1.96778e+08
1.77957e+08
1.63647e+08
1.51855e+08
1.41442e+08
1.32124e+08
1.1827e+08
9.59841e+07
2.47083e+08
2.6415e+08
2.80792e+08
2.95077e+08
3.25234e+08
3.54538e+08
3.86467e+08
3.87641e+08
3.26339e+08
2.59793e+08
2.08247e+08
1.76707e+08
1.58018e+08
1.45795e+08
1.36982e+08
1.30054e+08
1.24208e+08
1.18978e+08
1.10737e+08
9.36257e+07
2.62674e+08
2.80286e+08
2.95713e+08
3.04644e+08
3.33786e+08
3.78987e+08
4.21218e+08
4.11569e+08
3.09098e+08
2.07772e+08
1.64491e+08
1.47071e+08
1.38314e+08
1.32435e+08
1.27761e+08
1.23665e+08
1.19855e+08
1.16912e+08
1.10749e+08
9.66895e+07
2.75198e+08
2.94811e+08
3.06066e+08
3.14256e+08
3.22546e+08
3.79635e+08
4.50383e+08
4.83326e+08
3.26457e+08
1.21365e+08
1.1459e+08
1.14342e+08
1.14026e+08
1.13127e+08
1.11777e+08
1.1003e+08
1.08229e+08
1.06945e+08
1.00729e+08
8.81236e+07
2.98295e+08
3.2363e+08
3.32847e+08
3.2556e+08
9.17808e+07
7.67736e+07
8.5699e+07
9.60535e+07
9.99192e+07
1.01198e+08
9.98256e+07
9.73688e+07
9.5404e+07
9.3871e+07
8.67087e+07
7.7684e+07
3.14503e+08
3.51553e+08
3.75029e+08
3.75666e+08
8.84458e+07
9.48151e+07
9.6039e+07
1.00702e+08
1.03311e+08
1.04297e+08
1.02701e+08
9.91719e+07
9.53293e+07
9.0921e+07
8.06984e+07
7.16825e+07
3.36147e+08
3.83445e+08
4.16944e+08
4.43847e+08
1.04546e+08
1.08409e+08
1.07447e+08
1.07905e+08
1.087e+08
1.08388e+08
1.05889e+08
1.00989e+08
9.5073e+07
8.79207e+07
7.49244e+07
6.67407e+07
3.46954e+08
3.85752e+08
4.08838e+08
4.78723e+08
1.11142e+08
1.14321e+08
1.14748e+08
1.15957e+08
1.1652e+08
1.15662e+08
1.1273e+08
1.06705e+08
9.83343e+07
8.71719e+07
7.07267e+07
6.53852e+07
3.2842e+08
3.2497e+08
3.05481e+08
3.16732e+08
8.94714e+07
8.80707e+07
1.06646e+08
1.15124e+08
5.39631e+07
6.86917e+07
8.87702e+07
1.04035e+08
1.14599e+08
1.17608e+08
1.16362e+08
1.11822e+08
1.0308e+08
8.93135e+07
7.17562e+07
6.82133e+07
2.9444e+08
2.58101e+08
2.05274e+08
1.1954e+08
7.48154e+07
9.29631e+07
1.08342e+08
1.15822e+08
7.4094e+07
4.63313e+07
5.5654e+07
7.44902e+07
9.47556e+07
1.07884e+08
1.10479e+08
1.09392e+08
1.03176e+08
8.90113e+07
7.63697e+07
7.61915e+07
2.56025e+08
2.06668e+08
1.62457e+08
1.12652e+08
8.3829e+07
9.45405e+07
1.07662e+08
1.16027e+08
9.4691e+07
5.87017e+07
5.10267e+07
5.70816e+07
7.0133e+07
8.4644e+07
9.24341e+07
9.43549e+07
9.38366e+07
8.95896e+07
8.88097e+07
9.11291e+07
2.22185e+08
1.75266e+08
1.45177e+08
1.12253e+08
9.40549e+07
9.94059e+07
1.08207e+08
1.17069e+08
1.0873e+08
7.96666e+07
5.93558e+07
5.15349e+07
5.25969e+07
5.88651e+07
6.84573e+07
8.16814e+07
9.23402e+07
9.63315e+07
1.03778e+08
1.12295e+08
1.96352e+08
1.56718e+08
1.3656e+08
1.11968e+08
9.78319e+07
1.01918e+08
1.08664e+08
1.16964e+08
1.17652e+08
1.00426e+08
7.52628e+07
5.45731e+07
5.03703e+07
5.51387e+07
6.58674e+07
7.9343e+07
9.26681e+07
1.09619e+08
1.24557e+08
1.28431e+08
1.77524e+08
1.44621e+08
1.30798e+08
1.11171e+08
9.90606e+07
1.02777e+08
1.08127e+08
1.15927e+08
1.19547e+08
1.12319e+08
9.03978e+07
6.24636e+07
5.59952e+07
5.92833e+07
6.85302e+07
8.54346e+07
1.08062e+08
1.26694e+08
1.32677e+08
1.29088e+08
1.63194e+08
1.35894e+08
1.2625e+08
1.10002e+08
9.78033e+07
1.01039e+08
1.05447e+08
1.12755e+08
1.18041e+08
1.1392e+08
9.76113e+07
7.26774e+07
6.86743e+07
7.00079e+07
8.14668e+07
9.38704e+07
1.08785e+08
1.17774e+08
1.23719e+08
1.20091e+08
1.51375e+08
1.29026e+08
1.22337e+08
1.08563e+08
9.56384e+07
9.75298e+07
1.00633e+08
1.06612e+08
1.12936e+08
1.12293e+08
9.86192e+07
8.63223e+07
8.3287e+07
8.86715e+07
9.53816e+07
8.86066e+07
8.90739e+07
9.77025e+07
1.11406e+08
1.02907e+08
1.40972e+08
1.23266e+08
1.18766e+08
1.07141e+08
9.40252e+07
9.39296e+07
9.47597e+07
9.8113e+07
1.0362e+08
1.0503e+08
9.7045e+07
9.63377e+07
9.69913e+07
1.12486e+08
1.10838e+08
8.91849e+07
8.89955e+07
9.94868e+07
9.88309e+07
7.36432e+07
1.31727e+08
1.18203e+08
1.1604e+08
1.06111e+08
9.28142e+07
8.98711e+07
8.75987e+07
8.69183e+07
8.94067e+07
8.99894e+07
9.17322e+07
9.92345e+07
1.13897e+08
1.30726e+08
1.1913e+08
9.75253e+07
9.94628e+07
9.57267e+07
7.66301e+07
2.63071e+07
1.18025e+08
1.10185e+08
1.09972e+08
1.00063e+08
8.59371e+07
7.99796e+07
7.4597e+07
7.06251e+07
7.17972e+07
7.67545e+07
9.00922e+07
1.05981e+08
1.28027e+08
1.35156e+08
1.24368e+08
1.10865e+08
9.86022e+07
7.67247e+07
2.36742e+07
1.2024e+06
9.58768e+07
9.33375e+07
9.61353e+07
8.77047e+07
7.71752e+07
7.12508e+07
6.64731e+07
6.53316e+07
6.82673e+07
7.65536e+07
9.19886e+07
1.13574e+08
1.29541e+08
1.29342e+08
1.19669e+08
1.01975e+08
7.36775e+07
2.58845e+07
1.17106e+06
306785
2.30045e+08
2.43614e+08
2.58551e+08
2.70481e+08
2.9323e+08
3.0835e+08
3.27686e+08
3.35321e+08
3.1467e+08
2.81551e+08
2.44694e+08
2.12615e+08
1.88467e+08
1.71276e+08
1.58448e+08
1.47787e+08
1.38233e+08
1.29869e+08
1.17827e+08
9.7287e+07
2.43276e+08
2.57726e+08
2.71775e+08
2.8348e+08
3.12479e+08
3.41039e+08
3.70104e+08
3.67648e+08
3.07396e+08
2.43032e+08
1.95544e+08
1.6716e+08
1.5093e+08
1.40628e+08
1.33357e+08
1.2754e+08
1.22245e+08
1.17971e+08
1.11285e+08
9.5883e+07
2.57722e+08
2.7125e+08
2.82374e+08
2.87116e+08
3.17713e+08
3.61923e+08
4.01123e+08
3.87881e+08
2.84978e+08
1.91244e+08
1.53624e+08
1.39303e+08
1.32662e+08
1.28424e+08
1.24971e+08
1.21578e+08
1.17952e+08
1.15687e+08
1.11148e+08
9.94438e+07
2.68678e+08
2.81912e+08
2.86457e+08
2.8856e+08
2.97091e+08
3.57571e+08
4.26845e+08
4.52845e+08
2.96698e+08
1.11205e+08
1.0759e+08
1.08724e+08
1.09273e+08
1.09046e+08
1.08482e+08
1.07447e+08
1.05994e+08
1.05723e+08
1.0153e+08
9.12786e+07
2.90448e+08
3.08285e+08
3.12814e+08
2.92825e+08
7.86855e+07
7.32846e+07
8.17435e+07
9.38142e+07
9.87859e+07
1.01227e+08
1.00816e+08
9.86102e+07
9.63238e+07
9.52079e+07
8.93112e+07
8.06927e+07
3.05538e+08
3.36598e+08
3.55918e+08
3.49922e+08
8.5769e+07
9.12712e+07
9.33217e+07
9.86049e+07
1.04149e+08
1.0582e+08
1.05472e+08
1.02723e+08
9.88244e+07
9.47522e+07
8.55243e+07
7.52069e+07
3.25829e+08
3.66867e+08
3.96761e+08
4.19989e+08
1.04928e+08
1.06531e+08
1.06771e+08
1.08145e+08
1.10872e+08
1.1109e+08
1.09775e+08
1.05861e+08
9.9923e+07
9.30786e+07
8.0952e+07
7.01214e+07
3.34211e+08
3.66513e+08
3.87547e+08
4.52773e+08
1.13519e+08
1.13949e+08
1.1518e+08
1.1669e+08
1.18973e+08
1.18285e+08
1.16457e+08
1.11486e+08
1.03374e+08
9.28885e+07
7.64822e+07
6.75859e+07
3.14903e+08
3.07949e+08
2.86957e+08
2.97096e+08
7.81839e+07
8.14336e+07
1.03199e+08
1.11563e+08
4.76899e+07
6.79469e+07
8.87954e+07
1.04223e+08
1.15476e+08
1.20188e+08
1.19315e+08
1.15618e+08
1.07326e+08
9.46359e+07
7.64182e+07
6.98204e+07
2.82185e+08
2.43027e+08
1.90473e+08
1.08617e+08
6.84118e+07
8.91254e+07
1.05739e+08
1.1304e+08
6.84076e+07
4.32185e+07
5.30934e+07
7.22296e+07
9.3152e+07
1.08905e+08
1.12981e+08
1.12048e+08
1.06661e+08
9.41202e+07
7.77299e+07
7.69681e+07
2.45237e+08
1.94905e+08
1.51586e+08
1.04059e+08
7.68903e+07
9.08596e+07
1.05515e+08
1.14376e+08
8.99804e+07
5.4416e+07
4.75289e+07
5.38613e+07
6.83204e+07
8.51815e+07
9.46574e+07
9.62055e+07
9.48373e+07
8.92428e+07
8.69281e+07
9.02133e+07
2.12893e+08
1.66079e+08
1.36879e+08
1.05368e+08
8.92528e+07
9.60358e+07
1.06553e+08
1.15692e+08
1.05225e+08
7.45893e+07
5.5176e+07
4.94489e+07
5.1402e+07
5.8314e+07
6.68766e+07
7.75367e+07
8.87656e+07
9.36418e+07
9.99399e+07
1.1137e+08
1.88429e+08
1.4963e+08
1.30261e+08
1.06382e+08
9.51219e+07
1.01578e+08
1.08991e+08
1.17602e+08
1.15799e+08
9.53307e+07
7.07009e+07
5.26468e+07
4.68945e+07
5.00254e+07
6.04116e+07
7.4921e+07
8.78176e+07
1.02009e+08
1.20669e+08
1.34763e+08
1.70984e+08
1.39272e+08
1.26211e+08
1.06673e+08
9.8038e+07
1.03406e+08
1.09213e+08
1.16822e+08
1.20175e+08
1.10669e+08
8.81538e+07
6.09205e+07
5.07089e+07
5.41467e+07
6.25678e+07
7.88831e+07
1.01486e+08
1.2574e+08
1.40297e+08
1.43689e+08
1.5797e+08
1.32014e+08
1.22985e+08
1.06588e+08
9.81783e+07
1.03202e+08
1.07986e+08
1.1493e+08
1.19314e+08
1.14922e+08
9.80252e+07
7.01748e+07
6.24647e+07
6.39854e+07
7.65236e+07
9.59626e+07
1.17845e+08
1.3393e+08
1.3929e+08
1.32108e+08
1.47182e+08
1.26208e+08
1.19793e+08
1.05951e+08
9.63086e+07
1.00448e+08
1.0422e+08
1.1004e+08
1.15648e+08
1.14052e+08
9.95874e+07
8.13824e+07
7.85427e+07
8.22975e+07
9.75431e+07
1.0208e+08
1.05058e+08
1.09069e+08
1.16378e+08
1.07651e+08
1.37577e+08
1.20944e+08
1.16337e+08
1.04793e+08
9.42962e+07
9.66313e+07
9.85177e+07
1.0222e+08
1.07455e+08
1.0845e+08
9.81512e+07
9.33174e+07
9.24784e+07
1.06622e+08
1.20013e+08
1.0462e+08
8.81395e+07
9.48591e+07
9.8142e+07
7.97475e+07
1.29243e+08
1.16755e+08
1.14254e+08
1.04737e+08
9.34332e+07
9.27967e+07
9.18013e+07
9.21109e+07
9.49407e+07
9.56741e+07
9.26208e+07
9.78887e+07
1.07351e+08
1.30747e+08
1.35028e+08
1.07458e+08
9.48375e+07
9.32347e+07
8.16858e+07
4.05165e+07
1.17192e+08
1.1017e+08
1.09878e+08
1.00697e+08
8.7758e+07
8.38739e+07
7.97439e+07
7.61713e+07
7.68542e+07
7.90729e+07
8.9656e+07
1.03651e+08
1.25394e+08
1.43443e+08
1.39112e+08
1.14896e+08
9.78594e+07
8.17708e+07
4.01027e+07
3.92453e+06
9.66837e+07
9.49799e+07
9.83758e+07
9.05662e+07
7.93868e+07
7.38368e+07
6.91014e+07
6.74794e+07
7.01984e+07
7.81435e+07
9.2156e+07
1.13687e+08
1.36649e+08
1.43811e+08
1.30862e+08
1.06615e+08
7.9461e+07
3.99359e+07
3.79347e+06
316545
2.24169e+08
2.37238e+08
2.51221e+08
2.62418e+08
2.84704e+08
2.98915e+08
3.17953e+08
3.23923e+08
3.02196e+08
2.69071e+08
2.33241e+08
2.02669e+08
1.7982e+08
1.63508e+08
1.51318e+08
1.41339e+08
1.32548e+08
1.25458e+08
1.15925e+08
9.91504e+07
2.36828e+08
2.50435e+08
2.63314e+08
2.73863e+08
3.03199e+08
3.31848e+08
3.6085e+08
3.5667e+08
2.95357e+08
2.30823e+08
1.84879e+08
1.58752e+08
1.4448e+08
1.35423e+08
1.28698e+08
1.23065e+08
1.17685e+08
1.13657e+08
1.08325e+08
9.65124e+07
2.50492e+08
2.63458e+08
2.73561e+08
2.77236e+08
3.08356e+08
3.53027e+08
3.92289e+08
3.7752e+08
2.72402e+08
1.79885e+08
1.43688e+08
1.31379e+08
1.26739e+08
1.24113e+08
1.21607e+08
1.18528e+08
1.14552e+08
1.11903e+08
1.07375e+08
9.76204e+07
2.60411e+08
2.72752e+08
2.76374e+08
2.77948e+08
2.85151e+08
3.48096e+08
4.16902e+08
4.39743e+08
2.78954e+08
1.02844e+08
9.9891e+07
1.01901e+08
1.03624e+08
1.04636e+08
1.0518e+08
1.04966e+08
1.03597e+08
1.03321e+08
9.95655e+07
9.08451e+07
2.80854e+08
2.98245e+08
3.02926e+08
2.7832e+08
7.3551e+07
6.86636e+07
7.64938e+07
8.83056e+07
9.58523e+07
9.91773e+07
1.0016e+08
9.86688e+07
9.58385e+07
9.44009e+07
8.90483e+07
8.12629e+07
2.96245e+08
3.27477e+08
3.47097e+08
3.39435e+08
8.05098e+07
8.94042e+07
9.1079e+07
9.60678e+07
1.0321e+08
1.05417e+08
1.06074e+08
1.03763e+08
9.92951e+07
9.49209e+07
8.66705e+07
7.6969e+07
3.1579e+08
3.57276e+08
3.87416e+08
4.10245e+08
1.0022e+08
1.0439e+08
1.04458e+08
1.06348e+08
1.09766e+08
1.10318e+08
1.09469e+08
1.05776e+08
9.97546e+07
9.32585e+07
8.29968e+07
7.27308e+07
3.23161e+08
3.5545e+08
3.76088e+08
4.36264e+08
1.10079e+08
1.11128e+08
1.12557e+08
1.14234e+08
1.17586e+08
1.17305e+08
1.15982e+08
1.1161e+08
1.04085e+08
9.48072e+07
8.07072e+07
7.08652e+07
3.03207e+08
2.96698e+08
2.75553e+08
2.85938e+08
7.34439e+07
7.94151e+07
1.00257e+08
1.09323e+08
4.56956e+07
6.39781e+07
8.47548e+07
1.00878e+08
1.1278e+08
1.19145e+08
1.18832e+08
1.16014e+08
1.08707e+08
9.76632e+07
8.12084e+07
7.28328e+07
2.70932e+08
2.33123e+08
1.82227e+08
1.04864e+08
6.78394e+07
8.90606e+07
1.04367e+08
1.10567e+08
6.75069e+07
4.16911e+07
5.07007e+07
6.94494e+07
8.9854e+07
1.06776e+08
1.13401e+08
1.13165e+08
1.09096e+08
9.88604e+07
8.25187e+07
7.98429e+07
2.35225e+08
1.86818e+08
1.4473e+08
9.95885e+07
7.48588e+07
9.03913e+07
1.04072e+08
1.11606e+08
8.82091e+07
5.33606e+07
4.80221e+07
5.3128e+07
6.65595e+07
8.44795e+07
9.64865e+07
9.96779e+07
9.91149e+07
9.39264e+07
8.98979e+07
9.30487e+07
2.04209e+08
1.59776e+08
1.31441e+08
1.00859e+08
8.61634e+07
9.48239e+07
1.05344e+08
1.12809e+08
1.02881e+08
7.35144e+07
5.51196e+07
5.07999e+07
5.29085e+07
6.06314e+07
6.97517e+07
7.99903e+07
9.13919e+07
9.7278e+07
1.03484e+08
1.14263e+08
1.80748e+08
1.44685e+08
1.26179e+08
1.02333e+08
9.34308e+07
1.01201e+08
1.08366e+08
1.15561e+08
1.1344e+08
9.36521e+07
7.00838e+07
5.4311e+07
4.90808e+07
5.17005e+07
6.23427e+07
7.83183e+07
9.22719e+07
1.04488e+08
1.22324e+08
1.38166e+08
1.63931e+08
1.35083e+08
1.23162e+08
1.03342e+08
9.67608e+07
1.03234e+08
1.08973e+08
1.14994e+08
1.17872e+08
1.08721e+08
8.78743e+07
6.30784e+07
5.25384e+07
5.65084e+07
6.54325e+07
8.1361e+07
1.02446e+08
1.26167e+08
1.4394e+08
1.49835e+08
1.51385e+08
1.28051e+08
1.20443e+08
1.0397e+08
9.77479e+07
1.0364e+08
1.08267e+08
1.13648e+08
1.17087e+08
1.13493e+08
9.88777e+07
7.2527e+07
6.45085e+07
6.68743e+07
7.82851e+07
9.85258e+07
1.21149e+08
1.40034e+08
1.47321e+08
1.40151e+08
1.41183e+08
1.22265e+08
1.17269e+08
1.03796e+08
9.62796e+07
1.01173e+08
1.04751e+08
1.09194e+08
1.13739e+08
1.12771e+08
1.00851e+08
8.29763e+07
8.15289e+07
8.45408e+07
1.00363e+08
1.08835e+08
1.14271e+08
1.17346e+08
1.21287e+08
1.11708e+08
1.32284e+08
1.16818e+08
1.13243e+08
1.02386e+08
9.35826e+07
9.67335e+07
9.87117e+07
1.01732e+08
1.06533e+08
1.08244e+08
9.99866e+07
9.45528e+07
9.57297e+07
1.068e+08
1.23943e+08
1.14387e+08
9.03122e+07
9.22229e+07
9.72754e+07
8.43861e+07
1.25167e+08
1.12792e+08
1.10594e+08
1.02089e+08
9.23716e+07
9.25491e+07
9.20626e+07
9.27597e+07
9.58766e+07
9.78345e+07
9.46638e+07
9.92413e+07
1.07786e+08
1.30342e+08
1.42185e+08
1.1656e+08
9.20658e+07
9.14058e+07
8.47093e+07
5.18679e+07
1.15718e+08
1.07586e+08
1.06179e+08
9.83962e+07
8.73437e+07
8.46552e+07
8.16749e+07
7.91908e+07
7.99875e+07
8.17926e+07
9.00718e+07
1.04492e+08
1.2471e+08
1.46679e+08
1.48356e+08
1.20493e+08
9.71723e+07
8.46498e+07
5.36338e+07
9.08125e+06
9.90201e+07
9.60556e+07
9.67585e+07
8.9858e+07
7.99535e+07
7.55198e+07
7.15258e+07
6.98514e+07
7.20441e+07
7.92427e+07
9.2822e+07
1.14328e+08
1.38836e+08
1.50498e+08
1.40074e+08
1.11189e+08
8.40854e+07
5.13334e+07
8.85303e+06
388703
2.20189e+08
2.34079e+08
2.48424e+08
2.59303e+08
2.80713e+08
2.95498e+08
3.1442e+08
3.20002e+08
2.9757e+08
2.64381e+08
2.28494e+08
1.9773e+08
1.74841e+08
1.58664e+08
1.46911e+08
1.3776e+08
1.29958e+08
1.2405e+08
1.16608e+08
1.02261e+08
2.33587e+08
2.4816e+08
2.61536e+08
2.71001e+08
2.9925e+08
3.28456e+08
3.57461e+08
3.52659e+08
2.9107e+08
2.26905e+08
1.81302e+08
1.55204e+08
1.40945e+08
1.31874e+08
1.25234e+08
1.20084e+08
1.15571e+08
1.12467e+08
1.0884e+08
9.98731e+07
2.47202e+08
2.60586e+08
2.70744e+08
2.73241e+08
3.03977e+08
3.48578e+08
3.87902e+08
3.72549e+08
2.66496e+08
1.7526e+08
1.39894e+08
1.28034e+08
1.23723e+08
1.2114e+08
1.18587e+08
1.1575e+08
1.12475e+08
1.10601e+08
1.07729e+08
1.01068e+08
2.57246e+08
2.69428e+08
2.72723e+08
2.72404e+08
2.77095e+08
3.41154e+08
4.10887e+08
4.33025e+08
2.74518e+08
9.9693e+07
9.67563e+07
9.93127e+07
1.01525e+08
1.02616e+08
1.03002e+08
1.02889e+08
1.02046e+08
1.02453e+08
1.00358e+08
9.46985e+07
2.78167e+08
2.95137e+08
2.98969e+08
2.72109e+08
7.22442e+07
6.92702e+07
7.61811e+07
8.74413e+07
9.53883e+07
9.83959e+07
9.9236e+07
9.78539e+07
9.53276e+07
9.44609e+07
9.05668e+07
8.50897e+07
2.93014e+08
3.24533e+08
3.43477e+08
3.34712e+08
8.27677e+07
9.29947e+07
9.46538e+07
9.89425e+07
1.0477e+08
1.06186e+08
1.06175e+08
1.03707e+08
9.9516e+07
9.58083e+07
8.90713e+07
8.12964e+07
3.12373e+08
3.54026e+08
3.83345e+08
4.05347e+08
1.01796e+08
1.0621e+08
1.06095e+08
1.07476e+08
1.10107e+08
1.10126e+08
1.09101e+08
1.05894e+08
1.00668e+08
9.49978e+07
8.62462e+07
7.74953e+07
3.19174e+08
3.5122e+08
3.70531e+08
4.29136e+08
1.08807e+08
1.1096e+08
1.1211e+08
1.13368e+08
1.16174e+08
1.1656e+08
1.15559e+08
1.12211e+08
1.0581e+08
9.77088e+07
8.53806e+07
7.63892e+07
2.98507e+08
2.92045e+08
2.68117e+08
2.75902e+08
7.17522e+07
8.24989e+07
1.01731e+08
1.07977e+08
4.34647e+07
6.12449e+07
8.21759e+07
9.90001e+07
1.10875e+08
1.18405e+08
1.19541e+08
1.17576e+08
1.11674e+08
1.01991e+08
8.74502e+07
7.89479e+07
2.66288e+08
2.29457e+08
1.78147e+08
1.01805e+08
6.91799e+07
9.20123e+07
1.04931e+08
1.08821e+08
6.44752e+07
3.98771e+07
4.8571e+07
6.73952e+07
8.82629e+07
1.06684e+08
1.1565e+08
1.16204e+08
1.13253e+08
1.0465e+08
8.983e+07
8.6518e+07
2.30762e+08
1.83994e+08
1.42463e+08
9.84447e+07
7.63788e+07
9.38527e+07
1.04923e+08
1.10007e+08
8.52634e+07
5.08176e+07
4.83989e+07
5.26052e+07
6.6257e+07
8.59838e+07
9.99382e+07
1.04666e+08
1.05012e+08
1.01329e+08
9.75402e+07
9.97586e+07
1.99875e+08
1.57349e+08
1.29795e+08
1.00289e+08
8.77181e+07
9.81962e+07
1.06246e+08
1.11262e+08
1.00178e+08
7.03312e+07
5.40402e+07
5.25173e+07
5.55185e+07
6.44871e+07
7.47546e+07
8.59655e+07
9.82625e+07
1.04603e+08
1.10559e+08
1.1947e+08
1.76594e+08
1.42412e+08
1.24757e+08
1.01885e+08
9.46999e+07
1.03615e+08
1.08809e+08
1.14046e+08
1.10801e+08
9.06988e+07
6.87129e+07
5.6638e+07
5.31925e+07
5.61685e+07
6.70659e+07
8.38521e+07
9.86809e+07
1.10601e+08
1.27541e+08
1.414e+08
1.60009e+08
1.32772e+08
1.21622e+08
1.02602e+08
9.74757e+07
1.04824e+08
1.08974e+08
1.13984e+08
1.16932e+08
1.07738e+08
8.82345e+07
6.59431e+07
5.66725e+07
6.08058e+07
6.99142e+07
8.59703e+07
1.06805e+08
1.29575e+08
1.47194e+08
1.51157e+08
1.47924e+08
1.25753e+08
1.18689e+08
1.02792e+08
9.80406e+07
1.04453e+08
1.08065e+08
1.13015e+08
1.17e+08
1.14814e+08
1.00828e+08
7.59565e+07
6.8208e+07
7.06168e+07
8.17822e+07
1.02238e+08
1.23945e+08
1.41974e+08
1.48217e+08
1.40087e+08
1.38524e+08
1.20371e+08
1.15635e+08
1.02581e+08
9.64717e+07
1.0168e+08
1.04875e+08
1.09596e+08
1.1486e+08
1.14816e+08
1.04322e+08
8.71256e+07
8.53405e+07
8.76803e+07
1.03453e+08
1.11273e+08
1.15803e+08
1.17211e+08
1.19749e+08
1.10927e+08
1.30514e+08
1.15699e+08
1.1224e+08
1.01652e+08
9.38907e+07
9.73838e+07
9.95579e+07
1.03314e+08
1.08906e+08
1.11277e+08
1.0428e+08
9.92392e+07
1.00174e+08
1.09412e+08
1.26312e+08
1.16342e+08
8.80218e+07
8.85637e+07
9.49923e+07
8.52621e+07
1.24439e+08
1.12476e+08
1.10286e+08
1.02005e+08
9.31621e+07
9.38281e+07
9.38685e+07
9.55202e+07
9.94849e+07
1.02457e+08
1.00313e+08
1.04558e+08
1.12152e+08
1.32457e+08
1.44404e+08
1.17449e+08
8.85969e+07
8.91591e+07
8.49825e+07
5.6806e+07
1.16995e+08
1.0889e+08
1.07488e+08
9.99853e+07
8.95938e+07
8.74816e+07
8.52126e+07
8.36794e+07
8.54288e+07
8.78597e+07
9.60892e+07
1.10137e+08
1.28845e+08
1.49691e+08
1.50234e+08
1.19931e+08
9.5143e+07
8.49609e+07
5.93657e+07
1.27881e+07
1.02613e+08
1.00034e+08
1.01015e+08
9.44837e+07
8.44799e+07
8.02551e+07
7.65329e+07
7.51666e+07
7.75401e+07
8.49424e+07
9.84574e+07
1.19058e+08
1.42305e+08
1.5287e+08
1.4137e+08
1.11126e+08
8.51298e+07
5.63597e+07
1.2519e+07
501030
2.20207e+08
2.33967e+08
2.48109e+08
2.58841e+08
2.80437e+08
2.95319e+08
3.14312e+08
3.199e+08
2.97638e+08
2.6449e+08
2.28592e+08
1.97812e+08
1.74922e+08
1.58751e+08
1.46995e+08
1.37829e+08
1.30005e+08
1.24085e+08
1.16653e+08
1.02316e+08
2.33732e+08
2.48183e+08
2.6121e+08
2.6991e+08
2.98425e+08
3.28312e+08
3.57408e+08
3.524e+08
2.91173e+08
2.27357e+08
1.81678e+08
1.55417e+08
1.41033e+08
1.31903e+08
1.25246e+08
1.20082e+08
1.15551e+08
1.12433e+08
1.08819e+08
9.98922e+07
2.47538e+08
2.60958e+08
2.70786e+08
2.71682e+08
3.02671e+08
3.48703e+08
3.88135e+08
3.7203e+08
2.66851e+08
1.76274e+08
1.40624e+08
1.28352e+08
1.23753e+08
1.21029e+08
1.18442e+08
1.15599e+08
1.12313e+08
1.10428e+08
1.07561e+08
1.00973e+08
2.57618e+08
2.7015e+08
2.73942e+08
2.71056e+08
2.73557e+08
3.39367e+08
4.09801e+08
4.29003e+08
2.72165e+08
1.00733e+08
9.76741e+07
9.9761e+07
1.01539e+08
1.02386e+08
1.02702e+08
1.02582e+08
1.01734e+08
1.02134e+08
1.00049e+08
9.44813e+07
2.78252e+08
2.95468e+08
2.99588e+08
2.68574e+08
6.88815e+07
6.93497e+07
7.65488e+07
8.79564e+07
9.54177e+07
9.82468e+07
9.89127e+07
9.74304e+07
9.48727e+07
9.40352e+07
9.01877e+07
8.48287e+07
2.93161e+08
3.24656e+08
3.4335e+08
3.32462e+08
8.48825e+07
9.30652e+07
9.45747e+07
9.86491e+07
1.04405e+08
1.05782e+08
1.05728e+08
1.03229e+08
9.90424e+07
9.53946e+07
8.8731e+07
8.1065e+07
3.12481e+08
3.53997e+08
3.83146e+08
4.02775e+08
1.05651e+08
1.06497e+08
1.06167e+08
1.07187e+08
1.09692e+08
1.0982e+08
1.08909e+08
1.05819e+08
1.00653e+08
9.49924e+07
8.62112e+07
7.7345e+07
3.18762e+08
3.50643e+08
3.69894e+08
4.26881e+08
1.11638e+08
1.11273e+08
1.12069e+08
1.1309e+08
1.15875e+08
1.16166e+08
1.15188e+08
1.11859e+08
1.05502e+08
9.74597e+07
8.51103e+07
7.60833e+07
2.98025e+08
2.91652e+08
2.68428e+08
2.77986e+08
6.92783e+07
8.3566e+07
1.03332e+08
1.0814e+08
4.27663e+07
6.25405e+07
8.34988e+07
9.98075e+07
1.11365e+08
1.18547e+08
1.19234e+08
1.17197e+08
1.11296e+08
1.01602e+08
8.69842e+07
7.85034e+07
2.65862e+08
2.28854e+08
1.77742e+08
1.00997e+08
6.83201e+07
9.22124e+07
1.05402e+08
1.09437e+08
6.3748e+07
3.98415e+07
4.93012e+07
6.84903e+07
8.94427e+07
1.07601e+08
1.15943e+08
1.16278e+08
1.13071e+08
1.0427e+08
8.92777e+07
8.59896e+07
2.30452e+08
1.83521e+08
1.42135e+08
9.83741e+07
7.59348e+07
9.37725e+07
1.05125e+08
1.10321e+08
8.45777e+07
5.02015e+07
4.84732e+07
5.31857e+07
6.72946e+07
8.71701e+07
1.00868e+08
1.05093e+08
1.05236e+08
1.01247e+08
9.70702e+07
9.9279e+07
1.99719e+08
1.57178e+08
1.2978e+08
1.00636e+08
8.77687e+07
9.8065e+07
1.06184e+08
1.11363e+08
9.98003e+07
6.96236e+07
5.37583e+07
5.27173e+07
5.61974e+07
6.54375e+07
7.57089e+07
8.67032e+07
9.8743e+07
1.04654e+08
1.10349e+08
1.19106e+08
1.76556e+08
1.42477e+08
1.24936e+08
1.0242e+08
9.52933e+07
1.04021e+08
1.08812e+08
1.14129e+08
1.10552e+08
9.00574e+07
6.81388e+07
5.65343e+07
5.34971e+07
5.65553e+07
6.75908e+07
8.44854e+07
9.91932e+07
1.10957e+08
1.27705e+08
1.4124e+08
1.60053e+08
1.32967e+08
1.21902e+08
1.03138e+08
9.82132e+07
1.05445e+08
1.09079e+08
1.14349e+08
1.17016e+08
1.07284e+08
8.75719e+07
6.56054e+07
5.66788e+07
6.09206e+07
7.02381e+07
8.64853e+07
1.07411e+08
1.30194e+08
1.47559e+08
1.51093e+08
1.4802e+08
1.26e+08
1.19014e+08
1.0328e+08
9.88507e+07
1.05319e+08
1.08324e+08
1.13437e+08
1.17315e+08
1.14618e+08
1.00273e+08
7.54448e+07
6.78083e+07
7.03961e+07
8.183e+07
1.02631e+08
1.24661e+08
1.4263e+08
1.48582e+08
1.40127e+08
1.38649e+08
1.20632e+08
1.15963e+08
1.03034e+08
9.72381e+07
1.02604e+08
1.05218e+08
1.10122e+08
1.15283e+08
1.14761e+08
1.03877e+08
8.63814e+07
8.46512e+07
8.71504e+07
1.03322e+08
1.11643e+08
1.16428e+08
1.17619e+08
1.19992e+08
1.10955e+08
1.30665e+08
1.15971e+08
1.12567e+08
1.02091e+08
9.45052e+07
9.81774e+07
9.98993e+07
1.0386e+08
1.09404e+08
1.1143e+08
1.03914e+08
9.84509e+07
9.9506e+07
1.0886e+08
1.26178e+08
1.16718e+08
8.84043e+07
8.87367e+07
9.51228e+07
8.53407e+07
1.24606e+08
1.12743e+08
1.10598e+08
1.02426e+08
9.36054e+07
9.4425e+07
9.41614e+07
9.60031e+07
9.99534e+07
1.02699e+08
1.00057e+08
1.04196e+08
1.11712e+08
1.3205e+08
1.4427e+08
1.17609e+08
8.87505e+07
8.9287e+07
8.51088e+07
5.69197e+07
1.17178e+08
1.09145e+08
1.07774e+08
1.00379e+08
8.98788e+07
8.7882e+07
8.54314e+07
8.40445e+07
8.58043e+07
8.81036e+07
9.62268e+07
1.10049e+08
1.28567e+08
1.49273e+08
1.49906e+08
1.19897e+08
9.52114e+07
8.50418e+07
5.94461e+07
1.28143e+07
1.02782e+08
1.00253e+08
1.01262e+08
9.48448e+07
8.46555e+07
8.04586e+07
7.66896e+07
7.54231e+07
7.78726e+07
8.53018e+07
9.86854e+07
1.19133e+08
1.42074e+08
1.52394e+08
1.4096e+08
1.10965e+08
8.50987e+07
5.63561e+07
1.25132e+07
501125
2.24224e+08
2.37163e+08
2.51096e+08
2.61899e+08
2.83809e+08
2.9873e+08
3.1773e+08
3.23803e+08
3.01957e+08
2.68803e+08
2.32918e+08
2.02348e+08
1.79626e+08
1.6347e+08
1.51391e+08
1.4147e+08
1.32706e+08
1.25623e+08
1.16071e+08
9.92672e+07
2.37007e+08
2.50451e+08
2.63371e+08
2.7268e+08
3.01844e+08
3.31752e+08
3.60802e+08
3.56392e+08
2.94976e+08
2.30623e+08
1.84659e+08
1.58452e+08
1.44203e+08
1.35251e+08
1.28626e+08
1.23042e+08
1.17667e+08
1.13634e+08
1.08297e+08
9.65158e+07
2.50704e+08
2.63379e+08
2.73498e+08
2.7508e+08
3.06777e+08
3.53349e+08
3.92781e+08
3.77074e+08
2.71407e+08
1.79548e+08
1.43508e+08
1.31116e+08
1.26437e+08
1.23842e+08
1.21395e+08
1.18329e+08
1.1431e+08
1.11613e+08
1.07024e+08
9.73431e+07
2.60831e+08
2.7332e+08
2.77656e+08
2.7439e+08
2.78211e+08
3.44747e+08
4.15236e+08
4.34962e+08
2.75105e+08
1.02814e+08
9.9797e+07
1.01659e+08
1.03294e+08
1.04276e+08
1.0481e+08
1.04553e+08
1.03103e+08
1.02754e+08
9.89225e+07
9.02706e+07
2.81424e+08
2.98738e+08
3.03426e+08
2.7188e+08
7.01596e+07
6.89564e+07
7.65006e+07
8.83991e+07
9.56674e+07
9.87898e+07
9.95474e+07
9.78635e+07
9.49424e+07
9.35084e+07
8.81389e+07
8.04638e+07
2.96441e+08
3.27654e+08
3.4695e+08
3.35558e+08
8.20533e+07
8.88886e+07
9.08556e+07
9.58684e+07
1.0293e+08
1.05014e+08
1.05472e+08
1.02967e+08
9.83886e+07
9.4011e+07
8.57769e+07
7.62035e+07
3.15513e+08
3.5668e+08
3.86482e+08
4.0615e+08
9.97896e+07
1.02971e+08
1.03507e+08
1.05745e+08
1.09607e+08
1.10283e+08
1.09566e+08
1.0594e+08
9.98264e+07
9.31603e+07
8.26435e+07
7.21478e+07
3.22644e+08
3.54293e+08
3.74227e+08
4.30338e+08
1.07028e+08
1.09835e+08
1.11371e+08
1.13248e+08
1.1684e+08
1.16621e+08
1.15371e+08
1.11064e+08
1.03622e+08
9.44001e+07
8.02302e+07
7.02536e+07
3.0207e+08
2.94915e+08
2.72063e+08
2.77833e+08
7.05037e+07
8.29131e+07
1.02256e+08
1.09878e+08
4.39823e+07
6.53466e+07
8.63354e+07
1.01868e+08
1.13274e+08
1.18789e+08
1.18273e+08
1.15308e+08
1.08147e+08
9.71786e+07
8.06386e+07
7.21916e+07
2.6972e+08
2.31448e+08