/*--------------------------------*- C++ -*----------------------------------*\
  =========                 |
  \\      /  F ield         | OpenFOAM: The Open Source CFD Toolbox
   \\    /   O peration     | Website:  https://openfoam.org
    \\  /    A nd           | Version:  9
     \\/     M anipulation  |
\*---------------------------------------------------------------------------*/
FoamFile
{
    format      ascii;
    class       volVectorField;
    location    "0.002";
    object      rhoU;
}
// * * * * * * * * * * * * * * * * * * * * * * * * * * * * * * * * * * * * * //

dimensions      [1 -2 -1 0 0 0 0];

internalField   nonuniform List<vector> 
9720
(
(-67946.4 -67921 -14651.9)
(-55710.6 -80163 -19334.8)
(-46244.5 -89523.6 -21589.6)
(-32987.1 -97134.3 -24074.7)
(-16560.9 -109593 -25582.6)
(4445.09 -116593 -28215.1)
(27856.9 -123476 -30400.5)
(49836.4 -125058 -31535.9)
(72251.7 -113919 -29220.8)
(83990.9 -93956.3 -25366.4)
(86673.4 -73597.7 -21238.2)
(84041.9 -56865.4 -17417.3)
(79475.1 -44572.1 -14269.3)
(74515.3 -35796.9 -11772.5)
(69530.5 -29330 -9799.23)
(64487.4 -24378.2 -8207.25)
(59382.6 -20316.9 -6734.2)
(54548.3 -16467.7 -5325.46)
(47085.4 -14022.9 -4619.86)
(37324.8 -10221.7 -3198.25)
(-80158.6 -55635.5 -19339)
(-68237.8 -68250.2 -25294.1)
(-58282 -78304.5 -27175.8)
(-43886.4 -87868.6 -29305)
(-26026.1 -104770 -31901.6)
(-185.207 -117370 -34753.4)
(30718.8 -127401 -38492.2)
(59329.8 -127205 -38952.7)
(85300.2 -99026.1 -32653.1)
(91201.3 -66134.3 -26330.8)
(85957.4 -41376.7 -20878.7)
(79244.3 -27215.3 -16961.6)
(73580.4 -19553.1 -14070)
(68704.5 -15152.1 -11802.9)
(64284.1 -12358.6 -9942.24)
(60126.9 -10422.6 -8462.52)
(56066.2 -8919.87 -7154.53)
(52172.9 -7413.58 -5467.25)
(46971.3 -6496.86 -4962.68)
(38345.1 -4942.62 -3659.27)
(-89416.7 -46151.5 -21549.2)
(-78055.8 -58391.3 -27078.5)
(-68057.8 -68591.2 -26866.8)
(-53511.4 -78919.4 -27392.1)
(-35000.4 -98124.6 -31750.1)
(-5575.98 -116722 -35584.6)
(31378.5 -129018 -40541.1)
(65789.2 -125251 -39411.2)
(94379 -81539.4 -28558.4)
(84451 -37014.5 -18742.1)
(74527.5 -18194.3 -14337)
(69568.3 -10486.7 -12411.9)
(66442.5 -6967.74 -11127.4)
(63634.1 -5114.22 -9952.77)
(60730.4 -4044.61 -8760.8)
(57679.1 -3397.45 -7654.14)
(54517.9 -2941.56 -6629.21)
(51639.4 -2384.1 -5296.56)
(47258.2 -2255.6 -4807.37)
(39678.2 -1800.3 -3519.6)
(-96905.8 -32871.9 -23887.8)
(-87721 -44001.1 -28843.1)
(-78669.3 -54330.6 -26423.7)
(-67133.9 -67949.4 -27189.5)
(-51018.5 -85238.8 -31211.1)
(-18523.2 -106892 -37193.7)
(21804.1 -124497 -43736.6)
(62378.4 -131397 -48310.6)
(97402.8 -75260.5 -31177.7)
(57917.9 -5834.91 -11179)
(55706.6 245.046 -9210.89)
(55749.3 2601.49 -8425.51)
(55611.1 3402.79 -8199.25)
(54915.5 3619.14 -8050.03)
(53599.7 3586.26 -7762.22)
(51736.4 3397.51 -7387.31)
(49586.3 3181.74 -6707.04)
(47494.1 2932.48 -5578.68)
(43019.9 2568.82 -5421.92)
(36218.7 1808.5 -4201.56)
(-109086 -16494.8 -25346.4)
(-104590 -25925.4 -31295.7)
(-98421.6 -35108.9 -30525.2)
(-86780.2 -50989.3 -28010)
(44030.3 -1190.62 -10228.4)
(36848.7 5681.2 -6287.97)
(41345.3 8482.01 -6895.74)
(45346.3 10146.5 -7376.28)
(46949.8 10226.8 -7545.86)
(47347.8 9498.36 -7573.56)
(46507.8 8499.76 -7383.04)
(44950.4 7616.76 -6889.12)
(43293.3 6889.92 -5994.06)
(41452.3 6158.89 -5216.18)
(36834.9 5571.48 -5114.89)
(31957 4253.35 -3955.13)
(-116210 4341.57 -28308.4)
(-116883 -314.711 -34843.2)
(-116082 -5771.82 -35548.5)
(-106609 -18507.8 -36286.3)
(40418.8 9953.27 -6545.98)
(42856.2 11635.8 -6203.59)
(44175.2 12373.9 -6460.43)
(46307.6 13406 -6809.43)
(46945.2 13737.6 -6897.68)
(46903.7 13425.3 -6897.26)
(45658.6 12469.9 -6743.86)
(43565.4 11258.5 -6302.94)
(41285.5 10000.8 -5507.82)
(38527.7 8771.62 -4916.36)
(33175 7642.42 -4712.17)
(29165.9 6017.89 -3651.04)
(-122865 27644 -30582.1)
(-126656 30362.9 -38631.7)
(-128192 30704.7 -40584.7)
(-123845 20590.7 -43808.1)
(45745.8 16063.1 -6377.33)
(45840.1 16956.8 -5885.54)
(46207.3 17187.6 -5963.15)
(46823.5 17941.2 -6072.53)
(46740.1 18037.8 -6052.78)
(46066.7 17622.9 -5968.56)
(44342 16436.1 -5794.95)
(41720.3 14725.7 -5420.36)
(38841.6 12906.9 -4800.2)
(35307.9 11122.5 -4411.72)
(29485 9228.04 -4221.57)
(26581.2 7411.36 -3337.64)
(-124518 49587.1 -31527.2)
(-126143 59024.3 -38901.1)
(-123686 65412.5 -39483.9)
(-129962 61421.4 -47947.3)
(45456.2 20221.6 -5569.47)
(45381.6 20245.8 -5056.21)
(46273.2 20498.1 -5169.97)
(47376 21141.2 -5409.19)
(47169.7 21522.7 -5539.81)
(46562.5 21314.3 -5493.6)
(44852.3 20357.7 -5362.02)
(41883.2 18577.8 -5091.01)
(38165.7 16237.7 -4585.21)
(33143.2 13478.7 -4258.98)
(26817.4 10626.8 -3932.17)
(25466.9 8784.46 -3138.55)
(-113026 71913.4 -29371.5)
(-97700.9 84785.7 -32956.2)
(-79226.1 93140 -29013.5)
(-70094.8 94904 -31126.9)
(-573.35 42278.6 -9267.3)
(9787.21 42104.9 -6535.87)
(16396.5 47028.7 -6125.63)
(20657 46548.9 -5222.64)
(16821.7 18126.1 -2321.26)
(25650 17110.3 -2738)
(33571 19968.2 -3742.8)
(39829.5 22248.1 -4131.84)
(44003.6 23766.2 -4522.78)
(44649.1 23966.2 -4806.12)
(43920.7 23465.8 -4927.9)
(41681.4 21937.6 -4853.52)
(37989 19199.9 -4536.65)
(32151.4 15435 -4293.1)
(26405.6 12022 -3787)
(25808.4 10099.7 -2885.33)
(-93142.5 83559.4 -25680.1)
(-64939.7 90375.9 -26857.3)
(-35953.2 83382.5 -19412)
(-5417.8 57617.2 -11985.8)
(5737.91 37936.1 -6938.59)
(11957.8 44099 -6234.12)
(17499.8 47112.6 -5583.98)
(20905.1 46562.5 -4606.66)
(18137 28139.5 -2647.9)
(15623.3 16119.2 -2161.97)
(20175.1 16171.6 -2296.31)
(27174.1 19231.3 -2419.84)
(34475.9 22884.3 -3067.21)
(38653.1 24828.7 -3836.28)
(39272.1 24592 -4257.87)
(38782.3 23280 -4413.47)
(36210.2 20294.5 -4355.83)
(30883.1 16284 -4068.96)
(27737.5 13567.3 -3359.61)
(28163.7 12255.9 -2584.73)
(-72955.4 86216.6 -21603.4)
(-40675.8 85247.6 -21432.2)
(-17789.2 74014.8 -15034.9)
(397.87 55834.5 -9991.47)
(8546.05 42408.7 -7457.51)
(12709.9 45380.8 -6534.44)
(17679.9 47354.7 -5640.61)
(21142.5 47392.1 -4718.28)
(21251.6 36333.9 -3367.86)
(16842.5 21670.6 -2147.03)
(16769.4 17037.3 -1355.52)
(19566.7 16962.2 -1412.25)
(24066.9 19299.2 -2254.57)
(28516.6 21558 -3132.96)
(30922 21897.7 -3552.2)
(32093.7 21138.2 -3644.06)
(32417.1 20041.3 -3678.35)
(30852.3 18254 -3366.42)
(31249.3 17103.7 -2748.71)
(33119.4 16160.2 -2366.99)
(-56424.1 83636.9 -17760.3)
(-26851.4 78753.4 -17424.3)
(-10332.7 69302.2 -12962.7)
(2630.44 55820.9 -9035.7)
(10106.1 45961.4 -7778.99)
(13692 47268.1 -6870.56)
(18197.2 47814.5 -5837.5)
(21720.8 48285.8 -4992.86)
(23338.9 42284.1 -3801.75)
(20548.9 29494.2 -2155.06)
(17485.8 20475.5 -1262.41)
(16408.7 16535.1 -1496.85)
(17452.3 15902.3 -2173.74)
(19787.5 16607.2 -2534.22)
(23536.3 18506 -2658.47)
(28079.9 21078.9 -2752.13)
(30402 21961.7 -2661.25)
(32054.8 21656.3 -2461.32)
(36310.2 21218.8 -2266.03)
(39998.9 20954.1 -2417.36)
(-44292.7 79176.7 -14569.7)
(-19358.1 73235.5 -14425.5)
(-6899.37 66236.2 -11535)
(3358.09 55536.5 -8653.4)
(10149.9 47421.2 -7839.39)
(13972.2 47762.4 -6944.62)
(18195.8 47691.6 -5843.47)
(21943.9 47904.9 -5244.03)
(24560.2 45571 -4223.6)
(24251.3 36907.5 -2757.43)
(20635.3 25974.9 -2001.62)
(16203.4 18043.5 -2032.55)
(16241.5 16367.5 -2234.28)
(18058.2 16915.2 -1902.44)
(21182.4 19220.4 -1638.17)
(25407.1 21865.8 -1605.17)
(30622.1 23876.8 -1930.92)
(37688.9 25616.1 -2297.6)
(42990.2 25734.8 -2277.13)
(41857.2 24622.7 -2712.11)
(-35627.7 74317.8 -12029.7)
(-15039.1 68466.4 -12079.6)
(-5075.01 63453.2 -10258.6)
(3557.12 54729.2 -8390.78)
(9416.5 47636.6 -7750.37)
(13561.5 47452.4 -6901.49)
(17697.5 46948.9 -5786.22)
(21630.9 47178 -5234.94)
(24477 45535.5 -4511.36)
(25731.6 40244.9 -3513.65)
(22939 30574.2 -2845.67)
(17293.2 20807.1 -2313.57)
(17127.2 18428 -1792.19)
(18319.4 18367.2 -1199.68)
(21930.2 21053 -1021.99)
(28168.9 24323.6 -1177.53)
(35568.8 26942.4 -1890.28)
(40174.3 27803.3 -2389.21)
(40736.3 27612.7 -2660.94)
(35751.5 25522.1 -3209.2)
(-29228.2 69406.6 -10021.9)
(-12288.9 64124.5 -10170.5)
(-4017.28 60586.7 -8999.83)
(3537.47 53385.1 -8020.89)
(8421.41 46591.6 -7483.16)
(12495.2 45910 -6712.83)
(16467 45148.4 -5644.25)
(20543.7 45288 -5138.43)
(23869.2 44586.5 -4646.49)
(25320.6 40516.6 -3946.38)
(23078.5 32798.7 -3253.19)
(19379.2 24854.2 -2428.95)
(19810.5 22034.3 -1511.9)
(21274.4 22350 -974.349)
(24888 24986.3 -1138.08)
(27485.3 24090.4 -1685.28)
(29400.1 23724.5 -2213.11)
(30116.9 24238.4 -2639.59)
(30257.1 25830.7 -3388.59)
(25846 24084.5 -3698.93)
(-24320.1 64416.2 -8402.08)
(-10376.9 60023.9 -8661.03)
(-3374.79 57577.5 -7851.21)
(3366.58 51555.2 -7580.71)
(7548.32 44918.7 -6963.87)
(11216.5 43645 -6261.8)
(14779.5 42489.7 -5330.05)
(18686.9 42234.8 -4910.44)
(22184.7 42060.6 -4580.8)
(23791.5 39645.8 -4090.9)
(21916.9 33467.1 -3365.64)
(21864.2 29363.8 -2556.72)
(22549.5 26399.6 -1517.59)
(24844.6 28920.4 -1139.35)
(24616.2 28008.6 -1693.12)
(19772.9 19657.1 -2527.83)
(18707.1 17686.3 -2662.44)
(20176.8 19512.6 -3070.12)
(21312.5 22390.7 -3628.72)
(17744.9 19753.3 -3171.46)
(-20292.2 59361.5 -6899.97)
(-8887.76 56014 -7325.2)
(-2917.2 54453.4 -6786.83)
(3166.69 49444.4 -6846.06)
(6838.43 43233.4 -6060.7)
(9943.96 41329.6 -5475.23)
(12968.4 39525.3 -4776.44)
(16307.1 38484.9 -4451.23)
(19369.5 38255 -4292.8)
(20589 36734.2 -4054.36)
(20488.5 33265.6 -3439.14)
(22475.4 31278.5 -2522.28)
(24478.2 31489.9 -1881.54)
(27708.1 36556 -1928.2)
(24571 30213.3 -2264.8)
(18081.2 18857.3 -2673.78)
(17899 17808.3 -3152.63)
(18589.6 19049.5 -3388.65)
(17705.8 19154.4 -3161.62)
(11532.3 14222.2 -2067.05)
(-16466.3 54578.2 -5461.52)
(-7394.39 52170.5 -5602.96)
(-2363.59 51587.1 -5405.64)
(2928.25 47357.1 -5664.8)
(6120.32 41386.1 -5279.76)
(8716.28 38573.2 -4907.5)
(11158.2 35819.5 -4410.12)
(13558 33496.5 -4158.72)
(15572.7 32393.4 -4095.31)
(16421.8 31116.1 -3832.75)
(18392 31128.5 -3175.08)
(21919.3 32455.7 -2386.56)
(26089.1 38363.7 -2328.56)
(28582.8 41239.7 -2510.36)
(25066.8 30930.5 -2710.44)
(19902.1 20360.1 -3044.63)
(19160.2 18585.5 -3352.18)
(18041.8 18016.9 -3106.11)
(12853.5 13770.2 -1960.53)
(2944.57 3945.8 -435.449)
(-14036 47161.9 -4738.14)
(-6482.92 46998.1 -5087.44)
(-2233.53 47193.9 -4907.73)
(2571.97 42870.1 -5483.44)
(5535.2 36758.6 -5188.57)
(7596.83 33207.8 -4724.73)
(9246.49 29783.9 -4212.52)
(10691.5 27064.8 -3849.95)
(12080.9 26497.6 -3632.79)
(13567.9 27714.6 -3193.75)
(17120.7 31236.3 -2655.59)
(21318.7 36380 -2296.07)
(26101.4 43607.6 -2437.15)
(28261 41676.3 -2814.21)
(26470.1 30853.7 -3374.59)
(22604.9 21453.1 -3477.54)
(19236.7 17766.7 -3040.65)
(13805.8 12881.3 -1904.53)
(3137.77 3138.12 -343.543)
(64.8905 89.9063 -6.13849)
(-10238.3 37404.2 -3278.02)
(-4940.21 38397.1 -3754.77)
(-1786.89 39663.7 -3602.97)
(1814.29 36127.8 -4254.7)
(4235.79 31900.2 -4013.84)
(5990.12 29159.4 -3660.81)
(7406.17 26656.9 -3323.77)
(8797.62 25542.1 -3079.72)
(10103.3 25831.6 -2800.53)
(12233 28076 -2517.41)
(16124.9 32939.5 -2366.88)
(20977.4 39997.2 -2521.09)
(24838.3 42228.9 -2860.27)
(25860.3 36189.1 -3247.69)
(24255.6 26003.9 -3541.87)
(19787.3 17800.8 -2990.94)
(14282.6 11605.1 -1951.27)
(3955.64 2956.71 -410.218)
(90.1544 65.1596 -5.89122)
(0.023536 0.0234865 -0.000946762)
(-66748.1 -66737.8 -12402.4)
(-54744.3 -78518.8 -15876.1)
(-45768.2 -87643.7 -17330.9)
(-33038.6 -95576.4 -19554.5)
(-17105.9 -107901 -20819.4)
(3174.72 -114903 -22822.5)
(25724.8 -121261 -24465.8)
(47108.2 -122247 -25285.5)
(68302.3 -109520 -22612.5)
(79063.8 -89679.5 -19315.2)
(81159.6 -69688.1 -16075.2)
(78442.7 -53566.6 -13239.5)
(74169.3 -41960.9 -11003.1)
(69798.1 -33821 -9297.38)
(65555.7 -27907.9 -7979.47)
(61310.1 -23407.9 -6954.94)
(57018.4 -19777.9 -5995.92)
(53022.8 -16196.8 -4906.95)
(46597.8 -13966.4 -4469.64)
(37336 -10322.5 -3143.06)
(-78466.6 -54679.2 -15874.8)
(-66680.2 -66753.3 -20040.4)
(-57301.6 -76760.6 -21008)
(-43523.4 -86842.4 -22885.4)
(-26472.7 -103693 -24943.3)
(-1637.11 -116586 -27561)
(28067.6 -126210 -30399.9)
(55919.5 -124284 -30411.6)
(80286.7 -95050.5 -24411.8)
(84594.2 -62072.6 -18800)
(79209.1 -38548.4 -14768.8)
(72984.4 -25301.2 -12158.9)
(68046.6 -18186.3 -10356.7)
(63971.9 -14146.2 -8991.44)
(60390.2 -11624.7 -7860.7)
(57043.1 -9917.9 -6972.49)
(53815.4 -8653.42 -6257.47)
(50761.8 -7304.61 -4967.42)
(46341.8 -6534.64 -4632.22)
(38353.3 -5077.54 -3495.15)
(-87431.3 -45687.5 -17323.9)
(-76306.2 -57486.2 -21001.6)
(-66972.9 -67801.8 -20518.2)
(-53194 -78670.6 -20899.8)
(-35293.2 -98130.7 -24539.8)
(-6973.52 -116974 -28501.7)
(28564.8 -129033 -32546.5)
(62235.1 -122822 -31203.3)
(88459.1 -78077 -21390.8)
(78041.3 -35261.8 -13271.3)
(68660.3 -17507.8 -9920.15)
(64246.3 -10234.8 -8719.2)
(61665.5 -6870.19 -8069.45)
(59473.9 -5049.57 -7499.67)
(57267 -3977.73 -6873.37)
(54929.1 -3344.11 -6237.88)
(52462.9 -2962.22 -5690.54)
(50245.8 -2441.1 -4741.49)
(46637.2 -2386.59 -4474.1)
(39762.8 -1979.17 -3410.66)
(-95127.9 -32964.6 -19474.3)
(-86286.6 -43744.8 -22756.6)
(-78051.2 -54323.5 -20819.3)
(-68596.1 -70523.6 -22288)
(-50728.6 -87720.2 -24895)
(-19751.6 -109446 -31008.3)
(19372.7 -127840 -37282)
(58985.4 -132772 -39925.5)
(93433.5 -74990 -22953)
(53565.5 -6198.48 -7464.79)
(51672.5 -419.224 -6355.96)
(51984.5 1884.53 -6266.94)
(52020.5 2686.57 -6412.28)
(51537.9 2927.25 -6448.24)
(50565.4 2987.39 -6260.89)
(49140.1 2920.36 -6007.08)
(47494.8 2798.02 -5648.32)
(45941.8 2669.42 -4759.81)
(42308.5 2402.13 -4659.36)
(36146.6 1724.08 -3663.45)
(-107234 -17107.8 -20714)
(-102806 -26546.8 -24727.5)
(-97194.8 -35770.7 -24466.8)
(-87545 -52825.3 -24661.4)
(41856 -2158.51 -6406.23)
(35925.7 4741.32 -4738.46)
(39333.3 7239.46 -5068.58)
(43546.8 9104.62 -5771.15)
(45174.6 9375.05 -6122.89)
(45766.2 8818.4 -6282.87)
(45081.7 7877.31 -6166.27)
(43637.3 6989.32 -5865.28)
(42124.2 6317.42 -5273.05)
(40549.6 5661.93 -4502.37)
(36469.4 5264.3 -4394.4)
(31839.9 4118.58 -3398.71)
(-114190 2986.75 -22795.8)
(-115570 -1987.31 -27505.6)
(-115832 -7571.07 -28639.6)
(-108605 -20556 -31183.5)
(40347.3 8988.21 -5375.53)
(42509.7 10563.4 -4929.3)
(42942.5 10990.7 -4955.28)
(44678 11923.2 -5264.36)
(45603.6 12401.7 -5566.59)
(45879.9 12310.1 -5740.96)
(45063.8 11582.1 -5719.16)
(43277.2 10539.5 -5495.64)
(41153.7 9444.57 -4974.18)
(38581.9 8292.92 -4331.71)
(33447.9 7372.1 -4114.91)
(29100.4 5864.19 -3149.52)
(-120690 25440 -24621.6)
(-125281 27580.2 -30508)
(-127890 27788.9 -32627.4)
(-126451 18042.8 -37229.5)
(45114.2 14696.6 -5097.96)
(45958.7 15617 -4659.93)
(45656.3 15563.1 -4530.95)
(45762.5 16007.6 -4695.38)
(45930.4 16320.7 -4989.66)
(45718.6 16197.1 -5090.07)
(44615.1 15471.6 -5069.42)
(42445.8 14166.6 -4931.89)
(39695.9 12579.2 -4579.63)
(36251.4 10848.3 -4082.27)
(30301.2 9100.05 -3810.94)
(26604.5 7260.26 -2933.97)
(-121872 46695.5 -25358.2)
(-123787 55229.7 -30597.6)
(-122217 61351.5 -31661)
(-131808 58006.5 -40135)
(45468.1 18398.6 -4571.48)
(45766.7 18969.4 -4209.93)
(46045.9 18899.6 -4206.25)
(46577.7 19208.5 -4349.27)
(46759 19680.5 -4616.72)
(46303.1 19794.1 -4805.24)
(45113.7 19232.7 -4778.48)
(42665.5 17914 -4702.78)
(39191.7 15940.2 -4441.32)
(34501.1 13406.4 -4026.96)
(27628.3 10588.7 -3597.22)
(25375.7 8670.65 -2807.51)
(-109355 67967.1 -23114.2)
(-94686.6 79765.3 -25285.1)
(-76958.2 87448.8 -22772.8)
(-70781.1 91823.4 -24539.3)
(-1131.2 40763.4 -6493.33)
(9281.01 40074.5 -5835.77)
(15193.6 45940 -5136.79)
(19247.4 47008.6 -4441.22)
(15277.7 17168.3 -1382.74)
(24813.5 15877.9 -2230.83)
(32779.5 18562 -3097.02)
(38850.2 20562.3 -3394.96)
(43081.4 21988.3 -3815.51)
(44286.7 22454.1 -4243.93)
(43823.2 22155.9 -4509.54)
(42101.4 21117.5 -4554.43)
(38799.4 18976.9 -4332.41)
(33597.5 15679.8 -4006.66)
(26866 12071 -3491.73)
(25563.4 10046.2 -2638.02)
(-89622.4 78835.1 -19960.5)
(-61617.1 84011.6 -19798.2)
(-34652.1 77142.5 -14482.6)
(-5659.65 52747.7 -8317.8)
(4944.94 34939.6 -5301.76)
(10631.8 41690 -5062.05)
(15718.8 45947.3 -4579.73)
(19291.2 46404.5 -3948.51)
(16616.9 26932.3 -2185.86)
(14067.2 14479 -1612.73)
(18664.3 14581.3 -1780.8)
(25758.5 17624.3 -2001.48)
(33122 21096.7 -2643.89)
(37897.8 23213.2 -3443.13)
(38918.9 23330.1 -3927.49)
(38632.2 22552.5 -4106.56)
(36667 20313.1 -4014.05)
(31829.1 16560.9 -3840.9)
(27240.3 13321.6 -3303.06)
(27354.6 11890.7 -2395.44)
(-69614.5 80949.7 -16647.8)
(-38192.7 78599.6 -15521.8)
(-17186.6 67835.7 -10724.5)
(-221.044 50808 -6893.04)
(7357.55 38439.4 -5268.72)
(11072 42268.4 -4937.76)
(15681.4 45741.5 -4430.72)
(19205.1 46616 -3973.76)
(19503 34980.5 -2814.51)
(15048.9 19793.9 -1690.05)
(15179.6 15405.1 -1143.13)
(18093.2 15414.7 -1173.05)
(22709.5 17686.3 -1920.46)
(27672.8 20331.5 -2803.82)
(30508.5 21203.2 -3305.28)
(31494.6 20520.4 -3419.13)
(31585 19234.8 -3449.41)
(30115 17484.8 -3383.66)
(29748.1 16174.6 -2763.35)
(31379.4 15458.2 -1950.36)
(-53476.2 78229.8 -13675.7)
(-25010 72399.5 -12636.9)
(-9981.75 63446.4 -9169.88)
(1966.27 51063.6 -6534.95)
(9116.43 42652.5 -5707.15)
(11965.7 44117.7 -5101.17)
(16091.9 45879.9 -4515.17)
(19516.6 47070 -4127.02)
(21314.6 40634.2 -3126.66)
(18597.8 27538.7 -1752.72)
(15838.4 18847 -1066.63)
(15006.4 15102.1 -1216.91)
(15978.5 14395.1 -1775.08)
(18206.6 15107.4 -2213.06)
(21403.3 16545.7 -2404.26)
(25620.5 18764.6 -2537.99)
(28863.7 20360.3 -2572.25)
(30260.2 20393.7 -2385.17)
(33489.9 20212.8 -1791.95)
(38120.1 20321.8 -1338.6)
(-41868.3 73961.5 -11319.7)
(-17939.4 67510.4 -10642.6)
(-6651.79 60913.8 -8298.32)
(2730.06 51110.3 -6529.05)
(9293.22 44283.8 -5972.12)
(12383.9 45032.3 -5325.06)
(16288.9 45966.9 -4669.96)
(19887.3 46979.3 -4384.51)
(22523.7 44267 -3568.51)
(22154.9 35093.6 -2336.5)
(18804.1 24323.7 -1671.07)
(14791.5 16577.4 -1667.96)
(14260.2 14331.1 -1932.78)
(15774.7 14566.4 -1792.43)
(18941.9 16798.7 -1507.7)
(23166.1 19767.5 -1324.26)
(27764.3 22015.5 -1383.83)
(34079.7 23949 -1559.17)
(40576.2 24933.4 -979.066)
(42567.3 24923.8 -1080.89)
(-33733.3 69596.7 -9528.16)
(-13943.7 63484.4 -9168.93)
(-4870.95 58770.9 -7610.78)
(2957.56 50670.7 -6504.46)
(8678.87 44869.1 -6177.43)
(12243.1 45281.5 -5507.99)
(16110.7 45681.2 -4763.35)
(19914.3 46466.9 -4568.81)
(22821.7 45075.8 -4019.77)
(24059.9 39485.1 -3181.21)
(21581.9 29525.6 -2589.58)
(15919.7 19291.7 -2084.94)
(14746 16057.8 -1706.04)
(15969.1 16022.6 -1052.65)
(19019.6 18374.2 -558.706)
(24981.3 22067.4 -324.261)
(32915.2 25674.5 -694.145)
(39747.2 27838.4 -963.825)
(42132.6 28247.4 -861.07)
(39107.2 26818.1 -1648.75)
(-27826.6 65352.9 -8152.45)
(-11463.9 59938.2 -7982.19)
(-3839.4 56622.1 -6935.39)
(3012.95 49779.8 -6311.34)
(7725.34 44233.5 -6108.98)
(11471.4 44419.6 -5535.68)
(15338.5 44507.2 -4818.9)
(19288 45178.4 -4594.8)
(22483 44503.8 -4293.53)
(23992.9 40160.1 -3724.76)
(22267.6 32211.7 -3139.3)
(17440.1 22710.9 -2275.45)
(17404.3 19794.8 -1399.64)
(18616.6 19535.9 -529.758)
(22821.2 22938.6 -129.938)
(27727.2 24578.1 -76.2463)
(31915.1 25629.6 -711.949)
(33750.9 26455.1 -1215.94)
(34047.8 27471 -2012.71)
(29672 25742.2 -3319.01)
(-23335.1 61101 -7091.88)
(-9793.61 56617.2 -7070.72)
(-3240.7 54366.9 -6290.63)
(2944.6 48495.2 -6061.58)
(6865.37 42908.7 -5836.35)
(10407.2 42641.8 -5371.78)
(14040.4 42359.6 -4765.72)
(17929.2 42676.9 -4540.31)
(21353.1 42560.2 -4332.11)
(23109.5 39689.1 -3905.84)
(21311 32928.7 -3274)
(19658.1 27060.3 -2445.52)
(20557.8 24359.5 -1283.24)
(22688.5 26004.8 -363.783)
(24968.9 28138.7 -167.129)
(22864.5 22660.7 -1535.58)
(21475.9 19874.1 -1705.53)
(22431.9 20915.3 -2223.29)
(23797.9 23794 -3678.52)
(20007.5 21526.9 -4054.72)
(-19718.5 56818 -6114.93)
(-8555.62 53427.7 -6357.06)
(-2878.74 52004 -5755.3)
(2825.63 47017.3 -5709.94)
(6233.56 41547.1 -5260.67)
(9322.25 40614.6 -4893.38)
(12476.1 39612.6 -4430.39)
(15920.9 39149.5 -4237.94)
(19114.8 39037 -4102.2)
(20639.4 37368.8 -3814.16)
(19764.2 32674.6 -3321.83)
(21070.8 30103 -2523.29)
(22830.6 29099.5 -1442.71)
(26534.4 34299.4 -861.789)
(26153.4 32367.5 -880.228)
(19988.1 21237.6 -1787.29)
(17870.1 17771.1 -2803.46)
(19002.6 19394 -3550.93)
(18352 19767.1 -4082.64)
(12855 15625.6 -3462.26)
(-16154 52859.1 -5000.08)
(-7236.39 50449.2 -5060.37)
(-2384.76 49881.9 -4799.88)
(2691.28 45580.9 -4811.32)
(5609.69 40113.2 -4494.98)
(8201.62 38185.2 -4260.8)
(10779.5 36154.6 -3949.31)
(13391.5 34440.7 -3834.32)
(15743.3 33663.8 -3819.39)
(16717.4 32215.9 -3671.08)
(17808.3 30819.2 -3277.08)
(20896.5 31191.3 -2389.02)
(24689.4 35456.4 -1742.02)
(28587.3 41010.7 -1207.44)
(26751.2 33900.8 -1399.7)
(20835.5 22053.3 -2271.68)
(19373.3 18877.7 -3512.91)
(18060.3 18064.6 -4011.97)
(14248.1 15221.4 -3655.34)
(4587.18 6018.12 -1440.92)
(-13936.7 46494.8 -4550.96)
(-6489.69 46118.4 -4719.04)
(-2350.05 46315.1 -4539)
(2417.41 42021.2 -4693.66)
(5232.73 36150.2 -4408.31)
(7314.58 33185.1 -4068.36)
(9063.76 30204.6 -3720.67)
(10603.8 27623.2 -3480.11)
(12105.4 26913.4 -3377.97)
(13360.1 27402 -3163.45)
(16357.6 30175.8 -2702.92)
(20566.9 34227.5 -1897.03)
(25481 41753.5 -1221.94)
(28673.6 42877.4 -1086.09)
(27544.3 33882.5 -2136.54)
(23549.5 23356.1 -3585.03)
(19652.4 18264.8 -3942.4)
(15188 14295.7 -3590.73)
(4962.71 4996.01 -1246.46)
(201.595 275.827 -54.7924)
(-10310.7 37279.7 -3203.77)
(-5057.86 38225.2 -3564.6)
(-1960.82 39536.2 -3469.91)
(1733.65 35961.6 -3686.26)
(4105.84 31632.6 -3415.97)
(5835.57 28945 -3130.03)
(7243.33 26525.5 -2890.47)
(8673.4 25382.9 -2741.41)
(10036.3 25607.6 -2563.44)
(11911.9 27480.1 -2326.56)
(15596.4 31652.8 -1982.15)
(20494.6 38584.1 -1493.11)
(25047.3 42969.6 -1278.33)
(26773.6 39019.3 -1794.49)
(25520.7 29174.8 -3282.63)
(21214.8 19645.1 -3846.78)
(15577 12853.4 -3327.24)
(5907.67 4538.52 -1366.4)
(263.771 198.996 -51.7145)
(0.215117 0.225484 -0.031417)
(-66604 -66571.1 -9596.03)
(-54823.7 -78483 -11980.6)
(-45972 -87458.8 -12856.4)
(-33358.5 -95359.5 -14487.8)
(-17842.6 -107575 -15486.2)
(1966.86 -114322 -16887.1)
(23950.6 -120093 -18073.3)
(45058.7 -120359 -18683.3)
(65437.2 -107016 -16751.7)
(75781.1 -87477.5 -14386.7)
(77762.3 -67883 -12000)
(75219.7 -52207.9 -9918.39)
(71298.1 -41028.7 -8315.14)
(67394.9 -33255.3 -7140.12)
(63630.7 -27632.1 -6267.43)
(59764 -23306.7 -5594.23)
(55718.2 -19868.7 -5015.88)
(52094.3 -16337.6 -4268.44)
(46385.2 -14150.1 -3933.46)
(37685 -10604.5 -2807.88)
(-78436.4 -54686.7 -11995.3)
(-66507.1 -66387.2 -14685.5)
(-57079.2 -75651.9 -15101.2)
(-43480 -85204.7 -16240.5)
(-27181.3 -102056 -17805.1)
(-3049.5 -115101 -19894.1)
(25776.8 -123999 -21881.4)
(53148.9 -120877 -21956.8)
(76486.5 -91760.5 -17651.2)
(80214.8 -59331.5 -13599.3)
(75219 -36948.9 -10670.2)
(69706.3 -24417 -8785.46)
(65532.1 -17733.6 -7551.92)
(62130.7 -13986.9 -6676.85)
(59110.8 -11683 -5996.93)
(56167.7 -10120.1 -5469.57)
(53111.3 -8947.74 -5113.64)
(50385.1 -7627.52 -4312.56)
(46543 -6893.63 -4076.02)
(39100.2 -5414.65 -3126.32)
(-87202.4 -45784.5 -12945)
(-75540.6 -56863.6 -15258.3)
(-65821.1 -65831.5 -14615.8)
(-52398.8 -75771.9 -14171.1)
(-35556.4 -96139.2 -16971.9)
(-8128.88 -115114 -20197.3)
(26164.1 -126423 -22958.6)
(59089.5 -119017 -22162.6)
(82821.6 -73459.6 -14948)
(72797.2 -33125 -9367.82)
(64730.7 -16858.3 -7161.68)
(61293.5 -10035.9 -6326.53)
(59501.6 -6844.14 -5894.78)
(57976.9 -5157.3 -5556.94)
(56277.8 -4215.59 -5230.78)
(54230.1 -3697.28 -4929.27)
(51827.5 -3385.89 -4749.17)
(49861.7 -2865.4 -4147.18)
(46869.9 -2766.03 -4137.87)
(40742.4 -2301.13 -3341.02)
(-94664.7 -33251.6 -14667.2)
(-84594.6 -43308.7 -16652.4)
(-75438.6 -52441.3 -14850)
(-66087.6 -66875.6 -15299.5)
(-49466.2 -84412.6 -16788.1)
(-20191.4 -107133 -21863.2)
(17017.6 -125508 -26775.5)
(55165.7 -129091 -28073.9)
(86671.6 -70412.4 -15816.5)
(49765.1 -6010.06 -4847)
(48971 -705.609 -4547.43)
(49770.9 1519.23 -4766.64)
(50160 2347.27 -4950.05)
(50007.6 2525.1 -4997.73)
(49434.7 2496.26 -4892.29)
(48370.3 2382.99 -4759.39)
(46889.2 2258.82 -4668.3)
(45726.8 2183.9 -4065.97)
(42869.8 1951.09 -4089.24)
(37366.5 1403.93 -3359.7)
(-106510 -17952 -15592.9)
(-100541 -27254.4 -18135.2)
(-94581.9 -35722.4 -17948.1)
(-82628.1 -50256.2 -18574.5)
(36678.7 -2468.26 -4256.07)
(34637.8 3982.45 -3801.07)
(37969.1 6162.15 -3894.76)
(42872.5 8318.07 -4386.64)
(44937.5 8858.49 -4646.55)
(45989.8 8525.24 -4779.65)
(45730.6 7648.93 -4782.86)
(44431.4 6652.86 -4733.95)
(42787.5 5908.15 -4491.57)
(41375.7 5210.43 -3927.05)
(37797.1 4871.73 -3919.47)
(33046.4 3902.21 -3102.66)
(-113294 1686.03 -16871.8)
(-113659 -3549.09 -19925.9)
(-113486 -8825.18 -20485.7)
(-105329 -20819.9 -22643.4)
(39400.6 7750.73 -4500.52)
(41156.7 9440.58 -3912.65)
(41978.7 9769.02 -3939.02)
(44005.5 10752 -4122.51)
(46162.6 11566.6 -4383.54)
(46708.1 11687.6 -4496.63)
(46397.3 11190.4 -4574.83)
(44944.1 10256.2 -4587.02)
(42786 9238.07 -4399.37)
(40362.9 8047.89 -3916.91)
(35632.8 7277.89 -3726.9)
(30526 5832.01 -2869.55)
(-119541 23655.3 -18167.5)
(-123034 25270.5 -21961.7)
(-125212 25495.2 -23113.7)
(-123801 16189.1 -27103.6)
(45372.3 13603.1 -4528.94)
(45286.8 14362.6 -3978.73)
(45426.5 14380.4 -3917.15)
(45987.6 14798 -3897.76)
(46941.3 15472.1 -4151.57)
(46946.3 15528.2 -4235.77)
(46301.8 15126.3 -4312.77)
(44522.4 14116.5 -4337.35)
(41766.8 12682.9 -4164.15)
(38493 10933.6 -3698.91)
(32874.1 9429.59 -3417.48)
(27950.4 7438.31 -2624.56)
(-119985 44512.1 -18678.8)
(-120560 52160 -21915.9)
(-119040 57808.8 -22142.3)
(-129031 54522.3 -28538.2)
(46435.1 17537.8 -4214.74)
(45621.9 18119.2 -3835.75)
(46232.8 18031.3 -3817.02)
(46891.9 18326.4 -3875.6)
(47790.9 18999 -3985.65)
(47427.3 19262.7 -4179.66)
(46657.3 18978 -4229.51)
(44616.3 17962.3 -4250.96)
(41268.7 16194.2 -4043.74)
(36908.7 13801.1 -3555.36)
(30007.9 11237.1 -3148.38)
(26247.3 8982.76 -2472.39)
(-107229 65039.6 -16893.4)
(-92321.8 75843.9 -17921.6)
(-74739.2 82437.2 -15625.9)
(-71023.6 85878.1 -18072.3)
(-2264.99 36374 -5372.29)
(7365.85 37620.9 -4486.64)
(13233.7 44711.2 -4420.89)
(17208.4 45721.2 -4046.17)
(14580.3 14198 -1588.38)
(24724.9 15220.8 -2218.13)
(32913.5 17999.1 -2891.73)
(38946.9 19940.3 -3158.49)
(43452.3 21384.9 -3467.54)
(45339 22093 -3835.46)
(45031.5 21928.7 -4074.57)
(43628.3 21176.3 -4119.91)
(40500.4 19390.6 -3900.01)
(35726.2 16473.5 -3511.08)
(28662.4 13018.8 -3095.36)
(26139.9 10554.8 -2418.96)
(-87889.9 75620.6 -14615.7)
(-59775.8 79817.6 -13984.9)
(-33534.3 72227.2 -9964.91)
(-6509.31 48537.9 -5538.99)
(3558.89 32477.1 -3910.97)
(8973.3 40319.4 -3958.97)
(14084 45006.6 -3893.03)
(17907.9 45332.1 -3719.57)
(15246.8 24930 -2216.05)
(13291 13384.8 -1449.08)
(17941.3 13684.2 -1790.82)
(25018 16791.9 -2156.7)
(32651 20301.2 -2593.76)
(38394 22788.9 -3143.18)
(39953 23260.3 -3501.41)
(39665.8 22780.1 -3649.54)
(37928 21062.2 -3583.6)
(33727.2 17678.2 -3371.81)
(27876.2 13986.2 -2883.1)
(27610.6 12153.4 -2239.43)
(-68233 77714.1 -12278.3)
(-37144.7 74815.6 -11037.6)
(-16956.7 63816.9 -7582.74)
(-1122.32 47397.7 -5031)
(5603.04 35827.8 -4198.16)
(9253.34 41004.7 -4052.65)
(14024.8 44996.8 -3856.11)
(17867.9 46003.9 -3745.36)
(18163.2 33344.5 -2899.9)
(13923.2 18389.6 -1733.41)
(14205.8 14298.2 -1474.29)
(17127.8 14422.4 -1504.08)
(22225.3 16957.7 -1854.45)
(27968 20135 -2421.42)
(31307.9 21537.2 -2845.36)
(32135.9 20942.5 -2941.7)
(32081.6 19462.7 -2938.78)
(30349 17384.2 -2892.27)
(29277.2 15862.4 -2529.97)
(30828.3 15170.8 -2083.47)
(-52424.2 75171.6 -10200.4)
(-24420.9 69204.5 -9117.62)
(-9995.09 60239 -6643.5)
(1219.65 48292.5 -5055.28)
(7691.76 40905.9 -4683.11)
(10190.4 42996 -4294.71)
(14389.8 45433.5 -3877.4)
(18138.9 46615.1 -3831.86)
(20048.8 39375.3 -3144.9)
(17223.7 25821.8 -2141.19)
(14676.3 17561.6 -1520.06)
(14422.2 14459.7 -1379.31)
(15688.9 13986.6 -1543.65)
(18122.1 14961.2 -1889.9)
(21041.7 16130.9 -2131.63)
(24563.8 17642.1 -2282.33)
(28062.7 19240.7 -2462.01)
(29472.5 19560.6 -2444.84)
(31755.3 19642.4 -2144.19)
(37020.8 20157.5 -1932.84)
(-41117.8 71186.5 -8563.2)
(-17618.6 64965.7 -7837.17)
(-6722.61 58456.9 -6151.92)
(2173.85 48877.2 -5124.72)
(8360.72 43386.6 -4856.54)
(11039.7 45165.7 -4548.63)
(15021.9 46279 -4126.81)
(18752.2 47377.8 -3948.09)
(21390.7 43671 -3439.98)
(20676.5 33436.6 -2624.32)
(17472.6 22987.5 -1938.74)
(14274.6 16039.2 -1594.98)
(13450.6 13463.5 -1696.06)
(14577.8 13291.7 -1660)
(17610.2 15185.6 -1627.74)
(21898.6 18335.3 -1724.81)
(25997.2 20860.8 -1895.22)
(30976.9 22799.5 -2133.02)
(38165.8 24426.6 -1955.19)
(44075.4 25923.9 -1861.97)
(-33251.2 67217.2 -7341.27)
(-13820.5 61548.7 -6905.42)
(-5004.18 57012.8 -5760.8)
(2453.02 48940.2 -5100.67)
(8129.3 44642.4 -4924.26)
(11243.8 45772.2 -4624.89)
(15088.2 46284.9 -4201.68)
(19008.5 46976 -4105.92)
(22060.2 45456.7 -3824.98)
(23074.5 39086.5 -3191.9)
(20745.1 28965.3 -2506.81)
(15563.7 18894.5 -1975.13)
(13444.6 14770.3 -1669.22)
(14565.3 14597.9 -1319.85)
(17130.8 16615.3 -1178.69)
(22448.6 20417.6 -1330.01)
(30059.4 24607.2 -1802.28)
(38560.3 28169.7 -2134.64)
(44193.2 29722.3 -1869.03)
(44286.6 29667.9 -1960.9)
(-27568.2 63400.2 -6421.33)
(-11502.9 58539 -6163.93)
(-4058.5 55414.6 -5381.15)
(2497.09 48569.9 -4943.82)
(7355.03 44620.9 -4891.52)
(10840.4 45522.2 -4656.13)
(14730.1 45676 -4272.14)
(18726.4 46179.6 -4148.19)
(21910 45144.2 -4070.73)
(23550.8 40723.5 -3546.09)
(22160.1 32470.2 -2913.28)
(16822.1 22055.7 -2224.56)
(15623.7 18202.4 -1645.84)
(16832.7 17622.1 -1180.92)
(20937.8 21086.6 -1363.13)
(27941.4 25525.8 -1384.31)
(34896.9 28729.7 -1817.18)
(39174.4 30616.4 -2048.81)
(39835.6 31171.8 -2187.04)
(35066.8 28600 -2625.67)
(-23213.5 59498.4 -5708.28)
(-9947.19 55605.8 -5580.02)
(-3550.67 53457.1 -5033.8)
(2425.6 47674.1 -4784.43)
(6446 43465.7 -4799.74)
(9988.44 44069.4 -4617.29)
(13798.4 43953.3 -4304.19)
(17748.8 44161.6 -4177.5)
(21164.1 43743.9 -4097.23)
(23030.4 40465.9 -3675.61)
(21465.5 33318 -3023.61)
(18359.2 25753.7 -2368.25)
(19070.8 22959.4 -1752.43)
(21054.9 23546.3 -1357.52)
(25875.2 28460.9 -1399.5)
(27769.9 27564.4 -2184.03)
(27127.7 25041.4 -1958.97)
(26835.9 24436 -2007.9)
(26959.3 25633.5 -2842.47)
(22623.7 22858.8 -3385.51)
(-19773.3 55441.9 -5102.04)
(-8802.22 52566.2 -5183.06)
(-3267.46 51130 -4827.23)
(2309.5 46320.5 -4687.18)
(5778.56 41940.5 -4540.48)
(9039.53 41945.8 -4397.95)
(12457.8 41283.7 -4156.86)
(16035.2 40912.8 -3998.58)
(19348.9 40645.6 -3853.13)
(21175.9 38666.5 -3591.95)
(19890.2 33221 -3035.37)
(20044.6 29436.4 -2517.46)
(21739.1 27410.7 -1949.89)
(25572 31713.6 -1853.36)
(29214 35468.5 -1807.57)
(24979.6 26728.6 -1945.15)
(18967.5 18904.4 -2183.18)
(18966.5 19091.6 -2607.31)