/*--------------------------------*- C++ -*----------------------------------*\
  =========                 |
  \\      /  F ield         | OpenFOAM: The Open Source CFD Toolbox
   \\    /   O peration     | Website:  https://openfoam.org
    \\  /    A nd           | Version:  9
     \\/     M anipulation  |
\*---------------------------------------------------------------------------*/
FoamFile
{
    format      ascii;
    class       volScalarField;
    location    "0.002";
    object      T;
}
// * * * * * * * * * * * * * * * * * * * * * * * * * * * * * * * * * * * * * //

dimensions      [0 0 0 1 0 0 0];

internalField   nonuniform List<scalar> 
9720
(
1512.38
1525.54
1542.93
1553.5
1565.52
1573.02
1580.23
1578.68
1560.53
1535.98
1507.72
1478.72
1451.13
1425.09
1399.6
1373.48
1346.49
1318.65
1279.51
1219.97
1525.27
1545.27
1564.79
1577.15
1591.21
1603.27
1614.44
1608.21
1568.23
1523.36
1478.57
1440.71
1409.88
1383.96
1361.03
1339.38
1317.18
1293.41
1260.52
1201.75
1542.48
1564.42
1583.18
1592.7
1603.42
1622.31
1637.57
1627.76
1567.19
1503.14
1458.25
1426.13
1400.38
1378
1357.85
1338.92
1319.24
1298.28
1269.23
1216.83
1553.02
1577.11
1593.42
1593.59
1598.47
1625.71
1653.44
1664.56
1580.44
1417.55
1400.23
1385.06
1368.79
1351.59
1334.41
1317.76
1300.85
1283.18
1256.41
1209.63
1564.81
1591.07
1604.34
1601.75
1364.04
1327.78
1348.26
1353
1348.75
1336.51
1318.64
1299.64
1282.29
1265.77
1239.63
1202.66
1572.39
1602.48
1621.27
1624.48
1324.78
1324.9
1333.27
1339.93
1338.64
1331.24
1316.61
1297.83
1278.85
1259.93
1229.67
1200.49
1579.47
1613.34
1636.03
1651.51
1327.5
1322.06
1326.09
1331.3
1330.97
1326.08
1313.65
1295.07
1274.68
1253.35
1217.97
1195.6
1577.79
1606.61
1625.14
1661.6
1319.56
1310.92
1314.59
1320.98
1322.82
1320.59
1311.78
1295.29
1274.24
1248.52
1203.13
1186.06
1559.27
1565.98
1563.9
1571.67
1361.49
1327.19
1329.26
1321.7
1252.63
1267.77
1280.21
1293.82
1305.1
1306.42
1302.84
1291.14
1270.83
1237.66
1179.96
1176.23
1534.85
1521.04
1500.66
1416.71
1331.33
1328.15
1325.53
1315.13
1274.41
1236.38
1240.39
1257.04
1275.6
1281.27
1280.25
1272.26
1251.03
1206.79
1165.45
1182.08
1506.75
1476.69
1456.51
1399.75
1349.61
1336.07
1329.19
1318.76
1288.57
1246.21
1223.81
1228.43
1237.1
1238.76
1235.66
1225.05
1205.02
1182.31
1175.82
1216.71
1477.92
1439.3
1424.83
1384.4
1352.9
1341.72
1333.27
1324.26
1301.6
1266.95
1235.4
1204.5
1179.02
1174.02
1175.62
1185.7
1194.12
1192.28
1200.93
1281.13
1450.51
1408.81
1399.35
1367.92
1348.52
1340.14
1332.6
1324.79
1309.71
1283.7
1247.22
1188.15
1154.4
1159.5
1173.94
1191.67
1210.67
1238.79
1272.47
1413.33
1424.6
1383.12
1377.15
1350.64
1336.14
1332.31
1327.41
1322.13
1309.66
1286.76
1247.72
1184.01
1161.04
1169.11
1202.19
1269.08
1343.67
1405.18
1462.86
1706.69
1399.24
1360.37
1357.15
1333.54
1318.27
1317.32
1315.04
1312.88
1305.15
1285.01
1243.71
1183.5
1177.63
1203.23
1332.38
1548.12
1722.07
1815.07
1921.43
2385.77
1373.22
1338.86
1338.38
1317.08
1299.36
1298.3
1296.76
1296.27
1292.57
1275.57
1231.29
1190.72
1195.23
1267.92
1543.52
2071.54
2702.36
2962.42
3210.15
4221.88
1346.31
1316.78
1318.85
1300.39
1282.14
1279.23
1276.21
1275.05
1271.74
1252.75
1208.39
1196.39
1212.02
1339.53
1711.81
2683.99
5126.07
6424.58
6901.48
7891.26
1318.5
1293.1
1297.99
1282.83
1265.67
1260.2
1254.39
1249.2
1238.4
1207.28
1182.57
1192.5
1237.73
1400.87
1807.88
2958.05
6480.05
9226.28
8716.55
6022.52
1279.4
1260.28
1268.99
1256.04
1239.55
1229.89
1218.66
1203.85
1180
1164.15
1174.2
1199.76
1270.93
1461.05
1921.85
3232.89
7012.53
8734.58
5502.27
614.761
1219.99
1201.66
1216.68
1209.17
1202.34
1200
1194.89
1185.11
1174.75
1180.19
1215.21
1280.08
1413.23
1710.2
2402.73
4305.38
8004.74
6043.47
615.783
348.232
1505.47
1516.9
1533.76
1543.98
1555.83
1562.89
1569.8
1566.74
1546.04
1520.66
1492.26
1463.66
1436.8
1412
1388.26
1364.31
1339.8
1314.86
1280.31
1223.98
1516.61
1535.41
1554.21
1566
1579.81
1592.3
1603.11
1594.73
1551.57
1504.82
1460.41
1423.71
1394.23
1369.75
1348.57
1329.03
1309.49
1288.84
1260.13
1206.06
1533.31
1553.86
1571.72
1579.9
1590.63
1611.06
1626.26
1613.9
1550.16
1486.51
1442.66
1411.62
1386.88
1365.48
1346.52
1329.15
1311.55
1293.13
1267.95
1220.26
1543.49
1566.01
1580.72
1584.43
1584.7
1615.49
1644.91
1652.45
1567.39
1402.13
1385.72
1372.1
1356.8
1340.22
1323.61
1307.74
1292.23
1276.69
1253.38
1210.61
1555.11
1579.28
1590.48
1586.01
1357.82
1318.82
1335.33
1342.35
1339.25
1328.96
1312.42
1293.9
1276.95
1261.28
1237.37
1201.97
1561.96
1590.91
1609.08
1613.07
1318.02
1316.43
1320.28
1327.55
1327.85
1323.23
1311.35
1294.52
1276.56
1258.16
1229.64
1198.17
1568.96
1601.84
1624.52
1642.22
1317.08
1313.31
1314.07
1317.97
1319.75
1317.5
1309.18
1294
1274.77
1253.36
1219.58
1191.91
1566.31
1594.03
1612.8
1650.76
1310.56
1302.87
1304.02
1307.93
1312.01
1311.34
1306.16
1293.42
1273.97
1249.36
1207.49
1181.69
1545.75
1550.67
1548.38
1563.46
1358.05
1319.05
1322.53
1317.98
1267.53
1264.88
1272.16
1281.75
1292.68
1296.83
1295.13
1287.11
1269.88
1241.54
1187.36
1169.22
1520.36
1503.5
1484.45
1399.98
1316.96
1317.39
1317.31
1308.53
1270.98
1234.33
1235.45
1247.05
1262.95
1271.25
1271.48
1267.1
1251.12
1214.55
1161.22
1167.12
1491.99
1459.02
1440.55
1383.27
1333.92
1321.65
1318.01
1309.47
1280.51
1240.19
1216.08
1219.7
1227.61
1231.29
1229.69
1221.81
1202.21
1171.94
1160.2
1188.96
1463.47
1422.39
1409.71
1369.61
1341.09
1328.75
1321.31
1312.81
1289.75
1255.87
1225.92
1200.11
1176
1166.25
1163.17
1165.61
1173.82
1173.85
1177.92
1239.62
1436.65
1392.97
1385.21
1354.51
1337.84
1328.77
1322.01
1315.06
1298.57
1272.21
1238.41
1185.17
1135.35
1135.21
1149.47
1167.91
1183.3
1202.62
1228.83
1340.03
1411.85
1368.53
1363.91
1338.11
1327.26
1323.59
1319.2
1313.79
1300.85
1277.54
1240.09
1177.55
1137.56
1143.38
1168
1215.96
1272.79
1325.76
1372.22
1565.55
1388.07
1347.34
1344.96
1321.68
1310.56
1311.08
1310.03
1307.73
1298.59
1277.03
1237.58
1172.44
1154.04
1170.32
1256.4
1414.39
1556.73
1643.14
1728
2084.87
1364.04
1327.82
1327.7
1306.15
1292.25
1293.85
1294.44
1294.41
1289.63
1271.3
1227.83
1172.78
1173.49
1219.47
1416.29
1776.22
2201.13
2448.9
2673.08
3434.12
1339.46
1308.4
1310.36
1291.08
1275.54
1275.84
1275.16
1274.73
1271.49
1253.58
1205.93
1178.91
1188.27
1277.55
1564.35
2224.73
3807.59
5039.21
5564.68
6887.86
1314.55
1288
1292.27
1275.94
1260.23
1257.58
1253.68
1249.84
1242.04
1214.9
1174.65
1177.4
1206.96
1332.83
1661.21
2518.01
5283.71
8741.59
8791.2
7002.76
1280.15
1259.55
1267.34
1252.98
1236.7
1229.11
1219.56
1207.45
1186.43
1160.52
1160.98
1180.32
1233.11
1382.81
1758.31
2780
5922.66
8869.05
6526.77
1148.46
1224.1
1205.86
1219.75
1210.39
1201.39
1197.46
1191.03
1180.38
1167.39
1165.95
1189.36
1241.44
1345.99
1584.5
2139.79
3613.39
7260.38
6993.34
1124
348.67
1499.83
1511.49
1528.29
1537.94
1549.39
1556.11
1562.66
1558.23
1536.45
1511.22
1483.41
1455.39
1428.91
1404.54
1381.42
1358.52
1335.26
1312.43
1281.99
1229.98
1511.16
1530.33
1548.33
1558.99
1572.12
1584.78
1595.35
1585.32
1540.47
1493.62
1450.88
1415.79
1387.52
1363.94
1343.5
1324.67
1305.84
1287.03
1261.93
1213.73
1527.73
1547.97
1564.12
1570.23
1581.45
1602.53
1617.9
1603.73
1537.84
1475.11
1434
1405.58
1382.73
1362.52
1344.12
1326.71
1308.98
1291.53
1269.22
1227.51
1536.98
1558.13
1569.65
1569.78
1568.52
1604.42
1635.52
1641.31
1551.33
1389.3
1377.08
1366.14
1352.5
1337.01
1321.25
1305.68
1289.99
1275.51
1255.26
1218.6
1548.04
1570.1
1578.78
1566.19
1335.01
1308.16
1325.1
1337.26
1336
1328.73
1314.64
1296.86
1278.93
1263.42
1241.66
1209.29
1554.84
1582.76
1599.55
1600.15
1307.77
1304.48
1309.59
1319.55
1324.53
1322.07
1313.42
1298.56
1280.74
1263.06
1237.38
1205.05
1561.72
1594
1616.12
1632.65
1308.67
1303.59
1305.39
1310.64
1315.91
1315.29
1310.17
1297.87
1279.88
1259.76
1229.57
1197.24
1558.1
1585.3
1604.12
1641.41
1303.76
1295.63
1297.77
1301.74
1307.99
1308.43
1305.64
1295.98
1278.6
1256.11
1219.33
1185.52
1536.86
1541.12
1538.75
1551.12
1332.45
1306
1311.61
1307.2
1253.58
1257.5
1266.98
1276.33
1287.65
1293.85
1293.14
1287.46
1273.23
1249.17
1202.16
1170.85
1511.52
1493.69
1474.51
1386.79
1303.45
1305.43
1306.85
1298.25
1258.32
1226.99
1228.97
1240.29
1256.78
1268.29
1269.51
1266.85
1255.2
1225.96
1167.42
1160.78
1483.57
1450.34
1432.49
1374
1321.59
1310.84
1308.06
1300.63
1269.83
1231.16
1205.79
1211.31
1223.47
1230.7
1230.14
1224.68
1208.22
1173.08
1151.76
1168.94
1455.44
1414.82
1403.72
1363.02
1334.76
1320.98
1312.89
1304.56
1279.99
1244.78
1214.59
1194.47
1178.1
1168.51
1162.54
1158.27
1159.67
1160.57
1162.57
1204.19
1428.85
1386.23
1380.72
1349.56
1333.78
1325.46
1317.55
1310.27
1291.16
1261.67
1229.24
1183.58
1128.05
1118.98
1129.07
1149.36
1163.52
1175.17
1194.22
1272.66
1404.39
1362.43
1360.42
1334.4
1326.87
1322.88
1316.8
1310.43
1296.91
1272.49
1236.17
1176.51
1121.73
1123.36
1140.5
1172.38
1210.18
1251.33
1288.37
1426.17
1381.17
1341.88
1342.01
1319.08
1313.06
1313.82
1311.26
1307.31
1296.13
1273.71
1235.45
1169.74
1132.99
1142.95
1190.37
1288.38
1394.76
1476.33
1542.53
1792.33
1358.11
1323.02
1324.7
1303.98
1295.38
1298.28
1298.37
1297.25
1290.36
1270.93
1229.52
1164.21
1154.68
1177.53
1293.14
1525.17
1811.79
2017.74
2189.81
2749.06
1334.73
1304.29
1307.19
1288.65
1277.49
1280.03
1280.24
1279.83
1275.76
1258.42
1212.16
1165.93
1169.83
1218.47
1408.18
1834.6
2746.78
3773.65
4328.25
5626
1311.96
1285.78
1290.13
1274.53
1262.05
1262.28
1260.1
1257.19
1250.82
1227.76
1177.17
1166.56
1181.86
1262.49
1500.19
2077.19
3963.79
7590.1
8513.12
7902.41
1281.79
1261.15
1268.2
1254.58
1240.35
1236.41
1229.39
1219.76
1202.4
1168.38
1155.1
1167.29
1200.81
1302.33
1575.16
2276.9
4614.32
8685.52
7719.82
2777.67
1230.02
1213.39
1226.74
1218.12
1208.07
1203.96
1196.38
1184.63
1169.62
1161.18
1170.72
1207.11
1279.77
1445.61
1838.93
2875.43
5967.2
7926.11
2717.39
358.285
1494.03
1506.51
1523.66
1533.06
1544.41
1551.08
1557.83
1552.84
1529.95
1504.16
1476.46
1448.76
1422.4
1397.92
1374.87
1352.29
1329.45
1307.91
1280.73
1234.32
1506.05
1526.36
1544.39
1554.66
1567.7
1580.78
1591.82
1581.2
1534.21
1486.12
1443.49
1409.32
1382.12
1359.12
1338.63
1319.45
1300.14
1281.61
1258.83
1216.71
1522.96
1544.18
1560.04
1564.96
1576.57
1598.58
1614.81
1599.99
1531
1467.17
1426.37
1399.34
1378.24
1359.29
1341.14
1323.19
1304.46
1286.55
1264.79
1226.76
1531.81
1553.74
1564.31
1563.91
1561.36
1600.06
1632.41
1637.15
1543.12
1379.17
1369.17
1359.98
1347.67
1333.34
1318.28
1302.99
1286.83
1272.19
1252.74
1219.64
1542.5
1565.18
1573.53
1557.11
1332.85
1300.03
1315.84
1330.87
1331.07
1326.33
1314.49
1297.49
1278.38
1262.05
1241.03
1211.34
1549.76
1578.74
1595.78
1595.81
1294.86
1297.78
1303.3
1314.36
1322.34
1320.95
1313.91
1299.94
1281.34
1263.28
1239.5
1208.95
1556.78
1590.23
1612.69
1629.59
1298.45
1299.11
1300.69
1306.57
1313.63
1313.57
1309.54
1298.15
1280.35
1261.24
1234.39
1202.84
1552.59
1580.77
1599.48
1635.8
1298.29
1292.83
1294.71
1298.32
1305.53
1307.03
1304.79
1296.29
1280.27
1259.9
1227.64
1192.32
1530.72
1535.42
1532.9
1547.05
1334.62
1296.25
1301.45
1300.61
1248.63
1254.75
1263.22
1272.63
1284.8
1292.84
1292.74
1288.45
1276.19
1254.85
1213.45
1176.55
1505.32
1487.86
1468.8
1382.59
1300.73
1299.82
1300.91
1293.02
1255.03
1223.17
1224.73
1237.25
1254.46
1267.98
1271.14
1269.45
1260.22
1235.79
1181.41
1164.19
1477.64
1444.91
1427.11
1369.05
1315.08
1304.54
1301.77
1295.1
1265.39
1227.58
1203.43
1209.73
1222.73
1233.65
1234.85
1231.62
1218.51
1186.52
1157
1168.03
1449.7
1410.04
1399.24
1358.28
1328.84
1314.92
1306.73
1298.75
1275.29
1242.27
1213.07
1194.34
1182
1176.06
1170.51
1164.96
1164.62
1164.39
1165.39
1196.6
1423.02
1382.11
1377.43
1345.55
1328.89
1321.89
1313.3
1305.59
1287.01
1259.19
1228.26
1186.42
1134.17
1122.18
1130.93
1151.14
1166.67
1175.26
1189.34
1251.52
1398.29
1358.59
1358.01
1331.31
1323.96
1320.2
1313.24
1306.51
1293.2
1270.26
1237.17
1181.33
1124.71
1125.48
1140.09
1166.11
1195.81
1228.95
1261.64
1374.95
1374.99
1337.82
1339.71
1316.61
1311.88
1312.59
1309.03
1304
1292.57
1272.03
1237.36
1175.03
1134.41
1142.33
1173.73
1243.5
1330.1
1408.25
1471
1681.75
1352.27
1318.55
1321.78
1301.62
1294.7
1297.93
1297.22
1294.96
1287.58
1269.94
1233.34
1168.57
1155.54
1170.37
1247.05
1423.72
1661.85
1855.05
2008.01
2482.65
1329.34
1299.26
1303.14
1285.58
1275.65
1278.97
1279.13
1278.55
1274.89
1260
1219.02
1168.69
1171.13
1201.68
1338.68
1674.11
2355.78
3255.99
3816.48
5049.14
1307.8
1280.86
1285.38
1271.04
1259.66
1260.98
1259.87
1258.21
1253.52
1234.72
1186.47
1167.36
1179.01
1235.69
1422.24
1886.49
3359.61
6835.63
8254.81
8399.4
1280.86
1258.42
1263.88
1251.73
1239.06
1237.41
1232.97
1226.09
1211.88
1179.67
1156.91
1166.7
1192.28
1269.08
1488.89
2053.21
3979.9
8419.71
8459.08
4605.99
1234.79
1216.84
1226.28
1218.79
1209.94
1207.41
1201.47
1190.75
1174.93
1162.72
1167.28
1196.2
1253.49
1383.49
1703.91
2544.05
5246.22
8445.6
4548.42
431.507
1490.68
1504.3
1522.07
1531.41
1542.54
1549.51
1556.35
1551.23
1527.74
1501.73
1473.88
1445.89
1419.23
1394.52
1371.5
1349.34
1327.12
1306.69
1281.86
1238.86
1503.8
1525.28
1543.62
1553.26
1565.86
1579.38
1590.5
1579.64
1531.93
1483.38
1440.77
1406.6
1379.24
1356.02
1335.44
1316.63
1298.15
1280.71
1260.21
1222.34
1521.19
1542.96
1558.36
1562.26
1574.03
1596.59
1612.94
1597.79
1526.98
1462.6
1422.47
1396.2
1375.47
1356.5
1338.23
1320.55
1302.64
1285.74
1266.18
1232.73
1530.2
1552.23
1561.4
1560.25
1555.56
1596.97
1630.06
1634.55
1538.66
1373.61
1364.7
1356.89
1345.38
1331.08
1315.92
1301.07
1285.82
1272.19
1255
1226.75
1541.02
1563.52
1570.98
1552.21
1329.79
1300.5
1313.86
1328.73
1329.22
1324.72
1313.4
1297.26
1278.96
1263.54
1244.59
1218.88
1548.17
1577.28
1593.71
1593.25
1296.11
1301.98
1307.01
1316.98
1323.17
1321.43
1314.34
1300.88
1283.01
1265.94
1244.54
1217.47
1555.35
1588.94
1610.9
1627.63
1299.9
1301.47
1302.56
1307.26
1313.86
1313.6
1309.77
1299.29
1282.64
1264.9
1241.13
1212.65
1550.85
1579.01
1596.95
1632.98
1297.79
1292.59
1294.03
1297.04
1303.97
1307.08
1305.33
1298.1
1283.64
1265.09
1236.54
1203.63
1528.47
1532.92
1528.42
1540.5
1329.54
1297.18
1300.47
1297.18
1241.49
1250.85
1260.2
1270.43
1283.02
1293.16
1294.68
1291.76
1281.2
1262.19
1225.39
1189.14
1503.11
1485.57
1465.38
1377.47
1301.1
1301.5
1300.38
1289.88
1249.46
1218.17
1220.93
1235.06
1253.22
1269.16
1275.2
1274.52
1267.19
1246.09
1196.84
1176.09
1475.5
1443.24
1425.18
1367.51
1315.54
1306.83
1301.44
1292.39
1261.05
1222.66
1199.96
1207.26
1223.19
1237.75
1241.2
1239.05
1228.72
1201.32
1170.91
1178.36
1447.45
1408.7
1398.13
1358.38
1329.37
1317.09
1306.08
1296.15
1271.74
1237.72
1208.96
1194.78
1187.67
1185.03
1180.69
1176.13
1176.41
1176.49
1176.78
1202.36
1420.55
1380.71
1376.59
1346.01
1329.28
1322.77
1312.55
1303.18
1283.77
1255.46
1225.99
1190
1144.75
1133.19
1140.56
1159.67
1176.54
1184.67
1196.67
1252.06
1395.58
1356.89
1357
1331.25
1324.06
1320.8
1312.4
1305.33
1292.57
1270.03
1239.45
1187.24
1134.32
1134.97
1148.2
1172.58
1200.42
1230.76
1261.67
1367.17
1372.33
1335.9
1338.33
1315.86
1312.1
1313.26
1308.61
1303.38
1293.03
1274.66
1241.59
1182.1
1142.19
1149.31
1177.64
1240.81
1320.5
1396.21
1458.01
1659.77
1350.02
1316.87
1320.46
1300.88
1295.55
1299.2
1298
1295.89
1289.66
1273.49
1238.84
1177.05
1161.75
1174.8
1242.91
1402.85
1628.26
1819.74
1970.38
2427.92
1327.68
1298.29
1302.5
1285.52
1277.1
1280.92
1281.29
1281.26
1278.74
1265.36
1227.33
1177.59
1178.35
1203.71
1325.64
1635.28
2266.22
3149.17
3715.13
4931.79
1307.16
1280.81
1285.58
1271.83
1261.92
1263.98
1263.58
1262.98
1259.75
1243.48
1198.92
1176.64
1186.06
1234.41
1404.13
1837.96
3215.78
6678.34
8203.76
8587.82
1282.46
1260.49
1266.21
1254.83
1243.58
1243.06
1239.98
1234.84
1222.9
1193.27
1168.52
1175.87
1197.63
1265.48
1467.89
1997
3825.42
8337.72
8738.81
5463.76
1239.74
1223.04
1233.15
1226.94
1218.61
1216.66
1211.66
1202.06
1186.66
1173.32
1176.05
1200.67
1252.06
1370.66
1670.72
2462.99
5064.07
8629.54
5412.77
542.662
1490.63
1504.19
1521.86
1531.09
1542.28
1549.39
1556.27
1551.13
1527.8
1501.84
1473.95
1445.92
1419.25
1394.54
1371.49
1349.3
1327.05
1306.59
1281.76
1238.8
1503.75
1525.13
1543.32
1552.5
1565.22
1579.28
1590.45
1579.47
1532.05
1483.75
1441.08
1406.71
1379.2
1355.9
1335.29
1316.46
1297.97
1280.52
1260.04
1222.26
1521.23
1542.95
1558.18
1561.07
1573.07
1596.68
1613.04
1597.47
1527.4
1463.54
1423.08
1396.27
1375.15
1356.02
1337.77
1320.14
1302.26
1285.38
1265.85
1232.49
1530.35
1552.55
1561.93
1559.25
1553.33
1596.45
1629.95
1633.19
1538.16
1374.95
1365.92
1357.36
1345.19
1330.51
1315.24
1300.4
1285.19
1271.6
1254.45
1226.33
1541.15
1563.85
1571.47
1549.79
1324.1
1299.67
1313.9
1328.64
1328.82
1323.99
1312.39
1296.18
1277.94
1262.64
1243.79
1218.27
1548.27
1577.35
1593.59
1592.16
1298.28
1301.29
1305.79
1315.7
1322.34
1320.63
1313.48
1299.94
1282.01
1264.98
1243.65
1216.74
1555.37
1588.92
1610.8
1626.78
1304.49
1301.2
1301.76
1306.25
1313
1312.82
1309.06
1298.61
1281.99
1264.23
1240.42
1211.91
1550.75
1578.87
1596.76
1632.35
1300.66
1292.55
1293.7
1296.64
1303.67
1306.51
1304.68
1297.36
1282.87
1264.33
1235.75
1202.81
1528.26
1532.73
1528.68
1541.16
1320.04
1296.87
1302.32
1297.51
1241.96
1251.79
1260.92
1271.08
1283.48
1293.18
1294.23
1291.17
1280.52
1261.46
1224.44
1188.21
1502.78
1485.19
1465.32
1375.98
1298.97
1301.54
1301.14
1290.82
1250.34
1218.47
1221.6
1236.11
1254.19
1269.67
1275.21
1274.4
1266.83
1245.37
1195.58
1175.22
1475.19
1442.93
1425.16
1367.51
1314.43
1306.37
1301.64
1292.64
1260.94
1222.29
1200.02
1208
1224.39
1238.64
1241.72
1239.42
1228.65
1200.55
1169.99
1177.69
1447.25
1408.68
1398.39
1359.24
1330.08
1316.77
1306.11
1295.97
1271.26
1237.11
1208.62
1195.24
1189.3
1186.69
1181.97
1176.85
1176.57
1176.09
1176.18
1202.05
1420.46
1380.93
1377.05
1347.06
1330.31
1323.42
1312.87
1302.98
1283.21
1254.79
1225.34
1189.82
1145.56
1133.84
1141
1159.9
1176.56
1184.51
1196.48
1252.29
1395.56
1357.24
1357.53
1332.17
1325.38
1321.65
1312.8
1305.5
1292.24
1269.38
1238.64
1186.31
1133.68
1134.78
1148.27
1172.66
1200.41
1230.83
1261.86
1368.11
1372.38
1336.27
1338.83
1316.58
1313.5
1314.31
1309.17
1303.68
1292.91
1274.08
1240.76
1180.85
1141.08
1148.42
1177.11
1240.33
1320.14
1396.22
1458.69
1661.93
1350.09
1317.22
1320.89
1301.44
1296.87
1300.36
1298.7
1296.4
1289.72
1273
1237.98
1175.57
1160.19
1173.39
1241.71
1401.46
1626.72
1819.31
1971.98
2432.98
1327.77
1298.61
1302.85
1285.98
1278.2
1281.99
1281.96
1281.88
1279.01
1265.06
1226.4
1175.8
1176.68
1202.18
1324.03
1632.6
2260.7
3148.03
3722.25
4950.5
1307.26
1281.1
1285.89
1272.24
1262.74
1264.81
1264.14
1263.51
1260.06
1243.28
1197.88
1175.48
1184.89
1233.25
1402.64
1835.07
3206.73
6673.88
8218
8604.45
1282.58
1260.75
1266.48
1255.22
1244.15
1243.65
1240.36
1235.22
1223.21
1193.2
1168.27
1175.36
1196.89
1264.59
1466.83
1995.61
3821.14
8334.8
8743.5
5473.02
1239.84
1223.25
1233.42
1227.38
1219
1217.01
1211.9
1202.35
1186.96
1173.46
1176.11
1200.75
1251.93
1370.49
1671.15
2465.02
5068.56
8628.83
5413.4
542.798
1493.94
1506.35
1523.45
1532.6
1543.9
1550.96
1557.7
1552.63
1529.71
1504.03
1476.34
1448.65
1422.38
1398.02
1375
1352.43
1329.57
1307.97
1280.72
1234.27
1505.87
1526.02
1544.02
1553.53
1566.81
1580.78
1591.76
1580.89
1533.82
1485.81
1443.08
1408.76
1381.55
1358.72
1338.39
1319.29
1300
1281.45
1258.63
1216.53
1522.81
1543.75
1559.52
1563.35
1575.46
1598.95
1615.03
1599.57
1530.16
1466.54
1425.6
1398.34
1377.2
1358.43
1340.54
1322.73
1304.02
1286.09
1264.24
1226.17
1531.89
1553.9
1564.49
1561.99
1556.84
1599.41
1632.34
1635.63
1539.41
1378.48
1367.86
1358.38
1346.13
1332.02
1317.23
1302.1
1285.98
1271.3
1251.74
1218.54
1542.77
1565.51
1573.81
1552.6
1325.9
1298.75
1314.39
1329.54
1329.69
1324.76
1312.74
1295.71
1276.68
1260.45
1239.35
1209.63
1549.83
1578.74
1595.44
1593.86
1292.9
1295.93
1301.82
1313.4
1321.6
1320.11
1312.82
1298.55
1279.73
1261.58
1237.59
1207.01
1556.69
1589.95
1612.22
1628.3
1295.46
1296.52
1298.72
1305.26
1313.03
1313.05
1308.99
1297.42
1279.45
1260.06
1232.79
1200.94
1552.2
1580.05
1598.41
1633.77
1293.79
1290.45
1292.87
1297.12
1304.87
1306.26
1303.93
1295.26
1279.11
1258.59
1225.94
1190.37
1529.93
1534.11
1530.69
1541.83
1326.66
1296.66
1300.88
1298.84
1245.87
1253.54
1263.24
1273.12
1285.22
1292.29
1291.91
1287.38
1275.05
1253.57
1211.55
1174.73
1504.6
1486.57
1467.2
1380.48
1301.64
1300.48
1300.72
1292.53
1252.88
1221.88
1224.95
1238.91
1255.96
1268.07
1270.54
1268.76
1259.34
1234.41
1179.38
1162.86
1477.11
1444.11
1426.52
1368.94
1315.97
1305.68
1302.26
1295.06
1263.21
1224.8
1203.08
1211.05
1224.63
1234.09
1234.72
1231.25
1217.69
1185.25
1155.99
1167.28
1449.41
1409.83
1399.5
1359.32
1330.64
1316.22
1307.78
1298.9
1273.59
1239.15
1211.56
1194.78
1183.72
1177.13
1170.95
1164.93
1164.53
1164.23
1164.95
1196.68
1422.98
1382.42
1378.27
1347.08
1330.76
1323.15
1314.43
1305.96
1285.87
1256.82
1225.93
1184.95
1133.77
1121.59
1130.38
1150.87
1166.64
1175.37
1189.56
1253.12
1398.41
1359.23
1359.14
1332.84
1325.75
1321.39
1314.2
1307.08
1292.84
1268.94
1235.32
1178.85
1122.51
1123.92
1139.2
1165.75
1195.91
1229.65
1263.17
1379.7
1375.25
1338.57
1340.83
1317.81
1313.47
1313.75
1309.82
1304.6
1292.42
1271.2
1235.75
1172.42
1131.69
1140.04
1172.13
1241.98
1329.17
1409.47
1475.28
1692.65
1352.6
1319.27
1322.75
1302.48
1296.13
1299.11
1297.97
1295.67
1287.74
1269.28
1231.89
1166
1152.56
1167.56
1243.74
1418.97
1657.67
1857.37
2019.49
2510.36
1329.7
1299.9
1303.94
1286.22
1276.86
1280.05
1279.84
1279.31
1275.23
1259.6
1217.79
1165.83
1168.37
1198.63
1333.28
1663.47
2336.29
3263.2
3859.83
5134.55
1308.15
1281.41
1286.04
1271.58
1260.63
1261.89
1260.49
1258.85
1253.81
1234.48
1185.26
1165.47
1177.16
1232.77
1415.95
1872.66
3317.11
6822.27
8309.58
8428.97
1281.13
1258.84
1264.39
1252.19
1239.82
1238.14
1233.44
1226.49
1211.99
1179.51
1156.52
1165.89
1191.14
1266.49
1483.27
2041.23
3945.77
8396.66
8461.41
4587.67
1235
1217.18
1226.73
1219.33
1210.5
1207.86
1201.76
1191.02
1175.2
1163.08
1167.55
1196.78
1253.5
1382.07
1700.78
2538.27
5233.14
8440.41
4544.25
430.225
1499.78
1511.48
1528.27
1537.78
1549.25
1556.11
1562.68
1558.13
1535.96
1510.7
1482.95
1455.04
1428.68
1404.42
1381.39
1358.54
1335.3
1312.46
1281.94
1229.85
1510.94
1530.09
1548.09
1558.24
1571.66
1584.91
1595.53
1585.23
1539.6
1492.4
1449.7
1414.75
1386.7
1363.33
1343.06
1324.37
1305.65
1286.89
1261.71
1213.39
1527.48
1547.7
1563.9
1569.13
1580.76
1603.01
1618.45
1603.8
1535.93
1472.9
1432.17
1404.21
1381.78
1361.87
1343.66
1326.37
1308.75
1291.36
1269.01
1227.12
1536.83
1558.24
1569.95
1567.25
1563.81
1603.55
1635.42
1639.28
1545.31
1386.68
1374.23
1363.82
1350.88
1335.89
1320.4
1305.04
1289.49
1275.03
1254.65
1217.69
1547.97
1570.15
1578.88
1559.58
1330.22
1305.47
1322.75
1335.54
1334.51
1327.42
1313.39
1295.72
1278.02
1262.63
1240.74
1208.17
1554.83
1582.73
1599.34
1597.55
1294.17
1303.47
1309.05
1319.63
1324.41
1321.81
1312.92
1297.87
1280.15
1262.56
1236.63
1203.98
1561.53
1593.64
1615.64
1630.95
1299.72
1304.14
1305.3
1310.44
1315.75
1315.12
1309.97
1297.69
1279.89
1259.74
1229.05
1196.15
1557.59
1584.38
1602.71
1637.79
1298.14
1296.44
1298.04
1301.75
1308.13
1308.73
1306.02
1296.51
1279.16
1256.3
1218.69
1184.37
1536.09
1539.85
1536.67
1548.22
1327.76
1297
1301.22
1299.31
1243.45
1257.86
1267.13
1276.54
1288.04
1294.78
1294.27
1288.75
1274.2
1249.26
1200.97
1169.71
1511
1492.84
1473.58
1386.51
1304.32
1303.52
1304.69
1296.47
1257.9
1226.84
1229.05
1240.81
1257.56
1269.46
1270.95
1268.22
1255.98
1225.53
1166.16
1160.26
1483.29
1450.09
1432.53
1374.39
1322.14
1309.27
1306.08
1298.83
1268.96
1230.8
1206.04
1212.01
1224.39
1231.65
1231.07
1225.35
1208.27
1172.67
1151.64
1169.35
1455.32
1415.01
1404.31
1363.88
1335.31
1320.11
1311.37
1302.87
1278.73
1244.1
1214.51
1194.81
1178.92
1169.41
1163.02
1158.32
1159.74
1160.9
1162.92
1206.11
1428.85
1386.73
1381.64
1350.74
1334.37
1324.98
1316.73
1309.07
1289.93
1260.74
1228.58
1182.96
1127.79
1118.73
1128.76
1149.11
1163.64
1175.91
1195.65
1277.48
1404.47
1363.16
1361.54
1335.69
1327.45
1322.44
1316.13
1309.6
1296.06
1271.69
1235.42
1175.34
1120.75
1122.63
1139.81
1172.02
1210.87
1253.64
1292.98
1437.82
1381.31
1342.72
1343.2
1320.24
1313.59
1313.63
1310.99
1306.84
1295.42
1272.9
1234.61
1168.51
1131.56
1141.53
1188.76
1286.19
1394.68
1481.76
1554.68
1818.71
1358.35
1323.89
1325.81
1304.92
1296.01
1298.52
1298.6
1297.29
1289.9
1270.13
1228.56
1162.79
1152.93
1175.28
1288.29
1516.82
1807.37
2031.15
2223.73
2819.29
1335.03
1305.1
1308.14
1289.39
1278.2
1280.59
1280.72
1280.06
1275.45
1257.69
1211.06
1163.98
1167.97
1215.19
1398.81
1812.29
2708.12
3815.33
4444.39
5818.23
1312.23
1286.42
1290.82
1275.02
1262.71
1262.91
1260.61
1257.39
1250.55
1227.01
1175.59
1164.85
1180.17
1258.39
1488.13
2044.76
3863.1
7576.68
8597.68
7922.1
1281.94
1261.56
1268.65
1254.86
1240.95
1237.12
1230.03
1219.98
1202.16
1167.71
1154.3
1166.28
1199.53
1297.96
1562.65
2243.26
4514.81
8641.32
7729.87
2750.99
1230.09
1213.64
1227.13
1218.4
1208.73
1204.75
1197.15
1185.31
1170.3
1161.54
1170.97
1207.7
1279.41
1441.34
1826.72
2843.98
5893.1
7933.05
2743.4
358.229
1505.47
1517.03
1533.97
1544.31
1556.13
1563.13
1570
1566.67
1545.65
1520.09
1491.65
1463.1
1436.3
1411.58
1387.9
1364.01
1339.57
1314.65
1280.01
1223.64
1516.47
1535.35
1554.25
1566.22
1580.34
1592.79
1603.46
1594.65
1551.01
1503.95
1459.53
1422.98
1393.66
1369.31
1348.24
1328.81
1309.33
1288.69
1259.89
1205.74
1533.06
1553.67
1571.64
1580.04
1591.44
1611.95
1626.8
1613.85
1549.56
1485.61
1441.85
1411.04
1386.48
1365.2
1346.34
1329.11
1311.59
1293.16
1267.87
1220.02
1543.09
1565.61
1580.29
1576.76
1576
1610.22
1639.97
1645.61
1558.6
1401.75
1385.27
1371.62
1356.4
1339.92
1323.45
1307.75
1292.35
1276.8
1253.34
1210.29
1554.77
1578.61
1589.43
1572.76
1338.92
1317.77
1334.86
1341.84
1338.72
1328.48
1312.14
1294
1277.3
1261.71
1237.69
1201.94
1561.77
1590.52
1608.4
1604.32
1310.63
1316.27
1319.98
1327.05
1327.33
1322.71
1310.94
1294.44
1276.85
1258.62
1230.02
1198.07
1568.76
1601.46
1624
1635.81
1313.22
1313.71
1314.32
1317.88
1319.33
1317.06
1308.85
1294.04
1275.17
1253.84
1219.79
1191.65
1566.02
1593.45
1611.96
1643.49
1307.5
1303.37
1304.58
1308.24
1311.93
1311.22
1306.07
1293.59
1274.35
1249.6
1207.28
1181.22
1545.24
1550.08
1548.09
1556.13
1344.3
1306.88
1313.55
1310.3
1262.85
1265.3
1273.09
1282.53
1293.19
1297.35
1295.66
1287.55
1270.11
1241.25
1186.26
1168.4
1519.83
1502.89
1484.13
1400.4
1317.38
1317.33
1316.81
1307.62
1269.5
1233.64
1235.33
1247.68
1264.12
1272.29
1272.37
1267.55
1250.9
1213.31
1159.98
1166.61
1491.49
1458.47
1440.17
1383.8
1334.45
1321.64
1317.65
1309.04
1279.6
1239.33
1215.08
1219.97
1229.07
1232.43
1230.5
1221.93
1201.51
1170.91
1159.47
1189.59
1463
1421.95
1409.34
1369.94
1341.36
1328.76
1320.96
1312.54
1289.37
1255.04
1224.71
1199.79
1176.94
1167.18
1163.56
1165.37
1172.98
1173
1177.34
1241.68
1436.22
1392.66
1384.9
1354.65
1338.21
1328.87
1321.85
1314.99
1298.46
1271.62
1237.35
1183.98
1134.74
1134.75
1148.99
1167.2
1182.52
1202.5
1229.79
1345.57
1411.46
1368.34
1363.74
1338.22
1327.85
1323.91
1319.27
1313.81
1300.8
1277.2
1239.33
1176.35
1136.59
1142.51
1167.15
1215.42
1273.61
1328.58
1377.92
1580.1
1387.72
1347.26
1344.93
1321.83
1311.23
1311.59
1310.48
1308.04
1298.62
1276.75
1237.1
1171.59
1152.83
1169.12
1255.01
1413.16
1559.14
1652.24
1745.59
2122.27
1363.74
1327.8
1327.72
1306.31
1292.88
1294.42
1295.06
1294.98
1289.91
1271.31
1228.01
1172.01
1172.46
1217.73
1412.25
1768
2201.93
2479.62
2732.43
3548.72
1339.21
1308.38
1310.33
1291.16
1276.1
1276.46
1275.82
1275.41
1272.01
1254.04
1206.51
1178.29
1187.43
1275.22
1556.13
2195.55
3761.38
5140.44
5758.22
7123.74
1314.32
1287.92
1292.17
1275.91
1260.7
1258.2
1254.34
1250.53
1242.73
1215.74
1174.74
1177.21
1206.44
1329.91
1650.04
2474.23
5146.6
8745.2
8841.94
6998.54
1279.9
1259.45
1267.23
1252.91
1237.15
1229.88
1220.39
1208.24
1187.4
1161.61
1161.64
1180.58
1232.86
1379.48
1745.15
2731.61
5776.86
8854.9
6556.79
1143.07
1223.84
1205.75
1219.81
1210.55
1202.05
1198.31
1192
1181.52
1168.84
1167.44
1190.78
1242.79
1346.21
1580.25
2122.85
3557.72
7158.29
7043.7
1160.59
348.691
1512.43
1525.71
1543.2
1553.98
1565.94
1573.35
1580.41
1578.54
1560.12
1535.43
1507.1
1478.11
1450.57
1424.6
1399.19
1373.14
1346.22
1318.4
1279.21
1219.66
1525.22
1545.33
1564.98
1577.71
1592.14
1603.95
1614.78
1607.97
1567.8
1522.79
1478.01
1440.27
1409.58
1383.78
1360.96
1339.36
1317.17
1293.34
1260.35
1201.5
1542.34
1564.31
1583.19
1593.09
1604.87
1623.45
1638.04
1627.3
1566.88
1503.07
1458.18
1426.03
1400.31
1378
1357.94
1339.08
1319.38
1298.33
1269.15
1216.65
1552.64
1576.52
1592.75
1590.55
1594.34
1623.45
1650.71
1658.43
1575.49
1419.41
1401.56
1385.93
1369.32
1351.97
1334.8
1318.2
1301.25
1283.47
1256.53
1209.57
1564.46
1590.14
1602.61
1592.04
1359.76
1328.35
1348.83
1353.47
1349.24
1337.08
1319.3
1300.39
1283.05
1266.45
1240.18
1202.88
1572.16
1601.9
1620.25
1617.69
1317.45
1322.53
1331.18
1338.98
1338.03
1331.07
1316.82
1298.32
1279.46
1260.52
1230.19
1200.54
1579.41
1613.07
1635.65
1646.95
1317.94
1319.29
1323.47
1329.44
1329.41
1325.13
1313.41
1295.4
1275.21
1253.85
1218.4
1195.51
1577.82
1606.38
1624.7
1656.7
1310.84
1308.66
1312.23
1318.75
1321.06
1319.09
1310.9
1295.07
1274.36
1248.76
1203.42
1185.85
1558.86
1565.02
1562
1567.11
1355.72
1322.5
1325.1
1318.29
1257.78
1266.46
1278.7
1292.22
1303.52
1304.91
1301.57
1290.42
1270.52
1237.52
1179.6
1175.7
1534.32
1519.61
1498.59
1413.84
1331.44
1328.5
1325.86
1315.18
1273.91
1235.5
1239.62
1256.25
1274.56
1280
1279.01
1271.21
1250.13
1205.82
1164.61
1181.73
1506.18
1475.28
1454.6
1397.45
1349.47
1336.08
1328.9
1318.33
1287.7
1245.09
1222.46
1227.56
1236.36
1237.76
1234.53
1223.9
1203.78
1180.94
1174.7
1216.9
1477.36
1438.09
1423.24
1382.68
1352.67
1341.74
1333.29
1323.96
1300.61
1265.41
1233.53
1202.88
1177.8
1172.81
1174.3
1184.15
1192.36
1190.59
1199.56
1282.32
1449.96
1407.79
1398.06
1366.59
1348.25
1340.2
1332.8
1324.91
1309.34
1282.51
1245.6
1186.13
1152.46
1157.67
1172.26
1189.88
1208.97
1237.63
1272.31
1417.14
1424.03
1382.2
1376.08
1349.53
1335.82
1332.4
1327.73
1322.41
1309.54
1286.19
1246.56
1182.44
1159.2
1167.3
1200.54
1268.17
1343.93
1406.73
1466.65
1717.07
1398.62
1359.48
1356.2
1332.54
1317.97
1317.34
1315.26
1313.27
1305.4