/*--------------------------------*- C++ -*----------------------------------*\
  =========                 |
  \\      /  F ield         | OpenFOAM: The Open Source CFD Toolbox
   \\    /   O peration     | Website:  https://openfoam.org
    \\  /    A nd           | Version:  9
     \\/     M anipulation  |
\*---------------------------------------------------------------------------*/
FoamFile
{
    format      ascii;
    class       volVectorField;
    location    "0.002";
    object      U;
}
// * * * * * * * * * * * * * * * * * * * * * * * * * * * * * * * * * * * * * //

dimensions      [0 1 -1 0 0 0 0];

internalField   nonuniform List<vector> 
9720
(
(-1319.91 -1319.42 -284.623)
(-943.428 -1357.52 -327.424)
(-724.628 -1402.79 -338.298)
(-486.755 -1433.31 -355.245)
(-228.827 -1514.28 -353.482)
(58.8532 -1543.69 -373.569)
(355.574 -1576.09 -388.041)
(637.529 -1599.8 -403.421)
(1007.78 -1588.95 -407.577)
(1349.1 -1509.17 -407.446)
(1650.58 -1401.57 -404.453)
(1920.27 -1299.32 -397.969)
(2169.28 -1216.6 -389.481)
(2407.09 -1156.36 -380.29)
(2639.96 -1113.61 -372.061)
(2871.96 -1085.69 -365.512)
(3106.43 -1062.82 -352.281)
(3352.88 -1012.21 -327.336)
(3576.68 -1065.2 -350.932)
(3834.22 -1050.04 -328.543)
(-1357.65 -942.299 -327.545)
(-1000.39 -1000.57 -370.82)
(-790.756 -1062.42 -368.714)
(-561.391 -1124.01 -374.867)
(-309.548 -1246.11 -379.43)
(-2.0699 -1311.74 -388.408)
(325.688 -1350.74 -408.104)
(645.557 -1384.09 -423.838)
(1122.58 -1303.22 -429.727)
(1507.55 -1093.2 -435.246)
(1808.04 -870.323 -439.166)
(2051.39 -704.522 -439.084)
(2268.64 -602.864 -433.809)
(2476.17 -546.095 -425.387)
(2682.59 -515.725 -414.892)
(2893.12 -501.505 -407.19)
(3109.88 -494.767 -396.847)
(3341.01 -474.745 -350.108)
(3554.92 -491.7 -375.589)
(3824.38 -492.956 -364.96)
(-1401.72 -723.482 -337.81)
(-1059.3 -792.433 -367.485)
(-857.329 -864.048 -338.443)
(-644.602 -950.669 -329.968)
(-394.884 -1107.07 -358.212)
(-57.3314 -1200.12 -365.876)
(300.738 -1236.53 -388.555)
(658.566 -1253.79 -394.515)
(1291.93 -1116.17 -390.929)
(1726.11 -756.546 -383.074)
(1967.12 -480.231 -378.418)
(2163.21 -326.082 -385.944)
(2349.55 -246.394 -393.489)
(2536.61 -203.865 -396.742)
(2729.05 -181.753 -393.686)
(2928.96 -172.523 -388.679)
(3137.38 -169.28 -381.496)
(3360.45 -155.146 -344.675)
(3574.89 -170.627 -363.658)
(3844.49 -174.435 -341.02)
(-1430.35 -485.197 -352.589)
(-1119.36 -561.474 -368.051)
(-943.163 -651.368 -316.792)
(-812.522 -822.393 -329.075)
(-595.247 -994.505 -364.149)
(-188.1 -1085.47 -377.695)
(194.733 -1111.88 -390.612)
(529.832 -1116.06 -410.343)
(1254.62 -969.413 -401.593)
(2025.11 -204.019 -390.876)
(2113.47 9.29688 -349.455)
(2246.54 104.833 -339.524)
(2401.71 146.958 -354.105)
(2576.42 169.796 -377.675)
(2766.58 185.107 -400.651)
(2967.2 194.854 -423.678)
(3176.73 203.837 -429.684)
(3404.5 210.208 -399.895)
(3614.76 215.846 -455.578)
(3866.85 193.083 -448.575)
(-1510.09 -228.339 -350.873)
(-1241.56 -307.754 -371.502)
(-1102.85 -393.408 -342.046)
(-993.795 -583.922 -320.767)
(1918.98 -51.8908 -445.783)
(2104.39 324.447 -359.099)
(2116.52 434.206 -353.003)
(2195.26 491.202 -357.093)
(2309.13 502.986 -371.128)
(2462.77 494.053 -393.935)
(2649.58 484.236 -420.616)
(2857.1 484.129 -437.88)
(3082 490.485 -426.71)
(3325.05 494.029 -418.411)
(3552.93 537.4 -493.359)
(3814.6 507.707 -472.11)
(-1541.9 57.6049 -375.602)
(-1309.12 -3.52484 -390.253)
(-1197.2 -59.5271 -366.625)
(-1086.38 -188.6 -369.768)
(2272.45 559.598 -368.032)
(2453.32 666.097 -355.127)
(2439.41 683.303 -356.754)
(2450.11 709.305 -360.283)
(2491.47 729.081 -366.074)
(2575.63 737.227 -378.751)
(2706.67 739.221 -399.78)
(2876.24 743.299 -416.128)
(3078.75 745.781 -410.73)
(3300.9 751.516 -421.213)
(3515.31 809.81 -499.313)
(3757.05 775.203 -470.314)
(-1573.31 353.988 -391.612)
(-1348.91 323.371 -411.435)
(-1236.58 296.186 -391.491)
(-1114.54 185.305 -394.249)
(2573.71 903.729 -358.796)
(2690.7 995.322 -345.466)
(2662.53 990.376 -343.605)
(2635.93 1010 -341.853)
(2640.98 1019.2 -342.004)
(2676.18 1023.78 -346.734)
(2761.55 1023.61 -360.901)
(2898.43 1023.04 -376.568)
(3080.95 1023.79 -380.756)
(3283.4 1034.32 -410.261)
(3483 1090.09 -498.684)
(3713.44 1035.38 -466.275)
(-1598.96 636.758 -404.847)
(-1382.49 646.889 -426.345)
(-1253 662.66 -399.991)
(-1118.44 528.589 -412.632)
(2721.17 1210.54 -333.409)
(2893.84 1291.01 -322.419)
(2887.38 1279.06 -322.599)
(2859.39 1275.98 -326.473)
(2829.45 1291.03 -332.303)
(2833.4 1297.01 -334.295)
(2869.47 1302.41 -343.041)
(2955.53 1310.96 -359.252)
(3100 1318.9 -372.432)
(3273.62 1331.32 -420.668)
(3470.61 1375.28 -508.887)
(3711.98 1280.39 -457.465)
(-1585.97 1009.08 -412.139)
(-1297.55 1126.03 -437.686)
(-1105.12 1299.21 -404.708)
(-946.583 1281.61 -420.348)
(-26.0797 1923.11 -421.537)
(538.518 2316.72 -359.621)
(902.414 2588.32 -337.136)
(1212.62 2732.55 -306.584)
(2349.09 2531.23 -324.155)
(2805.29 1871.32 -299.45)
(2943.82 1750.99 -328.204)
(2994.74 1672.81 -310.669)
(3002.38 1621.58 -308.591)
(2996.82 1608.6 -322.584)
(3010.18 1608.27 -337.742)
(3063.32 1612.28 -356.703)
(3182.19 1608.3 -380.017)
(3342.64 1604.71 -446.336)
(3559.95 1620.78 -510.555)
(3794.85 1485.06 -424.257)
(-1504.61 1349.81 -414.834)
(-1084.02 1508.61 -448.319)
(-744.521 1726.69 -401.985)
(-189.915 2019.71 -420.148)
(319.732 2113.9 -386.638)
(666.442 2457.77 -347.446)
(998.558 2688.3 -318.629)
(1293.87 2881.87 -285.117)
(1847.29 2866.07 -269.695)
(2360.67 2435.61 -326.673)
(2763.21 2214.88 -314.506)
(2943.15 2082.89 -262.086)
(3028.89 2010.51 -269.471)
(3074.1 1974.64 -305.101)
(3117.15 1951.94 -337.961)
(3200.14 1920.96 -364.18)
(3342.77 1873.51 -402.113)
(3518.07 1855 -463.518)
(3763.51 1840.85 -455.843)
(3885.18 1690.7 -356.563)
(-1396.79 1650.69 -413.615)
(-862.323 1807.24 -454.36)
(-472.382 1965.43 -399.245)
(15.0294 2109.12 -377.424)
(429.294 2130.32 -374.613)
(684.601 2444.38 -351.969)
(994.473 2663.65 -317.278)
(1280.49 2870.31 -285.763)
(1740.88 2976.38 -275.886)
(2199.3 2829.76 -280.36)
(2564.06 2605.02 -207.261)
(2827.34 2451 -204.067)
(2967.36 2379.53 -277.98)
(3085.78 2332.79 -339.018)
(3214.45 2276.34 -369.264)
(3364.9 2216.26 -382.065)
(3532.32 2183.8 -400.811)
(3695.31 2186.36 -403.21)
(3864.89 2115.37 -339.959)
(3832.53 1870.04 -273.905)
(-1295.21 1919.88 -407.686)
(-698.989 2050.09 -453.586)
(-322.274 2161.51 -404.302)
(105.66 2242.24 -362.949)
(485.497 2207.98 -373.701)
(711.103 2454.9 -356.828)
(1007.82 2648.12 -323.3)
(1279.1 2843.46 -294.02)
(1660.14 3007.76 -270.427)
(2078.68 2983.57 -218)
(2448.18 2866.76 -176.749)
(2711.7 2732.6 -247.369)
(2930.25 2670 -364.971)
(3136.01 2631.98 -401.636)
(3305.22 2598.82 -373.33)
(3429.99 2574.81 -336.175)
(3527.56 2548.23 -308.786)
(3633.7 2454.94 -279.013)
(3787.67 2213.42 -236.38)
(3663.79 1919.33 -221.423)
(-1213.14 2168.58 -399.05)
(-599.277 2267.18 -446.575)
(-244.561 2347.87 -408.879)
(144.941 2397.05 -373.496)
(496.31 2318.8 -383.33)
(729.76 2494.6 -362.712)
(1013.34 2656 -325.429)
(1293.25 2823.26 -309.054)
(1616.83 3000 -278.046)
(2005.12 3051.54 -227.986)
(2382.49 2998.97 -231.101)
(2660.58 2962.72 -333.742)
(2954.91 2977.83 -406.496)
(3184.17 2982.62 -335.455)
(3230.2 2931.01 -249.811)
(3268.81 2813.2 -206.516)
(3399.22 2650.45 -214.343)
(3558.17 2418.39 -216.914)
(3591.5 2149.95 -190.237)
(3425.43 2015.03 -221.949)
(-1153.57 2406.29 -389.501)
(-543.581 2474.69 -436.613)
(-202.749 2534.98 -409.836)
(167.137 2571.54 -394.255)
(488.134 2469.4 -401.765)
(736.403 2576.71 -374.757)
(1015.76 2694.67 -332.104)
(1298.28 2831.6 -314.199)
(1607.83 2991.12 -296.34)
(1970.27 3081.55 -269.04)
(2331.62 3107.7 -289.247)
(2625.15 3158.57 -351.206)
(2969.85 3195.41 -310.765)
(3112.1 3120.22 -203.801)
(3071.26 2948.4 -143.126)
(3094.07 2671.7 -129.34)
(3230.94 2447.35 -171.706)
(3298.34 2282.68 -196.156)
(3265.23 2213.3 -213.288)
(3132.7 2236.35 -281.204)
(-1111.41 2639.21 -381.087)
(-513.838 2681.26 -425.262)
(-180.856 2727.58 -405.167)
(183.017 2761.97 -414.974)
(479.567 2653.21 -426.137)
(736.696 2706.79 -395.779)
(1014.48 2781.45 -347.724)
(1303.36 2873.22 -325.999)
(1609.46 3006.4 -313.306)
(1948.93 3118.57 -303.753)
(2272.49 3229.62 -320.335)
(2592.89 3325.44 -324.988)
(2919.37 3247.08 -222.801)
(2939.49 3088.1 -134.626)
(2705.75 2716.43 -123.728)
(2682.79 2351.42 -164.497)
(2814.28 2271 -211.847)
(2872.25 2311.63 -251.738)
(2866.4 2447.06 -321.017)
(2758.9 2570.86 -394.838)
(-1084.04 2871.29 -374.514)
(-499.967 2892 -417.296)
(-171.599 2927.67 -399.214)
(193.499 2963.21 -435.713)
(480.354 2858.5 -443.161)
(739.302 2876.72 -412.726)
(1014.52 2916.64 -365.873)
(1310.91 2962.83 -344.474)
(1615.02 3061.97 -333.478)
(1920.01 3199.48 -330.142)
(2211.86 3377.52 -339.661)
(2569.62 3451.02 -300.483)
(2809.97 3289.73 -189.112)
(2676.56 3115.66 -122.744)
(2365.88 2691.93 -162.728)
(2322.08 2308.49 -296.862)
(2385.16 2255.01 -339.461)
(2474.23 2392.78 -376.481)
(2509.4 2636.34 -427.256)
(2415.89 2689.31 -431.779)
(-1061.69 3105.8 -361.007)
(-493.294 3108.93 -406.568)
(-168.012 3136.16 -390.878)
(203.235 3173.29 -439.372)
(487.549 3082.34 -432.1)
(741.166 3080.47 -408.092)
(1015.66 3095.55 -374.082)
(1316.89 3107.88 -359.462)
(1611.23 3182.21 -357.093)
(1873.5 3342.63 -368.926)
(2180.6 3540.48 -366.029)
(2545.93 3543.1 -285.714)
(2654.01 3414.25 -204.004)
(2460.87 3246.69 -171.252)
(2293 2819.55 -211.355)
(2276.85 2374.58 -336.693)
(2332.02 2320.2 -410.747)
(2355.9 2414.19 -429.452)
(2349.54 2541.78 -419.544)
(1975.71 2436.54 -354.127)
(-1011.39 3352.3 -335.457)
(-473.434 3340.28 -358.736)
(-153.916 3359.33 -352.013)
(210.339 3401.7 -406.908)
(491.716 3325.02 -424.184)
(746.482 3303.5 -420.29)
(1026.22 3294.32 -405.599)
(1328.05 3281.09 -407.36)
(1607.38 3343.57 -422.709)
(1856.66 3518.01 -433.334)
(2185.93 3699.68 -377.364)
(2457.74 3639.16 -267.598)
(2425.57 3566.78 -216.492)
(2293.06 3308.48 -201.395)
(2332.17 2877.72 -252.175)
(2415.97 2471.56 -369.595)
(2424.11 2351.39 -424.111)
(2353.66 2350.4 -405.209)
(2072.54 2220.35 -316.122)
(1047.15 1403.21 -154.855)
(-1064.4 3576.46 -359.31)
(-490.294 3554.4 -384.756)
(-169.135 3573.77 -371.639)
(216.71 3612.17 -462.027)
(534.96 3552.6 -501.459)
(804.663 3517.4 -500.447)
(1083.33 3489.53 -493.545)
(1372.63 3474.73 -494.279)
(1622.64 3559.02 -487.938)
(1842.64 3763.87 -433.738)
(2117.49 3863.3 -328.443)
(2219.84 3788.12 -239.082)
(2153.2 3597.35 -201.049)
(2217.78 3270.54 -220.845)
(2462.08 2869.82 -313.883)
(2648.18 2513.25 -407.397)
(2546.97 2352.34 -402.587)
(2223.99 2075.06 -306.803)
(1153.22 1153.36 -126.263)
(50.114 69.4334 -4.74067)
(-1049.52 3834.28 -336.028)
(-492.019 3824.15 -373.955)
(-173.165 3843.76 -349.16)
(194.108 3865.25 -455.203)
(506.47 3814.28 -479.931)
(772.11 3758.56 -471.867)
(1032.24 3715.32 -463.252)
(1279.05 3713.46 -447.748)
(1484.98 3796.72 -411.621)
(1693.64 3887.1 -348.533)
(1875.52 3831.27 -275.298)
(1920.51 3661.8 -230.809)
(2013.88 3423.9 -231.909)
(2240.46 3135.3 -281.369)
(2579.68 2765.62 -376.692)
(2694.87 2424.33 -407.342)
(2440.65 1983.11 -333.44)
(1407.25 1051.87 -145.938)
(69.6187 50.3173 -4.5493)
(0.0192122 0.0191718 -0.000772832)
(-1329.26 -1329.05 -246.989)
(-957.511 -1373.34 -277.682)
(-744.137 -1424.98 -281.78)
(-506.123 -1464.15 -299.558)
(-245.576 -1549.05 -298.888)
(43.7651 -1584 -314.62)
(342.438 -1614.17 -325.678)
(633.358 -1643.58 -339.957)
(1015.31 -1628.01 -336.135)
(1358.87 -1541.32 -331.969)
(1658.82 -1424.36 -328.561)
(1924.4 -1314.12 -324.798)
(2168.24 -1226.67 -321.661)
(2400.51 -1163.18 -319.757)
(2627.99 -1118.77 -319.879)
(2855.18 -1090.09 -323.888)
(3086.31 -1070.54 -324.549)
(3332.08 -1017.84 -308.364)
(3557.16 -1066.16 -341.201)
(3829.74 -1058.83 -322.399)
(-1373.09 -956.83 -277.792)
(-1021.14 -1022.25 -306.897)
(-816.415 -1093.66 -299.316)
(-585.686 -1168.62 -307.964)
(-330.83 -1295.85 -311.717)
(-19.187 -1366.4 -323.015)
(312.727 -1406.23 -338.714)
(646.553 -1437 -351.626)
(1141.26 -1351.12 -347.009)
(1531.81 -1123.99 -340.426)
(1827.72 -889.489 -340.784)
(2064.36 -715.645 -343.914)
(2274.62 -607.921 -346.2)
(2475.16 -547.336 -347.89)
(2674.84 -514.887 -348.17)
(2879.08 -500.577 -351.916)
(3091.21 -497.061 -359.436)
(3320.97 -477.886 -324.981)
(3535.48 -498.538 -353.399)
(3816.62 -505.276 -347.81)
(-1422.92 -743.554 -281.943)
(-1087.69 -819.428 -299.364)
(-890.062 -901.077 -272.684)
(-680.015 -1005.7 -267.177)
(-420.624 -1169.52 -292.465)
(-75.2188 -1261.73 -307.429)
(287.484 -1298.62 -327.556)
(662.805 -1308.05 -332.315)
(1317.92 -1163.24 -318.694)
(1757.88 -794.275 -298.937)
(1994.64 -508.616 -288.189)
(2184.54 -348.01 -296.475)
(2364.92 -263.477 -309.47)
(2546.64 -216.22 -321.132)
(2734.51 -189.937 -328.204)
(2930.03 -178.382 -332.742)
(3134.06 -176.958 -339.944)
(3353.99 -162.948 -316.503)
(3564.85 -182.426 -341.991)
(3842.66 -191.266 -329.605)
(-1459.26 -505.676 -298.735)
(-1159.07 -587.617 -305.686)
(-992.174 -690.552 -264.651)
(-859.636 -883.791 -279.31)
(-623.025 -1077.34 -305.749)
(-208.025 -1152.7 -326.581)
(178.045 -1174.91 -342.639)
(525.366 -1182.56 -355.605)
(1278.72 -1026.31 -314.133)
(2071.85 -239.75 -288.729)
(2149.77 -17.4413 -264.432)
(2272.64 82.3875 -273.976)
(2419.5 124.954 -298.239)
(2586.86 146.929 -323.659)
(2769.94 163.647 -342.967)
(2963.78 176.135 -362.304)
(3167.34 186.595 -376.677)
(3390.41 196.997 -351.263)
(3600.62 204.431 -396.53)
(3865.5 184.372 -391.768)
(-1543.76 -246.287 -298.202)
(-1286.65 -332.24 -309.471)
(-1158.26 -426.276 -291.568)
(-1066.51 -643.542 -300.436)
(1963.38 -101.251 -300.503)
(2186.22 288.528 -288.354)
(2185.15 402.185 -281.583)
(2252.37 470.918 -298.501)
(2353.61 488.443 -319.004)
(2490.42 479.862 -341.889)
(2659.82 464.761 -363.81)
(2852.51 456.881 -383.405)
(3065.76 459.775 -383.767)
(3305.27 461.514 -366.995)
(3530.78 509.664 -425.444)
(3810.43 492.889 -406.74)
(-1580.83 41.3479 -315.58)
(-1362.8 -23.4343 -324.344)
(-1260.18 -82.3684 -311.58)
(-1155.16 -218.641 -331.678)
(2373.68 528.787 -316.249)
(2551.24 633.966 -295.834)
(2533.6 648.451 -292.36)
(2534.45 676.368 -298.631)
(2565.85 697.773 -313.199)
(2636.31 707.352 -329.881)
(2750.86 707.015 -349.119)
(2903.28 707.046 -368.679)
(3089.08 708.928 -373.372)
(3305.18 710.426 -371.083)
(3508.87 773.373 -431.677)
(3761.29 757.959 -407.083)
(-1613.48 340.104 -329.163)
(-1404.5 309.196 -342.018)
(-1297.76 281.986 -331.084)
(-1176.72 167.901 -346.446)
(2678.59 872.588 -302.684)
(2813.35 955.99 -285.256)
(2789.68 950.933 -276.85)
(2755.69 963.932 -282.742)
(2753.78 978.514 -299.157)
(2778.64 984.411 -309.36)
(2843.39 986.027 -323.082)
(2955.51 986.42 -343.408)
(3114.44 986.933 -359.306)
(3309.23 990.293 -372.652)
(3495.19 1049.67 -439.586)
(3727.18 1017.13 -411.037)
(-1641.99 629.13 -341.651)
(-1436.24 640.804 -355.009)
(-1308.89 657.052 -339.078)
(-1183.57 520.869 -360.392)
(2879.43 1165.15 -289.505)
(3033.14 1257.17 -279.008)
(3027.85 1242.78 -276.591)
(3000.35 1237.34 -280.162)
(2959.68 1245.7 -292.222)
(2950.85 1261.46 -306.233)
(2971.86 1266.95 -314.782)
(3034.89 1274.26 -334.518)
(3152.19 1282.07 -357.215)
(3313.88 1287.7 -386.795)
(3487.51 1336.6 -454.075)
(3721.05 1271.45 -411.688)
(-1627.73 1011.68 -344.052)
(-1350.86 1137.98 -360.733)
(-1158.81 1316.77 -342.905)
(-991.794 1286.64 -343.848)
(-54.0022 1946 -309.985)
(542.012 2340.35 -340.81)
(877.162 2652.23 -296.56)
(1169.2 2855.59 -269.787)
(2347.11 2637.56 -212.431)
(2929.88 1874.8 -263.408)
(3069.08 1737.92 -289.968)
(3125.39 1654.18 -273.115)
(3128.82 1596.92 -277.105)
(3115.72 1579.73 -298.575)
(3119.28 1577.03 -320.984)
(3151.55 1580.77 -340.927)
(3236.89 1583.17 -361.437)
(3375.77 1575.46 -402.577)
(3557.27 1598.29 -462.334)
(3796.11 1491.84 -391.741)
(-1542.52 1356.86 -343.546)
(-1123.53 1531.87 -361.001)
(-790.622 1760.08 -330.435)
(-221.586 2065.17 -325.657)
(304.321 2150.25 -326.28)
(640.772 2512.63 -305.087)
(953.774 2787.96 -277.886)
(1251.84 3011.28 -256.227)
(1835.42 2974.8 -241.439)
(2402.29 2472.62 -275.411)
(2841.44 2219.85 -271.107)
(3045.25 2083.59 -236.622)
(3140.76 2000.48 -250.705)
(3187.04 1952.13 -289.552)
(3215.77 1927.7 -324.518)
(3268.11 1907.84 -347.396)
(3376.04 1870.28 -369.585)
(3525.68 1834.44 -425.453)
(3741.64 1829.82 -453.698)
(3918.21 1703.2 -343.118)
(-1425.69 1657.84 -340.943)
(-888.711 1828.94 -361.178)
(-506.304 1998.39 -315.937)
(-9.35534 2150.37 -291.738)
(413.608 2160.89 -296.183)
(655.643 2502.97 -292.395)
(949.649 2770.06 -268.32)
(1236.69 3001.77 -255.885)
(1722.64 3089.72 -248.598)
(2197.46 2890.33 -246.783)
(2591.46 2629.97 -195.155)
(2893.15 2464.85 -187.574)
(3051.32 2376.39 -258.039)
(3162.21 2323.31 -320.396)
(3269.08 2271.98 -354.17)
(3395.12 2212.1 -368.582)
(3549.64 2161.67 -387.657)
(3711.88 2155.12 -417.058)
(3906.76 2124.18 -362.906)
(3928.06 1935.05 -244.146)
(-1315.12 1923.87 -336.321)
(-713.528 2065.54 -360.526)
(-344.134 2187.4 -316.143)
(87.6184 2275.43 -291.202)
(477.793 2235.43 -299.113)
(680.895 2510.46 -290.276)
(962.52 2744.26 -270.07)
(1233.35 2974.59 -260.807)
(1639.77 3126.06 -240.54)
(2074.13 3071.26 -195.473)
(2455.03 2921.38 -165.334)
(2740.72 2758.2 -222.253)
(2958.52 2665.35 -328.668)
(3153 2616.29 -383.255)
(3332.07 2575.85 -374.297)
(3482.84 2550.86 -345.014)
(3605.19 2543.08 -321.285)
(3714.52 2503.37 -292.785)
(3866.76 2333.78 -206.899)
(3786.74 2018.71 -132.972)
(-1227.28 2168.03 -331.812)
(-604.699 2275.63 -358.738)
(-258.465 2366.9 -322.443)
(129.398 2422.5 -309.46)
(491.129 2340.32 -315.615)
(699.711 2544.4 -300.874)
(972.803 2745.23 -278.898)
(1244.14 2939 -274.293)
(1587.44 3119.88 -251.504)
(1990.24 3152.56 -209.895)
(2374.99 3072.12 -211.059)
(2661.83 2983.21 -300.161)
(2931.95 2946.52 -397.387)
(3198.24 2953.27 -363.405)
(3314.04 2939.07 -263.785)
(3360.96 2867.89 -192.126)
(3462.91 2745.89 -172.598)
(3623.58 2546.42 -165.782)
(3705.71 2277.09 -89.4152)
(3553.44 2080.59 -90.2308)
(-1163.52 2400.51 -328.643)
(-543.81 2475.93 -357.593)
(-211.165 2547.83 -329.942)
(151.114 2588.98 -332.34)
(479.787 2480.46 -341.502)
(707.59 2617.04 -318.334)
(977.368 2771.29 -288.973)
(1257.8 2934.88 -288.569)
(1571.84 3104.6 -276.862)
(1942.81 3188.39 -256.879)
(2320.48 3174.59 -278.432)
(2615.38 3169.35 -342.525)
(2945.62 3207.66 -340.794)
(3170.99 3181.62 -209.024)
(3158.81 3051.62 -92.7908)
(3179.96 2809.04 -41.2764)
(3314.44 2585.32 -69.8978)
(3405.83 2385.39 -82.5874)
(3385.43 2269.73 -69.1887)
(3270.41 2242.71 -137.88)
(-1118.98 2628 -327.83)
(-511.644 2675.09 -356.252)
(-185.454 2735 -334.998)
(167.71 2770.89 -351.308)
(463.376 2653.18 -366.424)
(706.19 2734.5 -340.781)
(978.364 2838.88 -307.372)
(1263.65 2959.85 -301.027)
(1571.14 3109.99 -300.037)
(1919.88 3213.55 -298.05)
(2266.23 3278.26 -319.494)
(2571.87 3349.15 -335.558)
(2928.76 3331.03 -235.528)
(3032.4 3182.15 -86.2908)
(2857.33 2872.03 -16.2689)
(2798.92 2481.04 -7.69669)
(2928.57 2351.8 -65.3293)
(3006.49 2356.6 -108.314)
(3014.53 2432.23 -178.202)
(2907.27 2522.23 -325.198)
(-1090.35 2854.99 -331.373)
(-497.928 2878.54 -359.49)
(-174.65 2929.98 -339.019)
(179.967 2963.91 -370.468)
(455.713 2848.21 -387.408)
(705.478 2890.57 -364.138)
(979.068 2953.83 -332.324)
(1271.6 3026.8 -322.015)
(1577.46 3144.14 -320.035)
(1901.87 3266.34 -321.443)
(2204.9 3406.89 -338.737)
(2546.19 3504.96 -316.753)
(2856.54 3384.79 -178.309)
(2795.55 3204.16 -44.8232)
(2482.69 2797.88 -16.6179)
(2414.29 2392.77 -162.144)
(2508.85 2321.73 -199.243)
(2597.62 2421.99 -257.457)
(2631.35 2630.93 -406.737)
(2506.04 2696.35 -507.874)
(-1070.91 3085.78 -332.101)
(-494.791 3089.84 -367.643)
(-173.468 3133.66 -346.803)
(190.344 3167.24 -384.64)
(459.544 3062.88 -387.821)
(706.964 3080.05 -371.095)
(980.798 3114.1 -348.29)
(1279.9 3147.28 -340.693)
(1582.14 3231.12 -339.542)
(1864.94 3376.58 -344.641)
(2155.63 3563.72 -362.302)
(2537.56 3625.32 -303.882)
(2733.6 3484.2 -172.741)
(2574.32 3327.67 -83.6093)
(2357.28 2917.37 -79.3373)
(2336.44 2482.49 -208.918)
(2360.21 2347.13 -370.269)
(2398.71 2448.12 -448.236)
(2385.31 2569.24 -530.642)
(2069.6 2515.64 -557.409)
(-1018.06 3331.31 -315.117)
(-476.087 3319.08 -332.925)
(-160.324 3353.48 -322.689)
(200.175 3390.26 -357.861)
(461.959 3303.33 -370.162)
(708.604 3299.12 -368.125)
(986.335 3308.18 -361.366)
(1286.91 3309.74 -368.476)
(1576.43 3370.88 -382.45)
(1831.45 3529.36 -402.179)
(2153.1 3726.16 -396.211)
(2495.05 3724.26 -285.251)
(2532.22 3636.51 -178.667)
(2375.09 3407.25 -100.316)
(2358.39 2988.71 -123.398)
(2428.43 2570.36 -264.77)
(2447.97 2385.35 -443.885)
(2359.34 2359.89 -524.111)
(2127.31 2272.62 -545.757)
(1285.63 1686.67 -403.842)
(-1066.08 3556.58 -348.122)
(-497.276 3533.85 -361.599)
(-180.83 3563.82 -349.264)
(207.138 3600.62 -402.18)
(510.84 3529.13 -430.357)
(772.294 3503.77 -429.548)
(1047.67 3491.32 -430.068)
(1336.88 3482.6 -438.756)
(1598.91 3554.8 -446.171)
(1827.49 3748.24 -432.719)
(2122.06 3914.68 -350.648)
(2325.12 3869.48 -214.462)
(2263.81 3709.5 -108.561)
(2259.34 3378.53 -85.5786)
(2433.59 2993.58 -188.767)
(2630.21 2608.62 -400.408)
(2558.56 2377.91 -513.266)
(2263.58 2130.6 -535.153)
(1423.18 1432.73 -357.455)
(143.325 196.101 -38.955)
(-1059.37 3830.31 -329.171)
(-505.033 3816.83 -355.929)
(-190.537 3841.82 -337.179)
(186.413 3866.83 -396.371)
(494.46 3809.46 -411.38)
(757.722 3758.38 -406.42)
(1016.75 3723.4 -405.736)
(1270.9 3719.33 -401.696)
(1489.23 3799.76 -380.374)
(1702.34 3927.22 -332.492)
(1936.88 3930.88 -246.158)
(2011.03 3786.06 -146.511)
(2068.17 3548.02 -105.552)
(2235.61 3258.13 -149.84)
(2527.01 2888.82 -325.039)
(2693.05 2493.78 -488.318)
(2502.28 2064.76 -534.484)
(1672.95 1285.23 -386.941)
(188.189 141.975 -36.8961)
(0.175542 0.184001 -0.0256372)
(-1351.29 -1350.62 -194.688)
(-978.83 -1401.25 -213.903)
(-764.944 -1455.26 -213.921)
(-523.988 -1497.89 -227.571)
(-263.313 -1587.54 -228.539)
(27.928 -1623.29 -239.785)
(329.152 -1650.44 -248.38)
(629.927 -1682.64 -261.195)
(1018.78 -1666.11 -260.803)
(1365.02 -1575.7 -259.143)
(1664.23 -1452.8 -256.817)
(1927.45 -1337.79 -254.152)
(2168.97 -1248.14 -252.956)
(2399.84 -1184.18 -254.25)
(2626.88 -1140.74 -258.739)
(2853.87 -1112.95 -267.137)
(3083.69 -1099.62 -277.601)
(3326.93 -1043.38 -272.597)
(3553 -1083.86 -301.294)
(3838.55 -1080.16 -286.007)
(-1401.78 -977.336 -214.374)
(-1046.43 -1044.55 -231.063)
(-840.067 -1113.41 -222.252)
(-607.692 -1190.85 -226.983)
(-353.245 -1326.3 -231.393)
(-37.1327 -1401.55 -242.244)
(298.902 -1437.86 -253.732)
(645.125 -1467.21 -266.512)
(1149.52 -1379.07 -265.28)
(1545.73 -1143.31 -262.057)
(1837.83 -902.773 -260.705)
(2069.42 -724.886 -260.821)
(2277.07 -616.198 -262.41)
(2476.58 -557.53 -266.145)
(2676.12 -528.923 -271.499)
(2880.55 -519.006 -280.506)
(3091.6 -520.846 -297.664)
(3318.95 -502.436 -284.075)
(3536.4 -523.788 -309.702)
(3830.94 -530.515 -306.31)
(-1454.21 -763.512 -215.873)
(-1113.11 -837.899 -224.835)
(-912.742 -912.887 -202.678)
(-707.583 -1023.21 -191.364)
(-444.398 -1201.59 -212.121)
(-91.6727 -1298.19 -227.773)
(275.257 -1330.02 -241.533)
(664.166 -1337.75 -249.108)
(1326.05 -1176.16 -239.332)
(1771.32 -806.008 -227.94)
(2007.71 -522.882 -222.129)
(2191.8 -358.874 -226.231)
(2367.49 -272.32 -234.546)
(2545.75 -226.456 -244.003)
(2731.26 -204.59 -253.859)
(2924.69 -199.398 -265.841)
(3125.39 -204.182 -286.392)
(3343.32 -192.13 -278.076)
(3554.89 -209.792 -313.841)
(3851.18 -217.515 -315.811)
(-1494.27 -524.872 -231.52)
(-1187.02 -607.7 -233.664)
(-1020.64 -709.502 -200.912)
(-898.032 -908.738 -207.898)
(-657.552 -1122.09 -223.164)
(-224.918 -1193.38 -243.54)
(164.135 -1210.52 -258.25)
(520.475 -1217.94 -264.871)
(1295.37 -1052.36 -236.388)
(2089.59 -252.357 -203.521)
(2163.28 -31.1701 -200.881)
(2278.44 69.548 -218.21)
(2416.42 113.078 -238.465)
(2574.07 129.976 -257.251)
(2749.81 138.855 -272.134)
(2940.2 144.851 -289.3)
(3142.02 151.362 -312.82)
(3365.6 160.74 -299.264)
(3581.84 163.016 -341.663)
(3877.23 145.675 -348.609)
(-1582.98 -266.808 -231.746)
(-1320.42 -357.935 -238.172)
(-1198.64 -452.712 -227.457)
(-1115.66 -678.569 -250.796)
(1978.61 -133.149 -229.591)
(2254.09 259.162 -247.358)
(2249.93 365.149 -230.791)
(2305.65 447.339 -235.91)
(2393.63 471.854 -247.501)
(2512.47 465.744 -261.118)
(2665.77 445.878 -278.806)
(2848.3 426.485 -303.473)
(3054.58 421.78 -320.65)
(3291.68 414.519 -312.42)
(3518.68 453.528 -364.879)
(3827.01 451.904 -359.311)
(-1619.58 24.1024 -241.188)
(-1398.55 -43.6708 -245.184)
(-1298.78 -100.999 -234.447)
(-1197.21 -236.648 -257.374)
(2482.5 488.348 -283.563)
(2644.05 606.496 -251.362)
(2632.49 612.618 -247.017)
(2623.8 641.082 -245.802)
(2646.23 663.048 -251.283)
(2700.64 675.769 -259.992)
(2796.43 674.462 -275.731)
(2933.04 669.318 -299.348)
(3103.84 670.159 -319.144)
(3311.7 660.315 -321.375)
(3509.21 716.745 -367.035)
(3781.64 722.484 -355.487)
(-1651.54 326.814 -250.996)
(-1436.95 295.141 -256.497)
(-1329.05 270.618 -245.34)
(-1210.45 158.286 -265.001)
(2797.07 838.592 -279.196)
(2913.5 924.012 -255.969)
(2903.53 919.151 -250.373)
(2872.64 924.369 -243.476)
(2859.36 942.458 -252.887)
(2871.5 949.791 -259.084)
(2916.4 952.756 -271.648)
(3007.02 953.42 -292.943)
(3144.53 954.867 -313.51)
(3328.84 945.527 -319.879)
(3504.67 1005.28 -364.334)
(3748.72 997.628 -352.007)
(-1679.11 622.919 -261.398)
(-1463.57 633.211 -266.055)
(-1335.51 648.553 -248.413)
(-1216.59 514.071 -269.077)
(3004.79 1134.86 -272.733)
(3119.4 1238.9 -262.27)
(3121.06 1217.25 -257.678)
(3098.96 1211.14 -256.128)
(3059.55 1216.31 -255.159)
(3037.77 1233.8 -267.713)
(3047.72 1239.67 -276.277)
(3094.27 1245.74 -294.817)
(3190.31 1251.91 -312.605)
(3337.86 1248.11 -321.531)
(3488.67 1306.41 -366.026)
(3722.64 1274.02 -350.658)
(-1665.67 1010.31 -262.419)
(-1383.17 1136.29 -268.501)
(-1188.39 1310.79 -248.459)
(-1058.95 1280.42 -269.454)
(-122.412 1965.84 -290.346)
(473.169 2416.69 -288.213)
(823.034 2780.69 -274.945)
(1123.91 2986.14 -264.263)
(2536.32 2469.82 -276.308)
(2999.45 1846.48 -269.088)
(3137.07 1715.54 -275.618)
(3203.51 1640.15 -259.796)
(3209.52 1579.56 -256.124)
(3194.02 1556.39 -270.198)
(3189.83 1553.33 -288.624)
(3207.71 1556.96 -302.911)
(3263.59 1562.53 -314.27)
(3375.88 1556.63 -331.773)
(3523.22 1600.29 -380.486)
(3772.1 1523.1 -349.065)
(-1579.68 1359.15 -262.694)
(-1152.31 1538.66 -269.59)
(-819.596 1765.27 -243.548)
(-280.19 2089.29 -238.424)
(241.665 2205.34 -265.572)
(583.321 2621.01 -257.358)
(909.265 2905.62 -251.333)
(1228.3 3109.32 -255.125)
(1837.88 3005.11 -267.127)
(2436.31 2453.51 -265.625)
(2883.86 2199.58 -287.853)
(3096.68 2078.46 -266.951)
(3197.87 1988.32 -254.035)
(3252.6 1930.59 -266.279)
(3273.94 1906.06 -286.922)
(3301.32 1895.95 -303.745)
(3370.3 1871.6 -318.441)
(3495.37 1832.11 -349.443)
(3670.35 1841.51 -379.607)
(3917.24 1724.26 -317.718)
(-1458.61 1661.29 -262.471)
(-911.733 1836.38 -270.924)
(-533.454 2007.67 -238.551)
(-51.2917 2166.16 -229.925)
(345.173 2207.16 -258.626)
(587.94 2605.37 -257.498)
(900.914 2890.47 -247.706)
(1205.95 3104.9 -252.783)
(1710.91 3140.95 -273.161)
(2198.63 2903.94 -273.726)
(2606.99 2623.95 -270.555)
(2921.05 2459.67 -256.513)
(3097.39 2363.29 -258.442)
(3207.34 2309.06 -277.686)
(3295.59 2267.09 -299.514)
(3396.42 2213.4 -310.906)
(3533.72 2143.77 -323.699)
(3689.67 2113.48 -351.626)
(3900.01 2113.02 -337.016)
(3998.98 1967.92 -270.263)
(-1343.64 1926.66 -261.439)
(-730.749 2070.81 -272.827)
(-363.902 2193.19 -241.877)
(57.67 2283.47 -239.034)
(427.284 2272.36 -260.151)
(615.216 2595.77 -259.281)
(904.991 2857.36 -243.853)
(1197.73 3078.05 -253.022)
(1628.33 3197.99 -255.423)
(2073.9 3109.18 -257.819)
(2453.86 2936.26 -254.152)
(2750.49 2757.65 -263.051)
(2974.74 2651.97 -292.688)
(3152.51 2602.64 -328.766)
(3333.33 2555.39 -337.683)
(3502.88 2515.82 -325.468)
(3646.91 2500.44 -319.952)
(3761.93 2496.76 -312.064)
(3903.46 2414.51 -263.571)
(3907.84 2127.78 -204.027)
(-1253.14 2169.54 -260.98)
(-618.214 2279.56 -274.996)
(-272.501 2369.55 -249.368)
(107.783 2423.41 -254.092)
(456.841 2370.7 -265.368)
(640.258 2619.43 -263.802)
(923.361 2844.66 -253.665)
(1202.46 3038.04 -253.167)
(1565.65 3196.41 -251.782)
(1977.86 3198.46 -251.036)
(2357.57 3101.69 -261.593)
(2652.96 2980.9 -296.429)
(2903.5 2906.29 -366.117)
(3178.23 2897.84 -361.911)
(3366.39 2902.89 -311.161)
(3435.65 2876.61 -270.604)
(3500.86 2809.18 -255.216)
(3635.01 2675.42 -250.301)
(3803.87 2434.52 -194.869)
(3725.15 2191.03 -157.37)
(-1187.86 2401.26 -262.259)
(-556.759 2479.49 -278.185)
(-223.665 2548.23 -257.483)
(129.412 2581.9 -269.092)
(454.488 2495.84 -275.302)
(657.4 2676.2 -270.407)
(931.482 2857.43 -259.394)
(1220.78 3016.94 -263.694)
(1541.77 3176.94 -267.326)
(1916.54 3246.48 -265.115)
(2298.49 3209.26 -277.746)
(2601.34 3158.06 -330.126)
(2897.56 3183.27 -359.748)
(3195.23 3202.39 -289.54)
(3228.48 3131.33 -222.136)
(3252.8 2958.51 -192.718)
(3377.68 2765.03 -202.517)
(3509.68 2563.94 -194.291)
(3557.04 2392.3 -150.435)
(3480.33 2331.5 -154.1)
(-1143.04 2628.7 -266.242)
(-526.44 2679.09 -282.098)
(-200.238 2734.04 -265.495)
(141.791 2757.92 -280.722)
(437.282 2652.87 -290.817)
(660.616 2774.12 -283.744)
(936.179 2902.96 -271.518)
(1227.54 3027.12 -271.918)
(1539.85 3172.76 -286.093)
(1890.54 3269.08 -284.662)
(2253.03 3301.27 -296.195)
(2550.95 3344.6 -337.339)
(2901.29 3380.14 -305.629)
(3110.72 3256.6 -218.237)
(3034.49 3056.06 -197.557)
(2973.23 2716.18 -147.304)
(3083.73 2538.75 -160.578)
(3198.56 2499.8 -167.284)
(3218.44 2518.47 -176.697)
(3142.38 2562.87 -235.29)
(-1114.15 2855.68 -273.974)
(-515.772 2883.22 -289.33)
(-194.456 2927.63 -275.681)
(150.013 2948.44 -295.897)
(420.91 2838.21 -313.412)
(660.162 2912.66 -305.169)
(939.794 2993.62 -293.154)
(1235.5 3074.12 -290.798)
(1544.34 3192 -298.975)
(1878.77 3301.11 -299.847)
(2197.05 3410.18 -309.474)
(2511.19 3522.63 -323.932)
(2871.28 3456.75 -263.844)
(2935.13 3282.44 -189.243)
(2702.85 2972.94 -146.188)
(2595.17 2575.96 -204.103)
(2704.21 2496.24 -195.279)
(2797.73 2547.54 -209.33)
(2828.75 2689.64 -298.251)
(2726.26 2754.6 -407.97)
(-1100.3 3085.11 -283.907)
(-518.005 3093.48 -305.019)
(-199.902 3128.12 -295.329)
(157.065 3150.17 -318.767)
(419.768 3046.65 -329.831)
(664.981 3085.68 -323.529)
(944.526 3130.06 -315.166)
(1243.15 3171.81 -309.995)
(1549.09 3254.12 -308.485)
(1850.71 3379.34 -313.926)
(2129.13 3556.11 -324.918)