/*--------------------------------*- C++ -*----------------------------------*\
  =========                 |
  \\      /  F ield         | OpenFOAM: The Open Source CFD Toolbox
   \\    /   O peration     | Website:  https://openfoam.org
    \\  /    A nd           | Version:  9
     \\/     M anipulation  |
\*---------------------------------------------------------------------------*/
FoamFile
{
    format      ascii;
    class       volScalarField;
    location    "0.0015";
    object      alpha.C4;
}
// * * * * * * * * * * * * * * * * * * * * * * * * * * * * * * * * * * * * * //

dimensions      [0 0 0 0 0 0 0];

internalField   nonuniform List<scalar> 
9720
(
0.92538
0.957302
0.961976
0.96533
0.967336
0.968124
0.968287
0.967617
0.965949
0.961811
0.953787
0.940232
0.919146
0.887927
0.8434
0.783193
0.709278
0.624769
0.53448
0.330665
0.957342
0.985358
0.988655
0.991022
0.992395
0.993275
0.993978
0.994455
0.994407
0.993706
0.991525
0.986626
0.97679
0.958457
0.926736
0.876443
0.805636
0.71678
0.621655
0.397664
0.962005
0.98861
0.991532
0.993633
0.995019
0.995744
0.996476
0.997048
0.997164
0.996643
0.99525
0.992096
0.985246
0.971272
0.945039
0.900434
0.833515
0.744262
0.643585
0.40727
0.965351
0.990937
0.993518
0.990669
0.992977
0.993775
0.994984
0.996042
0.996918
0.997671
0.996654
0.994442
0.989403
0.978395
0.956282
0.916183
0.852593
0.763917
0.657907
0.404767
0.967354
0.99239
0.995003
0.992738
0.995695
0.996137
0.994778
0.992082
0.986257
0.974186
0.950916
0.909955
0.84655
0.758799
0.649871
0.385748
0.968153
0.993376
0.995897
0.994123
0.990841
0.987642
0.98572
0.982185
0.975181
0.96126
0.935409
0.892159
0.828996
0.744177
0.63514
0.365787
0.968307
0.994069
0.996594
0.995235
0.975888
0.961543
0.959186
0.954965
0.947088
0.931797
0.904156
0.860711
0.801112
0.721482
0.612211
0.338189
0.967647
0.9945
0.997106
0.996168
0.938189
0.906046
0.904138
0.900267
0.892702
0.87782
0.851805
0.81301
0.759827
0.683183
0.564759
0.280969
0.965961
0.994428
0.997178
0.996942
0.995455
0.988983
0.970427
0.928005
0.81471
0.795472
0.800496
0.804636
0.802085
0.792764
0.773792
0.742601
0.693429
0.611619
0.470459
0.187734
0.961782
0.993699
0.996627
0.997619
0.995784
0.985717
0.956383
0.896032
0.787114
0.708271
0.681332
0.680995
0.679267
0.673259
0.65952
0.633002
0.583149
0.488884
0.320038
0.0836882
0.9537
0.991477
0.995188
0.996552
0.994388
0.983997
0.954447
0.895182
0.790952
0.672252
0.593095
0.553462
0.530661
0.513759
0.496293
0.470413
0.418996
0.310689
0.138644
0.0158071
0.940087
0.986528
0.991978
0.994278
0.991589
0.980611
0.950734
0.892467
0.795353
0.671575
0.547871
0.443633
0.360482
0.312272
0.28991
0.267092
0.215734
0.114121
0.0213516
0.000511866
0.918965
0.976634
0.98506
0.989159
0.985677
0.973571
0.943268
0.88617
0.793655
0.67073
0.525803
0.361281
0.200809
0.119081
0.0992722
0.0837636
0.0507868
0.0120839
0.000435026
6.68341e-07
0.887732
0.958229
0.970994
0.978042
0.973539
0.959601
0.928306
0.872308
0.785565
0.666345
0.511793
0.31698
0.123408
0.0281308
0.012082
0.00744575
0.00232656
0.000124765
2.71286e-07
2.70941e-12
0.843185
0.926408
0.944633
0.955775
0.950202
0.933798
0.900994
0.846862
0.767398
0.654282
0.496455
0.295467
0.103462
0.0127694
0.00045273
6.92607e-05
5.70544e-06
2.16483e-08
4.61277e-13
1.91062e-18
0.782914
0.875972
0.899865
0.915497
0.909166
0.890621
0.857797
0.808446
0.736973
0.629108
0.47137
0.2715
0.0864105
0.00777855
7.33941e-05
3.70149e-08
9.27112e-11
2.20563e-14
3.79923e-19
1.61381e-24
0.708909
0.805017
0.832792
0.851774
0.845697
0.827475
0.798328
0.755661
0.688745
0.58034
0.419648
0.217733
0.0514566
0.00236434
5.87508e-06
9.90656e-11
1.55421e-16
1.8781e-20
3.04386e-25
1.39223e-30
0.624319
0.716083
0.743462
0.763073
0.757911
0.742662
0.718895
0.679706
0.608273
0.48718
0.310603
0.11402
0.0119787
0.000122668
2.14292e-08
2.19992e-14
1.87779e-20
2.89784e-26
2.40596e-31
1.11956e-36
0.533942
0.620915
0.642782
0.657149
0.649075
0.633883
0.61031
0.562652
0.468999
0.319579
0.138337
0.0211097
0.000422902
2.60035e-07
4.44568e-13
3.67727e-19
2.96222e-25
2.35632e-31
3.24032e-37
9.30712e-43
0.330102
0.397013
0.406653
0.40436
0.3855
0.365502
0.337967
0.281023
0.188003
0.0838456
0.0157556
0.000502342
6.44045e-07
2.58053e-12
1.83831e-18
1.56871e-24
1.36156e-30
1.10053e-36
9.21677e-43
1.15726e-48
0.937229
0.968085
0.972328
0.975242
0.976995
0.977762
0.977894
0.977582
0.976446
0.973236
0.966753
0.955552
0.937745
0.910751
0.871298
0.816449
0.746687
0.66375
0.573498
0.363684
0.968178
0.993434
0.995814
0.997158
0.997703
0.998011
0.998204
0.998313
0.998255
0.997808
0.996437
0.993155
0.986065
0.971964
0.946182
0.903236
0.839743
0.755762
0.662888
0.435699
0.97243
0.995807
0.99783
0.998954
0.999271
0.999404
0.99951
0.999581
0.999558
0.999256
0.998429
0.996413
0.991669
0.981268
0.960492
0.923141
0.864081
0.781069
0.684285
0.44587
0.97532
0.997139
0.998936
0.99975
0.999976
0.999988
0.999992
0.999995
0.999992
0.999685
0.999031
0.997592
0.994124
0.986056
0.968879
0.936022
0.881094
0.800191
0.700181
0.447012
0.97703
0.997698
0.999261
0.999972
0.999837
0.997938
0.996623
0.994423
0.990032
0.980855
0.962513
0.9288
0.873993
0.793962
0.691724
0.42916
0.9778
0.998037
0.999422
0.999989
0.995244
0.986362
0.984701
0.981822
0.976349
0.965538
0.944973
0.909039
0.85376
0.775888
0.674643
0.409909
0.977948
0.998229
0.999524
0.999993
0.974202
0.953753
0.951893
0.948907
0.943378
0.932127
0.910376
0.87393
0.821106
0.748218
0.649437
0.384775
0.97759
0.998322
0.999587
0.999995
0.925044
0.891516
0.890908
0.888909
0.884337
0.873924
0.853326
0.82053
0.774125
0.70671
0.604747
0.33361
0.976439
0.998264
0.999565
0.999992
0.999833
0.995565
0.974384
0.923529
0.795114
0.783002
0.787592
0.79299
0.7921
0.786008
0.771318
0.746359
0.706452
0.639335
0.522326
0.244153
0.973253
0.997831
0.999285
0.999722
0.998326
0.988285
0.957087
0.893979
0.78271
0.705105
0.672035
0.673375
0.673885
0.671369
0.662554
0.643352
0.605341
0.530498
0.387123
0.129819
0.966831
0.996504
0.99851
0.99913
0.997039
0.986318
0.95483
0.893139
0.787311
0.669349
0.588954
0.556122
0.541773
0.531689
0.519601
0.499543
0.458869
0.36953
0.2041
0.0350179
0.955744
0.993315
0.996591
0.997801
0.994942
0.983153
0.951263
0.890654
0.792343
0.670407
0.553293
0.464693
0.400108
0.358986
0.336012
0.313676
0.268228
0.169341
0.0476078
0.00223526
0.938107
0.986386
0.992008
0.994509
0.990732
0.977573
0.945156
0.885468
0.791278
0.671384
0.538715
0.398369
0.259139
0.171426
0.1418
0.12193
0.0837818
0.0284167
0.00202334
9.4555e-06
0.911329
0.972528
0.981852
0.986696
0.981782
0.966811
0.933493
0.874586
0.785212
0.6694
0.529436
0.356735
0.16887
0.0536851
0.0254148
0.016462
0.00656322
0.000641853
4.30384e-06
2.71662e-10
0.872114
0.947068
0.961409
0.969862
0.963695
0.946292
0.911526
0.853913
0.771012
0.661482
0.518027
0.332895
0.136724
0.0230935
0.00149935
0.000309334
3.95225e-05
4.22929e-07
3.88972e-11
1.81701e-16
0.817499
0.9045
0.924474
0.937455
0.930274
0.910362
0.874931
0.821174
0.746521
0.642925
0.497993
0.309117
0.115317
0.0141567
0.000228723
3.78558e-07
3.0931e-09
6.84211e-13
2.34496e-17
1.16954e-22
0.747917
0.841385
0.865877
0.883079
0.875812
0.855128
0.822086
0.774877
0.70683
0.604922
0.456315
0.26156
0.077205
0.00539428
2.68637e-05
1.63224e-09
4.94244e-15
6.57417e-19
1.52706e-23
8.0977e-29
0.665026
0.757661
0.783249
0.802705
0.796114
0.77742
0.749354
0.707639
0.639738
0.529404
0.36499
0.161733
0.0250957
0.000496116
2.65423e-07
3.93451e-13
3.81762e-19
9.49981e-25
1.17175e-29
6.31325e-35
0.574667
0.664805
0.686619
0.703042
0.694175
0.676564
0.651025
0.605991
0.522444
0.384693
0.198543
0.043817
0.00167702
3.02618e-06
2.13536e-11
1.29384e-17
8.80438e-24
7.39764e-30
1.45645e-35
5.53271e-41
0.364483
0.437264
0.447868
0.449726
0.431748
0.412255
0.386847
0.334857
0.243603
0.127574
0.0331254
0.00194901
7.18175e-06
1.65281e-10
1.07694e-16
6.92307e-23
4.923e-29
3.96072e-35
3.89814e-41
6.56099e-47
0.949178
0.976915
0.980323
0.982594
0.983969
0.984465
0.98451
0.984304
0.983411
0.980856
0.975634
0.966485
0.951637
0.92857
0.893926
0.844098
0.778058
0.697024
0.609289
0.399619
0.977006
0.997518
0.998786
0.999313
0.99947
0.999531
0.999548
0.99954
0.999479
0.999198
0.998322
0.996066
0.990843
0.979846
0.958756
0.921984
0.86483
0.785408
0.696748
0.473696
0.980415
0.998788
0.999654
0.999908
0.999944
0.999954
0.999957
0.999956
0.999943
0.999779
0.999275
0.997902
0.994406
0.986313
0.969454
0.937926
0.885779
0.808853
0.717854
0.484801
0.982655
0.999313
0.999908
0.999997
1
1
1
1
0.999999
0.999809
0.999409
0.998376
0.995692
0.989196
0.975009
0.947168
0.898875
0.824662
0.732285
0.487891
0.983986
0.999471
0.999943
1
0.999804
0.997286
0.996224
0.994496
0.991005
0.983494
0.9681
0.939056
0.890169
0.816584
0.723135
0.472071
0.984486
0.999534
0.999954
1
0.991776
0.982394
0.981525
0.979629
0.975518
0.966923
0.94975
0.918335
0.867944
0.795618
0.704127
0.454233
0.984558
0.999549
0.999957
1
0.963666
0.945288
0.94504
0.943811
0.940304
0.931927
0.914224
0.882192
0.833398
0.765676
0.678025
0.431567
0.984297
0.999539
0.999956
1
0.909938
0.882737
0.88398
0.883364
0.880747
0.873267
0.85663
0.827611
0.785045
0.723962
0.636936
0.387249
0.983399
0.99948
0.999943
1
0.999894
0.994647
0.972048
0.922336
0.798298
0.783805
0.787411
0.791992
0.791669
0.787331
0.775253
0.753517
0.71876
0.661507
0.566421
0.305789
0.980886
0.999213
0.999811
0.999882
0.998071
0.986023
0.953436
0.893937
0.790424
0.716296
0.679697
0.679708
0.680175
0.678483
0.671736
0.656286
0.625541
0.565739
0.450555
0.188725
0.975755
0.998384
0.999368
0.99956
0.997102
0.984798
0.952237
0.893404
0.794574
0.682992
0.601683
0.569198
0.55807
0.551127
0.542429
0.52681
0.494892
0.424808
0.279573
0.068972
0.966737
0.996224
0.998097
0.998642
0.995489
0.982586
0.949929
0.891604
0.798894
0.683254
0.569599
0.487144
0.432834
0.398154
0.377502
0.357874
0.320772
0.233971
0.0931154
0.00798182
0.952058
0.991165
0.994768
0.996138
0.992109
0.978288
0.945469
0.88759
0.797988
0.683764
0.558213
0.431067
0.308022
0.221504
0.18654
0.165074
0.126793
0.0584966
0.00769866
9.74196e-05
0.92921
0.98042
0.986933
0.989917
0.984734
0.969492
0.936222
0.87874
0.79268
0.681976
0.55104
0.393875
0.215619
0.086297
0.0449201
0.0312395
0.0158625
0.00270959
4.9738e-05
2.01736e-08
0.89485
0.959689
0.970443
0.976121
0.969498
0.952009
0.917602
0.860933
0.779879
0.675005
0.541869
0.371116
0.1765
0.0400542
0.00415791
0.00106594
0.000216943
6.3068e-06
3.5825e-09
1.89146e-14
0.845369
0.923381
0.939401
0.948801
0.940651
0.920239
0.884802
0.831162
0.757601
0.659039
0.525373
0.349873
0.153593
0.0263453
0.000776134
3.2783e-06
7.10173e-08
6.86996e-11
2.70705e-15
1.46147e-20
0.779659
0.866739
0.887822
0.901147
0.892048
0.869661
0.83564
0.788222
0.72223
0.62731
0.492032
0.311198
0.116036
0.0129596
0.000146455
3.64298e-08
1.67351e-13
4.59565e-17
1.80522e-21
1.01259e-26
0.698831
0.787741
0.811439
0.827597
0.81889
0.797536
0.767994
0.726932
0.664193
0.566008
0.419865
0.223851
0.0521399
0.00213121
4.03018e-06
3.05565e-11
2.04523e-17
4.62673e-23
1.14796e-27
6.6219e-33
0.611201
0.699365
0.72088
0.735836
0.72606
0.706721
0.680809
0.639775
0.568004
0.448719
0.273146
0.0868473
0.00655738
3.65988e-05
2.02193e-09
1.46607e-15
9.54942e-22
6.20667e-28
1.10473e-33
4.65203e-39
0.401421
0.476404
0.487996
0.491842
0.47571
0.457736
0.43482
0.389455
0.305679
0.186156
0.065995
0.00715623
7.75634e-05
1.30031e-08
1.15164e-14
8.57282e-21
5.77698e-27
3.75548e-33
2.99669e-39
4.9569e-45
0.954068
0.97971
0.982683
0.984676
0.985915
0.986311
0.986353
0.98618
0.985379
0.983076
0.9783
0.969861
0.956065
0.93447
0.901798
0.85427
0.789953
0.709347
0.622731
0.415356
0.979792
0.998133
0.999116
0.999503
0.999617
0.999657
0.999665
0.999654
0.999602
0.999365
0.998609
0.996617
0.991921
0.981895
0.962455
0.928121
0.87366
0.795853
0.708545
0.488799
0.982769
0.999123
0.99977
0.999941
0.999964
0.99997
0.999971
0.999969
0.99996
0.999817
0.999369
0.998135
0.994962
0.987544
0.971959
0.942531
0.89306
0.818273
0.729284
0.500044
0.984739
0.99951
0.999943
0.999998
1
1
1
1
0.999997
0.99983
0.999449
0.998482
0.995995
0.98998
0.976793
0.950753
0.90497
0.832982
0.743047
0.503406
0.985943
0.999622
0.999965
1
0.999733
0.997346
0.996232
0.994564
0.991318
0.984351
0.969942
0.942548
0.895854
0.824267
0.733608
0.488305
0.986349
0.999661
0.99997
1
0.99201
0.983238
0.981968
0.979926
0.976079
0.968097
0.951876
0.92188
0.873171
0.80234
0.71377
0.470723
0.986395
0.999667
0.999971
1
0.96459
0.949667
0.948156
0.946068
0.942247
0.934074
0.917067
0.886144
0.838459
0.771756
0.686983
0.447918
0.986198
0.999654
0.999969
1
0.913976
0.892779
0.891386
0.88923
0.885483
0.877486
0.861066
0.832568
0.790374
0.72995
0.646109
0.404387
0.985381
0.999603
0.99996
0.999999
0.999833
0.993132
0.967982
0.920011
0.808041
0.795764
0.79811
0.800784
0.79979
0.794696
0.782161
0.759897
0.724776
0.66814
0.577679
0.325465
0.983074
0.999371
0.99983
0.999858
0.99761
0.98414
0.951694
0.895434
0.797783
0.726777
0.691602
0.69071
0.690627
0.688273
0.680418
0.663824
0.632615
0.574463
0.467445
0.211303
0.978315
0.998633
0.999412
0.999521
0.996657
0.98327
0.950851
0.894986
0.801241
0.692277
0.612255
0.579928
0.568713
0.561266
0.551787
0.535631
0.504285
0.438982
0.305942
0.0877589
0.969922
0.996682
0.99823
0.998623
0.995152
0.981595
0.949272
0.893598
0.805127
0.692538
0.579322
0.496337
0.44258
0.408685
0.388442
0.369494
0.335369
0.256821
0.118281
0.0135414
0.956205
0.992063
0.995142
0.996238
0.992034
0.977965
0.945778
0.890314
0.80442
0.693187
0.568342
0.440841
0.31932
0.233878
0.199212
0.178966
0.144041
0.0761274
0.0136126
0.000287942
0.934741
0.982165
0.987858
0.990374
0.985172
0.970014
0.937625
0.882354
0.799477
0.691285
0.561387
0.405551
0.229639
0.0978675
0.053007
0.0385996
0.022218
0.005085
0.000159815
1.71443e-07
0.902269
0.962927
0.972473
0.977401
0.970872
0.953687
0.920251
0.865463
0.786753
0.683763
0.552214
0.384644
0.192636
0.0494707
0.0061876
0.00174883
0.000461531
2.28622e-05
3.64464e-08
2.59711e-13
0.855016
0.928893
0.943337
0.951657
0.943611
0.923509
0.888768
0.836274
0.764036
0.667053
0.535982
0.365432
0.172109
0.0350426
0.00145335
9.72543e-06
3.37586e-07
9.35903e-10
3.70009e-14
2.10641e-19
0.790989
0.874813
0.894255
0.906262
0.897108
0.874659
0.840626
0.793491
0.728354
0.63531
0.504213
0.331251
0.138034
0.0199687
0.000370156
2.2926e-07
1.59994e-12
7.41005e-16
2.81202e-20
1.64659e-25
0.710595
0.797373
0.819904
0.834732
0.825826
0.80391
0.773812
0.732736
0.671129
0.576412
0.438481
0.253112
0.0725023
0.00451954
1.8049e-05
5.90457e-10
4.5427e-16
8.36454e-22
1.98601e-26
1.18943e-31
0.624211
0.710428
0.731407
0.745395
0.735758
0.715909
0.689475
0.649024
0.58044
0.469153
0.305497
0.116029
0.0127812
0.00013825
2.70668e-08
2.61618e-14
1.9661e-20
1.38878e-26
2.14193e-32
8.43015e-38
0.41714
0.491218
0.502811
0.506612
0.491503
0.474034
0.451363
0.407719
0.328165
0.212806
0.0876777
0.0131747
0.000263906
1.40058e-07
1.95978e-13
1.58512e-19
1.22215e-25
8.67908e-32
6.47454e-38
8.71103e-44
0.955111
0.98022
0.983097
0.985014
0.986221
0.986608
0.986656
0.986505
0.985726
0.983486
0.978798
0.970515
0.956989
0.935802
0.903693
0.856835
0.792972
0.712157
0.62536
0.418445
0.980329
0.998204
0.999149
0.99952
0.99963
0.999668
0.999676
0.999666
0.999618
0.999388
0.998646
0.996698
0.992111
0.982324
0.963336
0.929702
0.875998
0.798442
0.710973
0.491514
0.98322
0.999157
0.999779
0.999944
0.999966
0.999971
0.999972
0.99997
0.999962
0.999815
0.999366
0.99815
0.995043
0.987791
0.972565
0.943767
0.89509
0.82076
0.7318
0.502913
0.985121
0.999528
0.999945
0.999998
1
1
1
1
0.999998
0.999814
0.999417
0.998457
0.99602
0.990137
0.977248
0.951775
0.906782
0.835304
0.745511
0.50648
0.9863
0.999637
0.999966
1
0.999803
0.997007
0.995934
0.994399
0.991338
0.984589
0.970497
0.943639
0.897658
0.826494
0.73605
0.491611
0.986674
0.999674
0.999972
1
0.991823
0.98216
0.981394
0.979863
0.97645
0.968772
0.952831
0.923244
0.87498
0.80424
0.715756
0.473683
0.986712
0.999679
0.999972
1
0.96651
0.949496
0.948542
0.946976
0.943597
0.935709
0.918829
0.887975
0.840209
0.773164
0.688303
0.450204
0.986529
0.999667
0.999971
1
0.920883
0.894137
0.893238
0.891486
0.888085
0.880298
0.863815
0.834961
0.792122
0.730928
0.6467
0.405727
0.985724
0.999617
0.999962
0.999998
0.999812
0.991921
0.966864
0.921336
0.811728
0.798325
0.80077
0.803852
0.803091
0.798176
0.785437
0.762441
0.726237
0.668417
0.577349
0.32626
0.983476
0.99939
0.999828
0.999842
0.997365
0.983541
0.951993
0.897168
0.800346
0.729066
0.693946
0.693705
0.693734
0.691292
0.682901
0.665337
0.632895
0.573517
0.466758
0.213168
0.978815
0.998666
0.999407
0.999488
0.996386
0.982777
0.951036
0.896472
0.803616
0.694365
0.613762
0.581515
0.570215
0.562308
0.552092
0.535059
0.502894
0.437596
0.307705
0.0912906
0.970592
0.996758
0.998238
0.998587
0.994923
0.981262
0.949503
0.894911
0.807364
0.694753
0.580536
0.496411
0.441923
0.407373
0.386672
0.367596
0.334068
0.25821
0.123381
0.015378
0.957157
0.992249
0.995209
0.996237
0.991934
0.977865
0.94617
0.891619
0.806664
0.695625
0.569899
0.44083
0.31807
0.231963
0.197629
0.178427
0.145498
0.0798976
0.0157397
0.000396409
0.936103
0.982594
0.988089
0.990492
0.985282
0.970211
0.938271
0.883796
0.801738
0.693698
0.563129
0.406321
0.229904
0.097827
0.0531665
0.0394914
0.0237395
0.0060028
0.000229673
3.49724e-07
0.904178
0.963809
0.973068
0.977819
0.971344
0.95431
0.921275
0.867105
0.788899
0.685928
0.553922
0.386153
0.194791
0.0512385
0.00663961
0.00194078
0.00056506
3.42108e-05
7.99722e-08
8.01651e-13
0.857552
0.930461
0.944565
0.952658
0.944711
0.924776
0.890235
0.837967
0.7658
0.668712
0.537488
0.367525
0.175718
0.037535
0.00174082
1.35752e-05
5.4666e-07
2.27032e-09
9.72616e-14
5.76014e-19
0.793917
0.877101
0.896258
0.908057
0.899008
0.876582
0.842337
0.79495
0.729593
0.636411
0.505538
0.334352
0.143361
0.0225091
0.000498269
4.3348e-07
4.62588e-12
1.97302e-15
7.56669e-20
4.51227e-25
0.713253
0.799845
0.822296
0.836979
0.82813
0.805977
0.775356
0.733823
0.671916
0.577182
0.440505
0.258868
0.0787644
0.00568363
3.00097e-05
1.72979e-09
1.47573e-15
2.57833e-21
5.5892e-26
3.37232e-31
0.626653
0.712654
0.733709
0.747618
0.738103
0.717953
0.691027
0.650193
0.581568
0.471286
0.311151
0.124132
0.0154958
0.000215367
6.82153e-08
7.93225e-14
6.17754e-20
4.58458e-26
6.72318e-32
2.51478e-37
0.420093
0.493676
0.505355
0.509213
0.49443
0.476889
0.454049
0.410305
0.331304
0.217525
0.0933054
0.0155632
0.000388853
3.2016e-07
6.65172e-13
4.95023e-19
3.87189e-25
2.87728e-31
2.20321e-37
2.7713e-43
0.955119
0.980201
0.983077
0.985001
0.986219
0.986606
0.98665
0.986505
0.985728
0.983486
0.978791
0.970491
0.956935
0.935709
0.90355
0.856631
0.792704
0.711846
0.625043
0.418201
0.980358
0.998205
0.999149
0.99952
0.999629
0.999667
0.999676
0.999666
0.999618
0.999384
0.998634
0.996667
0.992051
0.982222
0.963177
0.929474
0.875697
0.798085
0.710602
0.491209
0.983249
0.999158
0.99978
0.999944
0.999966
0.999971
0.999972
0.99997
0.999962
0.999806
0.999337
0.998097
0.994956
0.987661
0.972379
0.943514
0.89477
0.820393
0.731427
0.502629
0.985138
0.999528
0.999945
0.999998
1
1
1
1
0.999997
0.999787
0.999362
0.99837
0.995897
0.989968
0.97702
0.951481
0.906425
0.834908
0.745132
0.506266
0.986303
0.999638
0.999966
1
0.999732
0.996655
0.995572
0.994033
0.990976
0.98423
0.970132
0.943263
0.897279
0.826129
0.735749
0.491556
0.98668
0.999676
0.999972
1
0.989882
0.980938
0.980281
0.978853
0.975527
0.967963
0.952132
0.922626
0.874406
0.803682
0.715234
0.473382
0.986722
0.99968
0.999972
1
0.963868
0.9476
0.946683
0.945195
0.941968
0.934295
0.917635
0.886939
0.839238
0.772207
0.687382
0.44955
0.986527
0.999667
0.999971
1
0.917898
0.891221
0.890446
0.888879
0.885705
0.878196
0.862001
0.83337
0.790659
0.729518
0.645338
0.404721
0.985723
0.999618
0.999962
0.999999
0.999815
0.991736
0.968531
0.925073
0.813411
0.795537
0.797806
0.800814
0.800131
0.795418
0.782972
0.760283
0.724311
0.666567
0.575524
0.324985
0.983485
0.999391
0.999825
0.999831
0.997209
0.983291
0.952128
0.897476
0.799996
0.727365
0.691107
0.690391
0.690431
0.688164
0.680143
0.662969
0.630743
0.571348
0.464704
0.211919
0.978838
0.998667
0.999397
0.999462
0.9962
0.982373
0.950591
0.896142
0.803088
0.693646
0.611734
0.57835
0.566969
0.559425
0.549647
0.5329
0.50078
0.43548
0.305812
0.0904228
0.970631
0.99676
0.998222
0.998547
0.994708
0.980724
0.948668
0.894043
0.806466
0.694016
0.579483
0.494376
0.439612
0.405434
0.384989
0.365952
0.332388
0.256542
0.122133
0.0151175
0.957212
0.992253
0.99519
0.99619
0.991713
0.977294
0.945195
0.89045
0.805594
0.69474
0.569237
0.440176
0.317699
0.231685
0.196957
0.177549
0.144489
0.0790293
0.0154466
0.000384234
0.93617
0.982602
0.98807
0.990444
0.985077
0.969703
0.937355
0.882582
0.800526
0.692723
0.562514
0.406291
0.230637
0.0983814
0.0530947
0.0392025
0.0234408
0.00588221
0.000222062
3.30185e-07
0.904244
0.963815
0.97305
0.977775
0.97115
0.953886
0.920522
0.866054
0.78774
0.684889
0.553188
0.385944
0.195102
0.0514999
0.00665664
0.00191449
0.000551612
3.29716e-05
7.52933e-08
7.2933e-13
0.857599
0.930454
0.944541
0.952625
0.944515
0.924408
0.889651
0.837153
0.764812
0.667651
0.536552
0.366968
0.175588
0.0375577
0.0017441
1.34046e-05
5.2429e-07
2.12506e-09
9.02744e-14
5.31053e-19
0.793929
0.87706
0.896214
0.908037
0.898807
0.87623
0.841849
0.794287
0.728697
0.635298
0.504405
0.333464
0.142907
0.0224182
0.000495764
4.30696e-07
4.43312e-12
1.83535e-15
7.0079e-20
4.1578e-25
0.713239
0.799767
0.82222
0.83696
0.827936
0.805613
0.774856
0.733141
0.67096
0.575956
0.43917
0.257749
0.0782716
0.00563189
2.96273e-05
1.70348e-09
1.4538e-15
2.45159e-21
5.1621e-26
3.1e-31
0.626624
0.712552
0.733604
0.747581
0.737933
0.717544
0.690396
0.649313
0.580373
0.469818
0.309683
0.12325
0.015335
0.000212229
6.69012e-08
7.78014e-14
6.06107e-20
4.49368e-26
6.3676e-32
2.31623e-37
0.420033
0.493562
0.505234
0.509168
0.494313
0.476412
0.453224
0.409185
0.32997
0.216266
0.092542
0.0153876
0.000382912
3.13728e-07
6.49259e-13
4.84629e-19
3.79333e-25
2.81973e-31
2.14504e-37
2.61775e-43
0.954083
0.979662
0.982628
0.984631
0.985885
0.986292
0.986332
0.986183
0.985387
0.983073
0.978266
0.969772
0.955889
0.934178
0.901359
0.853655
0.789166
0.708451
0.621811
0.414604
0.979858
0.998135
0.999116
0.999502
0.999615
0.999655
0.999663
0.999654
0.999603
0.99936
0.998579
0.996533
0.991746
0.981583
0.961954
0.92739
0.872695
0.794732
0.707398
0.487855
0.982841
0.999126
0.999771
0.999942
0.999965
0.99997
0.999971
0.999969
0.99996
0.999801
0.999313
0.998014
0.994741
0.987176
0.971389
0.941714
0.891996
0.817051
0.728061
0.499114
0.984797
0.999512
0.999943
0.999998
1
1
1
1
0.999997
0.999796
0.999359
0.99831
0.995711
0.989537
0.97613
0.949815
0.903759
0.831605
0.74173
0.502593
0.98598
0.999625
0.999965
1
0.999759
0.99683
0.995632
0.993901
0.990575
0.983491
0.968914
0.941311
0.89443
0.822784
0.732289
0.487681
0.986381
0.999664
0.999971
1
0.990199
0.98064
0.979713
0.977969
0.974293
0.966335
0.950047
0.919933
0.871114
0.800277
0.711874
0.469532
0.986413
0.999669
0.999971
1
0.962466
0.944608
0.943785
0.942261
0.938879
0.930971
0.914087
0.883168
0.835424
0.768727
0.684079
0.445736
0.986217
0.999656
0.999969
1
0.914193
0.885296
0.88463
0.883188
0.880107
0.872654
0.856626
0.828371
0.786279
0.725889
0.64207
0.401058
0.985385
0.999604
0.99996
0.999998
0.999784
0.991032
0.963796
0.916235
0.804158
0.787077
0.789764
0.793127
0.792521
0.788027
0.776158
0.754445
0.719646
0.663071
0.572501
0.321229
0.983059
0.999366
0.999817
0.999827
0.997226
0.982039
0.946975
0.888739
0.790361
0.719095
0.683081
0.682323
0.682476
0.680584
0.673447
0.657545
0.626738
0.568619
0.461476
0.207007
0.97828
0.998611
0.999369
0.999446
0.996176
0.981338
0.946665
0.888756
0.794223
0.686094
0.605045
0.5717
0.560613
0.553787
0.545016
0.529418
0.498293
0.432886
0.29984
0.0847207
0.969865
0.996627
0.998141
0.998484
0.994576
0.979783
0.945603
0.888004
0.798911
0.686768
0.573864
0.490185
0.436476
0.403244
0.383337
0.364381
0.329978
0.251153
0.113923
0.012679
0.956121
0.991957
0.994988
0.996016
0.991387
0.976276
0.942528
0.885407
0.798604
0.687871
0.564114
0.437717
0.317622
0.232428
0.196687
0.17561
0.14018
0.0729258
0.0126456
0.000254793
0.934614
0.981986
0.987612
0.990037
0.984458
0.96844
0.93477
0.878159
0.794324
0.686237
0.557777
0.404514
0.231435
0.0992899
0.0524618
0.0373524
0.0210594
0.004676
0.000139588
1.37649e-07
0.902067
0.962646
0.972107
0.976915
0.970072
0.952191
0.917755
0.861889
0.78226
0.679207
0.549063
0.384247
0.194695
0.0509355
0.00628161
0.00164712
0.000416454
1.96517e-05
2.87214e-08
1.96275e-13
0.854687
0.928467
0.942818
0.950991
0.942707
0.922058
0.886523
0.833101
0.760044
0.662998
0.533197
0.365041
0.173542
0.0359133
0.00152132
9.47415e-06
2.82847e-07
7.14468e-10
2.81871e-14
1.59593e-19
0.790494
0.874195
0.893548
0.9054
0.896099
0.873222
0.838491
0.79051
0.724695
0.631667
0.501698
0.330646
0.138714
0.0203056
0.000384033
2.4524e-07
1.42896e-12
5.54702e-16
2.11943e-20
1.23883e-25
0.709956
0.796561
0.819001
0.833681
0.824717
0.802444
0.771679
0.729828
0.667692
0.573109
0.436166
0.252288
0.0725867
0.0045628
1.85112e-05
6.30625e-10
4.88437e-16
7.24975e-22
1.48516e-26
8.83471e-32
0.623456
0.709457
0.730328
0.744177
0.734532
0.714317
0.68723
0.646087
0.577123
0.466093
0.303435
0.115359
0.0127514
0.000138987
2.77942e-08
2.71251e-14
2.04567e-20
1.44015e-26
1.84952e-32
6.3777e-38
0.416343
0.490147
0.501647
0.505344
0.490251
0.472368
0.44915
0.405075
0.325519
0.210771
0.0867563
0.0130455
0.000262481
1.41152e-07
2.0002e-13
1.62213e-19
1.25582e-25
8.95155e-32
6.4691e-38
7.52006e-44
0.949198
0.97685
0.980245
0.982527
0.983926
0.984429
0.98448
0.984296
0.983419
0.980867
0.975621
0.966404
0.951436
0.928201
0.893344
0.84328
0.777031
0.695864
0.608065
0.398528
0.977097
0.997521
0.998782
0.999308
0.999467
0.999528
0.999545
0.99954
0.999481
0.999196
0.9983
0.995991
0.990664
0.979498
0.958168
0.921099
0.863657
0.784049
0.695314
0.472374
0.980516
0.998797
0.999655
0.999908
0.999944
0.999954
0.999956
0.999956
0.999944
0.999776
0.999247
0.997813
0.994209
0.985945
0.968843
0.937016
0.88458
0.807474
0.716422
0.483535
0.982738
0.999321
0.999909
0.999998
1
1
1
1
0.999997
0.999815
0.99938
0.998271
0.995465
0.988788
0.974353
0.946212
0.897648
0.823304
0.730968
0.486939
0.984042
0.999476
0.999943
1
0.999783
0.997241
0.996043
0.99417
0.99049
0.982742
0.967086
0.937791
0.888732
0.815107
0.721743
0.471185
0.98454
0.999539
0.999954
1
0.990849
0.981789
0.980805
0.97877
0.974417
0.965402
0.947797
0.916053
0.865504
0.793202
0.701849
0.452547
0.984586
0.999553
0.999957
1
0.961228
0.943879
0.943278
0.941693
0.937831
0.928998
0.910839
0.878485
0.829559
0.7619
0.674389
0.428574
0.984333
0.999542
0.999956
1
0.907816
0.879295
0.879612
0.878871
0.876107
0.868433
0.851637
0.82255
0.779988
0.718958
0.631855
0.382584
0.983415
0.999481
0.999944
0.999999
0.999835
0.992405
0.965076
0.914093
0.79557
0.777234
0.780605
0.785141
0.784877
0.780688
0.76888
0.747402
0.712745
0.655425
0.559824
0.299568
0.980865
0.999203
0.999792
0.999846
0.997684
0.984208
0.949266
0.887609
0.782996
0.708689
0.672059
0.672014
0.672384
0.670826
0.664421
0.649326
0.618698
0.558638
0.442368
0.18223
0.975669
0.998339
0.999305
0.999466
0.996555
0.982819
0.947958
0.887063
0.78715
0.675461
0.593939
0.561249
0.550163
0.543433
0.535008
0.519579
0.487518
0.416579
0.270478
0.0647489
0.966553
0.996104
0.997951
0.998452
0.994792
0.980519
0.945701
0.885325
0.791668
0.675925
0.562571
0.480398
0.426526
0.3921
0.371268
0.351133
0.313061
0.225409
0.0871009
0.00709067
0.951738
0.990912
0.994484
0.995793
0.991256
0.97613
0.941281
0.881501
0.790906
0.676809
0.552388
0.427016
0.305886
0.219182
0.18259
0.159723
0.120761
0.0541157
0.00675219
7.86129e-05
0.928707
0.97996
0.986435
0.989341
0.983696
0.967248
0.932177
0.872953
0.785863
0.675192
0.546072
0.392501
0.218037
0.0878517
0.0437426
0.0292657
0.0143385
0.00232804
3.93642e-05
1.38054e-08
0.894103
0.958933
0.969645
0.975231
0.968266
0.94976
0.913844
0.855603
0.773383
0.66861
0.537649
0.371247
0.180444
0.0424881
0.00427115
0.000945556
0.000178877
4.79872e-06
2.37336e-09
1.24638e-14
0.844315
0.922241
0.938221
0.947525
0.939237
0.918081
0.881364
0.826253
0.751549
0.653182
0.521863
0.350674
0.157364
0.0281247
0.000878633
3.17725e-06
5.12747e-08
4.26462e-11
1.73928e-15
9.40075e-21
0.778293
0.865173
0.886212
0.899449
0.890471
0.867598
0.832399
0.783595
0.716651
0.622091
0.489233
0.312298
0.11892
0.0138081
0.000166562
4.57908e-08
1.49145e-13
2.83694e-17
1.13971e-21
6.3963e-27
0.697232
0.785819
0.809437
0.825505
0.817107
0.795397
0.76475
0.722462
0.659047
0.561511
0.417838
0.224962
0.0535251
0.00227219
4.59028e-06
3.95211e-11
2.63767e-17
3.87309e-23
7.27249e-28
4.17008e-33
0.609444
0.69719
0.718562
0.733402
0.723954
0.704227
0.677323
0.635287
0.563211
0.445011
0.271942
0.08748
0.00676976
3.93902e-05
2.36771e-09
1.73873e-15
1.14055e-21
7.29009e-28
9.13155e-34
3.111e-39
0.399728
0.474148
0.485579
0.48931
0.473407
0.454964
0.43135
0.38554
0.302235
0.184211
0.0656827
0.00723388
8.08834e-05
1.44159e-08
1.30024e-14
9.7945e-21
6.65563e-27
4.32714e-33
3.20165e-39
4.13389e-45
0.937254
0.968013
0.972239
0.97517
0.976963
0.977729
0.977865
0.977567
0.976448
0.973249
0.966756
0.955516
0.937634
0.910521
0.870908
0.815876
0.745958
0.662923
0.572605
0.362824
0.968286
0.993444
0.995811
0.99716
0.997722
0.998028
0.998215
0.998317
0.998257
0.997806
0.996422
0.993105
0.985945
0.971723
0.945763
0.902593
0.838881
0.754756
0.661795
0.434616
0.97255
0.995829
0.99784
0.998964
0.999288
0.999419
0.999518
0.999584
0.999561
0.999254
0.998411
0.996359
0.991543
0.981021
0.960059
0.922472
0.863179
0.780016
0.683151
0.444771
0.975416
0.997149
0.998939
0.999987
1
1
1
1
0.999999
0.999682
0.99901
0.997532
0.993988
0.985788
0.968411
0.9353
0.880132
0.799094
0.699059
0.446059
0.97708
0.997683
0.999247
1
0.999841
0.997896
0.996529
0.994229
0.98971
0.980352
0.96177
0.92779
0.872777
0.792674
0.690492
0.428275
0.977852
0.998021
0.999408
1
0.992923
0.985842
0.984201
0.981242
0.975549
0.964452
0.943535
0.907256
0.851778
0.773917
0.672804
0.408505
0.977982
0.998219
0.999515
1
0.965369
0.95182
0.950195
0.947254
0.941581
0.930072
0.907945
0.871151
0.818179
0.745365
0.646712
0.382491
0.977622
0.998319
0.999583
1
0.909547
0.887882
0.887437
0.885549
0.880961
0.870509
0.849862