/*--------------------------------*- C++ -*----------------------------------*\
  =========                 |
  \\      /  F ield         | OpenFOAM: The Open Source CFD Toolbox
   \\    /   O peration     | Website:  https://openfoam.org
    \\  /    A nd           | Version:  9
     \\/     M anipulation  |
\*---------------------------------------------------------------------------*/
FoamFile
{
    format      ascii;
    class       volScalarField;
    location    "0.0015";
    object      p;
}
// * * * * * * * * * * * * * * * * * * * * * * * * * * * * * * * * * * * * * //

dimensions      [1 -1 -2 0 0 0 0];

internalField   nonuniform List<scalar> 
9720
(
5.97352e+07
6.80203e+07
7.60187e+07
8.16085e+07
8.81356e+07
9.15165e+07
9.12058e+07
8.96506e+07
8.41941e+07
7.2106e+07
5.80793e+07
4.55317e+07
3.49687e+07
2.637e+07
1.93762e+07
1.3307e+07
8.52961e+06
6.88455e+06
6.81694e+06
8.88603e+06
6.79855e+07
7.86234e+07
8.89626e+07
9.72234e+07
1.08025e+08
1.1553e+08
1.19027e+08
1.16647e+08
1.00827e+08
7.747e+07
5.7542e+07
4.29727e+07
3.26678e+07
2.49528e+07
1.87645e+07
1.34202e+07
8.82425e+06
6.47111e+06
6.07048e+06
6.91087e+06
7.59497e+07
8.89049e+07
1.008e+08
1.09523e+08
1.22435e+08
1.34462e+08
1.42081e+08
1.37898e+08
1.06062e+08
6.93169e+07
4.87069e+07
3.71152e+07
2.95035e+07
2.3689e+07
1.87104e+07
1.40128e+07
9.58242e+06
7.20751e+06
6.78711e+06
7.38769e+06
8.14708e+07
9.70875e+07
1.09683e+08
1.09364e+08
1.23634e+08
1.44779e+08
1.58938e+08
1.67074e+08
1.20975e+08
3.91433e+07
3.14461e+07
2.63127e+07
2.23178e+07
1.88532e+07
1.55176e+07
1.18645e+07
8.10125e+06
6.43242e+06
6.29196e+06
7.42103e+06
8.78499e+07
1.07697e+08
1.2224e+08
1.24905e+08
3.23418e+07
1.96834e+07
2.00433e+07
1.91494e+07
1.71268e+07
1.46444e+07
1.21198e+07
9.24351e+06
6.45233e+06
5.6272e+06
5.72425e+06
7.58179e+06
9.12465e+07
1.15154e+08
1.33894e+08
1.43632e+08
1.70072e+07
1.61879e+07
1.6819e+07
1.64766e+07
1.51956e+07
1.31382e+07
1.0722e+07
7.83646e+06
5.53702e+06
5.07006e+06
5.45712e+06
7.94331e+06
9.09609e+07
1.18583e+08
1.41389e+08
1.57816e+08
1.48192e+07
1.43143e+07
1.46748e+07
1.44806e+07
1.36045e+07
1.18427e+07
9.34555e+06
6.40906e+06
4.89802e+06
4.76383e+06
5.51435e+06
8.64363e+06
8.95356e+07
1.16168e+08
1.36819e+08
1.66222e+08
1.3111e+07
1.23667e+07
1.26608e+07
1.25588e+07
1.18681e+07
1.0221e+07
7.74211e+06
5.34393e+06
4.74269e+06
4.90713e+06
6.42523e+06
1.02478e+07
8.3878e+07
9.9759e+07
1.04364e+08
1.14883e+08
3.0711e+07
1.79635e+07
1.55869e+07
1.37284e+07
7.07425e+06
7.81803e+06
8.84245e+06
9.33663e+06
9.00887e+06
8.13237e+06
6.64193e+06
5.45418e+06
5.40163e+06
6.05918e+06
8.77139e+06
1.26266e+07
7.17002e+07
7.66993e+07
6.82735e+07
3.89084e+07
2.03274e+07
1.67626e+07
1.48112e+07
1.2784e+07
8.22218e+06
5.25929e+06
4.99734e+06
5.57812e+06
6.55406e+06
7.12123e+06
6.89785e+06
6.80409e+06
7.2537e+06
8.8464e+06
1.34961e+07
1.51904e+07
5.7785e+07
5.70831e+07
4.83184e+07
3.15568e+07
2.05292e+07
1.73084e+07
1.50621e+07
1.30198e+07
9.33507e+06
5.17711e+06
4.25145e+06
4.61803e+06
5.80053e+06
7.25605e+06
8.49168e+06
9.55405e+06
1.10764e+07
1.46841e+07
1.95345e+07
1.39725e+07
4.53506e+07
4.27695e+07
3.70156e+07
2.64605e+07
1.95382e+07
1.69098e+07
1.48467e+07
1.28634e+07
9.72165e+06
5.864e+06
4.71698e+06
4.78896e+06
6.56768e+06
9.70541e+06
1.2355e+07
1.45941e+07
1.77187e+07
2.06097e+07
1.65617e+07
8.50041e+06
3.48834e+07
3.25986e+07
2.94825e+07
2.24094e+07
1.73951e+07
1.55388e+07
1.39326e+07
1.20936e+07
9.30255e+06
6.82704e+06
5.98832e+06
6.65493e+06
1.02494e+07
1.49832e+07
1.78083e+07
1.94633e+07
1.93765e+07
1.53913e+07
8.83601e+06
1.03791e+06
2.63428e+07
2.4943e+07
2.37021e+07
1.89e+07
1.48117e+07
1.3376e+07
1.20971e+07
1.03799e+07
8.28546e+06
7.19116e+06
7.36659e+06
9.83421e+06
1.51417e+07
1.95216e+07
2.06012e+07
1.75875e+07
1.2785e+07
6.16149e+06
703429
123994
1.93778e+07
1.87741e+07
1.87421e+07
1.55354e+07
1.22099e+07
1.08573e+07
9.52516e+06
7.85625e+06
6.65581e+06
6.87209e+06
8.50038e+06
1.24789e+07
1.7997e+07
2.06435e+07
1.81325e+07
1.01829e+07
2.80663e+06
287058
122926
122500
1.3319e+07
1.34294e+07
1.40473e+07
1.1866e+07
9.27934e+06
7.90478e+06
6.51143e+06
5.38878e+06
5.42315e+06
6.74162e+06
9.53833e+06
1.4734e+07
1.96714e+07
1.76788e+07
1.02497e+07
1.2403e+06
139566
122532
122500
122500
8.54008e+06
8.82987e+06
9.60765e+06
8.09923e+06
6.46818e+06
5.56364e+06
4.92865e+06
4.75101e+06
5.37578e+06
7.20014e+06
1.1081e+07
1.78719e+07
1.95498e+07
1.28924e+07
2.86909e+06
140527
122501
122500
122500
122500
6.89712e+06
6.48352e+06
7.22505e+06
6.43571e+06
5.6384e+06
5.08437e+06
4.7779e+06
4.90604e+06
6.04358e+06
8.8354e+06
1.47215e+07
2.07094e+07
1.54606e+07
6.22913e+06
292512
122534
122500
122500
122500
122500
6.8299e+06
6.08422e+06
6.80468e+06
6.29753e+06
5.73201e+06
5.45924e+06
5.50599e+06
6.40896e+06
8.76829e+06
1.35182e+07
1.95835e+07
1.65964e+07
8.88211e+06
713302
122943
122500
122500
122500
122500
122500
8.90265e+06
6.92723e+06
7.40265e+06
7.42839e+06
7.57886e+06
7.92639e+06
8.62065e+06
1.02412e+07
1.26472e+07
1.52329e+07
1.40148e+07
8.54036e+06
1.04927e+06
124043
122500
122500
122500
122500
122500
122500
5.95038e+07
6.71829e+07
7.46408e+07
8.00289e+07
8.68158e+07
8.99854e+07
8.99445e+07
8.84694e+07
8.20644e+07
6.95223e+07
5.58602e+07
4.37517e+07
3.37575e+07
2.57284e+07
1.92395e+07
1.35583e+07
8.81415e+06
6.92725e+06
6.77358e+06
8.52421e+06
6.71304e+07
7.69898e+07
8.67147e+07
9.48097e+07
1.05639e+08
1.12848e+08
1.16781e+08
1.13715e+08
9.57575e+07
7.2738e+07
5.35197e+07
4.00625e+07
3.07508e+07
2.38486e+07
1.82946e+07
1.34105e+07
9.03101e+06
6.54753e+06
6.09268e+06
6.72335e+06
7.45449e+07
8.66145e+07
9.79858e+07
1.06752e+08
1.19271e+08
1.31448e+08
1.39554e+08
1.34292e+08
9.95716e+07
6.33569e+07
4.42274e+07
3.39472e+07
2.7311e+07
2.22632e+07
1.79121e+07
1.37182e+07
9.58558e+06
7.16339e+06
6.72373e+06
7.20027e+06
7.98678e+07
9.45611e+07
1.0672e+08
1.08301e+08
1.19235e+08
1.4168e+08
1.57023e+08
1.6528e+08
1.13555e+08
3.55041e+07
2.86381e+07
2.40707e+07
2.05294e+07
1.75374e+07
1.47108e+07
1.15797e+07
8.11988e+06
6.3355e+06
6.16173e+06
7.11066e+06
8.65314e+07
1.05155e+08
1.18652e+08
1.20304e+08
2.85945e+07
1.79716e+07
1.84933e+07
1.78464e+07
1.61827e+07
1.4012e+07
1.17736e+07
9.20029e+06
6.49191e+06
5.57335e+06
5.61851e+06
7.18089e+06
8.97279e+07
1.12351e+08
1.30494e+08
1.39218e+08
1.63908e+07
1.49456e+07
1.55097e+07
1.53787e+07
1.45362e+07
1.28548e+07
1.0651e+07
7.9574e+06
5.56249e+06
5.01115e+06
5.25091e+06
7.33659e+06
8.97385e+07
1.16316e+08
1.38801e+08
1.55905e+08
1.41881e+07
1.3381e+07
1.36795e+07
1.36005e+07
1.30323e+07
1.16345e+07
9.47768e+06
6.71997e+06
4.90083e+06
4.66428e+06
5.16374e+06
7.79213e+06
8.8372e+07
1.13514e+08
1.33917e+08
1.64459e+08
1.24737e+07
1.15501e+07
1.18244e+07
1.17951e+07
1.13738e+07
1.01255e+07
7.98575e+06
5.52191e+06
4.56964e+06
4.62837e+06
5.69039e+06
9.152e+06
8.21355e+07
9.56956e+07
9.9293e+07
1.11271e+08
2.80794e+07
1.60956e+07
1.41226e+07
1.2835e+07
6.04764e+06
6.91751e+06
8.18496e+06
8.8641e+06
8.69345e+06
7.9305e+06
6.54135e+06
5.16116e+06
5.00287e+06
5.42495e+06
7.43768e+06
1.15592e+07
6.96777e+07
7.27857e+07
6.31009e+07
3.53194e+07
1.79937e+07
1.48461e+07
1.34274e+07
1.17072e+07
7.25053e+06
4.64398e+06
4.48229e+06
5.04964e+06
5.80967e+06
6.4059e+06
6.22527e+06
6.07306e+06
6.38458e+06
7.56154e+06
1.14139e+07
1.49765e+07
5.60466e+07
5.35382e+07
4.4008e+07
2.8295e+07
1.8331e+07
1.54687e+07
1.37398e+07
1.19554e+07
8.522e+06
4.643e+06
3.55041e+06
3.84394e+06
4.91573e+06
6.18346e+06
7.21342e+06
8.16317e+06
9.39698e+06
1.23405e+07
1.85328e+07
1.55535e+07
4.3905e+07
4.0046e+07
3.37635e+07
2.3755e+07
1.76488e+07
1.53266e+07
1.36502e+07
1.18869e+07
9.05781e+06
5.26814e+06
3.91322e+06
3.96989e+06
5.27296e+06
7.80465e+06
1.03423e+07
1.24199e+07
1.54294e+07
1.99555e+07
1.90532e+07
1.06164e+07
3.38701e+07
3.07294e+07
2.71751e+07
2.03047e+07
1.59781e+07
1.44598e+07
1.30669e+07
1.14017e+07
8.78843e+06
6.00731e+06
5.07554e+06
5.40275e+06
8.29869e+06
1.27973e+07
1.6103e+07
1.85633e+07
2.03583e+07
1.77476e+07
1.14976e+07
2.39376e+06
2.5813e+07
2.3853e+07
2.21648e+07
1.73885e+07
1.38487e+07
1.27777e+07
1.16524e+07
1.00962e+07
7.92703e+06
6.47666e+06
6.35228e+06
8.08981e+06
1.30827e+07
1.81394e+07
2.07764e+07
1.89098e+07
1.49186e+07
8.9996e+06
1.78248e+06
136778
1.93033e+07
1.83373e+07
1.78605e+07
1.46227e+07
1.16651e+07
1.05959e+07
9.47029e+06
7.93769e+06
6.48844e+06
6.25502e+06
7.36239e+06
1.07018e+07
1.65496e+07
2.09705e+07
1.92292e+07
1.33174e+07
5.19844e+06
722211
127226
122500
1.36077e+07
1.34732e+07
1.37138e+07
1.15394e+07
9.14049e+06
7.93314e+06
6.70851e+06
5.49598e+06
5.13435e+06
6.08937e+06
8.30412e+06
1.28282e+07
1.89832e+07
1.89763e+07
1.33311e+07
2.88915e+06
222927
122955
122500
122500
8.84048e+06
9.07988e+06
9.61024e+06
8.117e+06
6.47201e+06
5.55744e+06
4.88966e+06
4.55742e+06
4.99019e+06
6.40978e+06
9.56328e+06
1.58707e+07
2.04768e+07
1.48582e+07
4.97465e+06
210690
122522
122500
122500
122500
6.93753e+06
6.56446e+06
7.188e+06
6.33728e+06
5.56058e+06
5.00186e+06
4.64727e+06
4.61317e+06
5.42565e+06
7.62073e+06
1.25744e+07
2.02413e+07
1.7548e+07
8.74742e+06
650668
122847
122500
122500
122500
122500
6.78088e+06
6.10445e+06
6.74004e+06
6.16191e+06
5.60471e+06
5.23191e+06
5.13213e+06
5.66535e+06
7.45605e+06
1.15301e+07
1.87492e+07
1.89067e+07
1.13353e+07
1.63766e+06
126269
122500
122500
122500
122500
122500
8.52366e+06
6.7254e+06
7.19817e+06
7.09744e+06
7.15065e+06
7.29361e+06
7.74879e+06
9.13744e+06
1.15935e+07
1.50688e+07
1.55431e+07
1.05341e+07
2.25181e+06
134394
122500
122500
122500
122500
122500
122500
5.90621e+07
6.69438e+07
7.43079e+07
7.97907e+07
8.65818e+07
8.97735e+07
9.01053e+07
8.85163e+07
8.15724e+07
6.8917e+07
5.5424e+07
4.3564e+07
3.37466e+07
2.57902e+07
1.93946e+07
1.39648e+07
9.24626e+06
7.01222e+06
6.77599e+06
8.18209e+06
6.68785e+07
7.71207e+07
8.67161e+07
9.47738e+07
1.05192e+08
1.12153e+08
1.16462e+08
1.12729e+08
9.35529e+07
7.12115e+07
5.28914e+07
4.00764e+07
3.10976e+07
2.43007e+07
1.87751e+07
1.40001e+07
9.65311e+06
6.77887e+06
6.18995e+06
6.59103e+06
7.41698e+07
8.65358e+07
9.76419e+07
1.06073e+08
1.17948e+08
1.29801e+08
1.38165e+08
1.32084e+08
9.62406e+07
6.10351e+07
4.31762e+07
3.3755e+07
2.7585e+07
2.28093e+07
1.86793e+07
1.46861e+07
1.05955e+07
7.73274e+06
7.0878e+06
7.21842e+06
7.95226e+07
9.41348e+07
1.05232e+08
1.07496e+08
1.17982e+08
1.40417e+08
1.57225e+08
1.65041e+08
1.08831e+08
3.39251e+07
2.82087e+07
2.42003e+07
2.09343e+07
1.81105e+07
1.54864e+07
1.26434e+07
9.29382e+06
7.04103e+06
6.67931e+06
7.20052e+06
8.63042e+07
1.04441e+08
1.16539e+08
1.17619e+08
2.57534e+07
1.7378e+07
1.86009e+07
1.83642e+07
1.71441e+07
1.50773e+07
1.27866e+07
1.03067e+07
7.49655e+06
6.11222e+06
6.03131e+06
7.09253e+06
8.95893e+07
1.11615e+08
1.28708e+08
1.37825e+08
1.48248e+07
1.45828e+07
1.54835e+07
1.58538e+07
1.53913e+07
1.39941e+07
1.18397e+07
9.20228e+06
6.48561e+06
5.5123e+06
5.59556e+06
7.10053e+06
9.0019e+07
1.16168e+08
1.37583e+08
1.56002e+08
1.31578e+07
1.32444e+07
1.37517e+07
1.38803e+07
1.35895e+07
1.25236e+07
1.05812e+07
7.95119e+06
5.64545e+06
5.13645e+06
5.41488e+06
7.35134e+06
8.85686e+07
1.13058e+08
1.32819e+08
1.64585e+08
1.19074e+07
1.14517e+07
1.17871e+07
1.19075e+07
1.16934e+07
1.07943e+07
8.98302e+06
6.56516e+06
5.0814e+06
4.99042e+06
5.70744e+06
8.38348e+06
8.20381e+07
9.47082e+07
9.78896e+07
1.11076e+08
2.62205e+07
1.49602e+07
1.33507e+07
1.20186e+07
5.54108e+06
6.81278e+06
8.19943e+06
8.93816e+06
8.8756e+06
8.31074e+06
7.15553e+06
5.67348e+06
5.32674e+06
5.57971e+06
6.97528e+06
1.03649e+07
6.94608e+07
7.1953e+07
6.1549e+07
3.34529e+07
1.66372e+07
1.4497e+07
1.32959e+07
1.15105e+07
6.9016e+06
4.57939e+06
4.50533e+06
5.03668e+06
5.64265e+06
6.29254e+06
6.27149e+06
6.14812e+06
6.41316e+06
7.29779e+06
9.93524e+06
1.35453e+07
5.58377e+07
5.31617e+07
4.29565e+07
2.73619e+07
1.77846e+07
1.52514e+07
1.36953e+07
1.1914e+07
8.42599e+06
4.64694e+06
3.37009e+06
3.55334e+06
4.5483e+06
5.82668e+06
6.85926e+06
7.82056e+06
8.88895e+06
1.08791e+07
1.57612e+07
1.59075e+07
4.3797e+07
4.00567e+07
3.33464e+07
2.34335e+07
1.76296e+07
1.55494e+07
1.3792e+07
1.20308e+07
9.23352e+06
5.30715e+06
3.63929e+06
3.64538e+06
4.68969e+06
6.88876e+06
9.38633e+06
1.13436e+07
1.3577e+07
1.73854e+07
1.99495e+07
1.24607e+07
3.38331e+07
3.09498e+07
2.71852e+07
2.03564e+07
1.65511e+07
1.50809e+07
1.34995e+07
1.18049e+07
9.14462e+06
5.96379e+06
4.7657e+06
4.85376e+06
7.06032e+06
1.10996e+07
1.4518e+07
1.68174e+07
1.90421e+07
1.92296e+07
1.3701e+07
5.10491e+06
2.5797e+07
2.41235e+07
2.24606e+07
1.76885e+07
1.46087e+07
1.37058e+07
1.24466e+07
1.08546e+07
8.49336e+06
6.5836e+06
6.1261e+06
7.2773e+06
1.14491e+07
1.57923e+07
1.91028e+07
1.89597e+07
1.65115e+07
1.1904e+07
4.28118e+06
257932
1.93739e+07
1.86272e+07
1.84004e+07
1.51849e+07
1.24152e+07
1.16075e+07
1.05034e+07
8.97689e+06
7.25536e+06
6.47776e+06
7.17005e+06
9.88488e+06
1.50353e+07
1.94299e+07
1.95048e+07
1.57427e+07
8.68242e+06
2.2012e+06
177412
122523
1.39394e+07
1.39033e+07
1.44935e+07
1.2448e+07
1.00259e+07
9.02579e+06
7.86195e+06
6.52478e+06
5.71605e+06
6.29646e+06
8.1016e+06
1.18446e+07
1.7366e+07
1.913e+07
1.58188e+07
6.47465e+06
678311
130416
122504
122500
9.22956e+06
9.59968e+06
1.04771e+07
9.18028e+06
7.30829e+06
6.36225e+06
5.55715e+06
5.03586e+06
5.35682e+06
6.5229e+06
9.1379e+06
1.40889e+07
1.94117e+07
1.64437e+07
8.35228e+06
606371
123125
122500
122500
122500
6.99435e+06
6.74205e+06
7.64986e+06
6.95892e+06
5.98148e+06
5.4122e+06
5.05019e+06
4.94646e+06
5.59196e+06
7.38948e+06
1.11339e+07
1.78185e+07
1.90597e+07
1.15928e+07
1.92047e+06
128003
122500
122500
122500
122500
6.75816e+06
6.15667e+06
7.0177e+06
6.60684e+06
5.91805e+06
5.50009e+06
5.31992e+06
5.65122e+06
6.97904e+06
1.00408e+07
1.60381e+07
1.99393e+07
1.34594e+07
3.91334e+06
164239
122502
122500
122500
122500
122500
8.15398e+06
6.56265e+06
7.17138e+06
7.14268e+06
7.01052e+06
7.01768e+06
7.27396e+06
8.33817e+06
1.03773e+07
1.3634e+07
1.59593e+07
1.23486e+07
4.81089e+06
232088
122515
122500
122500
122500
122500
122500
5.86228e+07
6.63075e+07
7.34874e+07
7.86703e+07
8.52475e+07
8.83441e+07
8.9076e+07
8.76526e+07
8.077e+07
6.84118e+07
5.5385e+07
4.39356e+07
3.45157e+07
2.6897e+07
2.07427e+07
1.54524e+07
1.05874e+07
7.81196e+06
7.39249e+06
8.37891e+06
6.6247e+07
7.62664e+07
8.56331e+07
9.29123e+07
1.03022e+08
1.0979e+08
1.14469e+08
1.1086e+08
9.14876e+07
6.9932e+07
5.20866e+07
3.9785e+07
3.13159e+07
2.4968e+07
1.9808e+07
1.53092e+07
1.10156e+07
7.69105e+06
6.83626e+06
6.92185e+06
7.33736e+07
8.55816e+07
9.60302e+07
1.02914e+08
1.14386e+08
1.26172e+08
1.34904e+08
1.2913e+08
9.32695e+07
5.85662e+07
4.18496e+07
3.32854e+07
2.76433e+07
2.32039e+07
1.9359e+07
1.57085e+07
1.18286e+07
8.62723e+06
7.75334e+06
7.61692e+06
7.8438e+07
9.2625e+07
1.02543e+08
1.03216e+08
1.13679e+08
1.33967e+08
1.51717e+08
1.59552e+08
1.02033e+08
3.13197e+07
2.69426e+07
2.38094e+07
2.10588e+07
1.85317e+07
1.6138e+07
1.36121e+07
1.05144e+07
7.94226e+06
7.38087e+06
7.61584e+06
8.49024e+07
1.02306e+08
1.13026e+08
1.10034e+08
2.40877e+07
1.66307e+07
1.81766e+07
1.83922e+07
1.76047e+07
1.58248e+07
1.36182e+07
1.12947e+07
8.59363e+06
6.88443e+06
6.68799e+06
7.44345e+06
8.81982e+07
1.09389e+08
1.2549e+08
1.32913e+08
1.54803e+07
1.5197e+07
1.60718e+07
1.66069e+07
1.6234e+07
1.49516e+07
1.2878e+07
1.03597e+07
7.60419e+06
6.28255e+06
6.24072e+06
7.40664e+06
8.89689e+07
1.14208e+08
1.34482e+08
1.51163e+08
1.4267e+07
1.42738e+07
1.47348e+07
1.48626e+07
1.46e+07
1.36185e+07
1.17597e+07
9.20024e+06
6.66377e+06
5.86251e+06
6.01836e+06
7.59659e+06
8.77261e+07
1.11011e+08
1.29299e+08
1.59053e+08
1.28142e+07
1.263e+07
1.29386e+07
1.31813e+07
1.30039e+07
1.21689e+07
1.03674e+07
7.85822e+06
5.9487e+06
5.68892e+06
6.26318e+06
8.56355e+06
8.11475e+07
9.23762e+07
9.45308e+07
1.04582e+08
2.42894e+07
1.51916e+07
1.40355e+07
1.27662e+07
6.01638e+06
7.62002e+06
9.27849e+06
1.03029e+07
1.03321e+07
9.7984e+06
8.55854e+06
6.76808e+06
6.11825e+06
6.28653e+06
7.47193e+06
1.04028e+07
6.88615e+07
7.06952e+07
5.95265e+07
3.19081e+07
1.64453e+07
1.485e+07
1.40124e+07
1.25156e+07
7.85816e+06
5.43659e+06
5.43084e+06
6.17111e+06
6.89401e+06
7.5668e+06
7.40828e+06
7.10028e+06
7.24522e+06
7.99427e+06
1.01526e+07
1.33578e+07
5.57076e+07
5.25714e+07
4.22515e+07
2.69877e+07
1.78701e+07
1.57876e+07
1.4447e+07
1.28158e+07
9.46678e+06
5.56941e+06
4.20575e+06
4.38775e+06
5.47661e+06
6.87006e+06
7.8848e+06
8.75625e+06
9.69933e+06
1.1264e+07
1.52732e+07
1.63037e+07
4.414e+07
4.00093e+07
3.33784e+07
2.36782e+07
1.8025e+07
1.63253e+07
1.46148e+07
1.30021e+07
1.03779e+07
6.3711e+06
4.46843e+06
4.44149e+06
5.53357e+06
7.78209e+06
1.02453e+07
1.20998e+07
1.3938e+07
1.71185e+07
2.0494e+07
1.41132e+07
3.46435e+07
3.13964e+07
2.76152e+07
2.08938e+07
1.7245e+07
1.59477e+07
1.43662e+07
1.28147e+07
1.03287e+07
7.07129e+06
5.64257e+06
5.67056e+06
7.73588e+06
1.16171e+07
1.50582e+07
1.71926e+07
1.91937e+07
2.02621e+07
1.57477e+07
7.50035e+06
2.69821e+07
2.49813e+07
2.31354e+07
1.83736e+07
1.54934e+07
1.46665e+07
1.34088e+07
1.1952e+07
9.70338e+06
7.63052e+06
7.04037e+06
8.08132e+06
1.18712e+07
1.56738e+07
1.91366e+07
1.96759e+07
1.8093e+07
1.41086e+07
6.85438e+06
595906
2.08069e+07
1.98038e+07
1.92841e+07
1.5991e+07
1.3339e+07
1.26205e+07
1.15712e+07
1.01465e+07
8.41892e+06
7.40832e+06
8.02441e+06
1.05909e+07
1.54426e+07
1.93761e+07
2.05723e+07
1.79097e+07
1.16068e+07
4.12448e+06
347340
122785
1.55081e+07
1.53139e+07
1.56583e+07
1.34934e+07
1.10798e+07
1.01532e+07
9.02473e+06
7.6693e+06
6.64386e+06
7.06422e+06
8.84549e+06
1.23937e+07
1.75857e+07
1.98867e+07
1.7962e+07
1.00032e+07
1.67923e+06
167596
122553
122500
1.06384e+07
1.1039e+07
1.18127e+07
1.04383e+07
8.44567e+06
7.44935e+06
6.51008e+06
5.81261e+06
6.02069e+06
7.19178e+06
9.73944e+06
1.41802e+07
1.94487e+07
1.80384e+07
1.13991e+07
1.56062e+06
128703
122502
122500
122500
7.83268e+06
7.71116e+06
8.6166e+06
7.8831e+06
6.77046e+06
6.15444e+06
5.72753e+06
5.56937e+06
6.18762e+06
7.91945e+06
1.12768e+07
1.72863e+07
2.02135e+07
1.38481e+07
3.81175e+06
158338
122502
122500
122500
122500
7.40222e+06
6.84264e+06
7.73912e+06
7.32411e+06
6.58514e+06
6.12121e+06
5.89076e+06
6.14673e+06
7.3599e+06
1.00612e+07
1.52924e+07
2.05019e+07
1.55239e+07
6.47122e+06
310171
122537
122500
122500
122500
122500
8.35802e+06
6.91084e+06
7.59922e+06
7.57031e+06
7.36246e+06
7.30735e+06
7.48643e+06
8.44686e+06
1.02919e+07
1.33042e+07
1.63169e+07
1.40132e+07
7.25265e+06
537872
122714
122500
122500
122500
122500
122500
5.76616e+07
6.51856e+07
7.25256e+07
7.74508e+07
8.39762e+07
8.7284e+07
8.83174e+07
8.71038e+07
8.02372e+07
6.80301e+07
5.53347e+07
4.42891e+07
3.53408e+07
2.81307e+07
2.22092e+07
1.69753e+07
1.19401e+07
8.68487e+06
8.06881e+06
8.7047e+06
6.51433e+07
7.51683e+07
8.47012e+07
9.16096e+07
1.01769e+08
1.08713e+08
1.13606e+08
1.10122e+08
9.04026e+07
6.89628e+07
5.12036e+07
3.9431e+07
3.16269e+07
2.5871e+07
2.11104e+07
1.67755e+07
1.24346e+07
8.74378e+06
7.60324e+06
7.38304e+06
7.24309e+07
8.45545e+07
9.48211e+07
1.01145e+08
1.12701e+08
1.25042e+08
1.33782e+08
1.27952e+08
9.17664e+07
5.67885e+07
4.04659e+07
3.25815e+07
2.76531e+07
2.38487e+07
2.05085e+07
1.7172e+07
1.33585e+07
9.87265e+06
8.73232e+06
8.22127e+06
7.72162e+07
9.10823e+07
1.00575e+08
1.0046e+08
1.08541e+08
1.31928e+08
1.49702e+08
1.57226e+08
1.00201e+08
3.02408e+07
2.58875e+07
2.31318e+07
2.09179e+07
1.89678e+07
1.70865e+07
1.49455e+07
1.20169e+07
9.21259e+06
8.43065e+06
8.3068e+06
8.36956e+07
1.01023e+08
1.115e+08
1.07953e+08
2.29788e+07
1.62399e+07
1.76405e+07
1.82128e+07
1.7675e+07
1.63092e+07
1.4482e+07
1.2428e+07
9.83343e+06
7.93244e+06
7.5939e+06
8.05985e+06
8.71407e+07
1.0827e+08
1.24044e+08
1.3022e+08
1.54149e+07
1.52503e+07
1.61519e+07
1.6979e+07
1.67546e+07
1.57407e+07
1.39221e+07
1.15518e+07
8.75831e+06
7.24654e+06
7.07656e+06
7.97864e+06
8.82429e+07
1.13363e+08
1.33335e+08
1.49203e+08
1.50333e+07
1.49179e+07
1.53776e+07
1.57774e+07
1.56169e+07
1.47941e+07
1.30302e+07
1.04291e+07
7.7205e+06
6.75721e+06
6.79792e+06
8.13508e+06
8.70706e+07
1.10119e+08
1.27985e+08
1.57041e+08
1.4197e+07
1.40027e+07
1.42439e+07
1.46252e+07
1.45185e+07
1.37299e+07
1.18374e+07
9.09869e+06
6.91612e+06
6.54827e+06
7.0148e+06
9.08951e+06
8.05207e+07
9.10649e+07
9.26499e+07
1.01284e+08
2.31068e+07
1.51073e+07
1.45452e+07
1.38458e+07
7.21804e+06
9.20743e+06
1.10128e+07
1.20673e+07
1.20745e+07
1.14622e+07
1.00341e+07
7.93565e+06
7.11106e+06
7.18988e+06
8.23364e+06
1.0884e+07
6.85184e+07
6.97555e+07
5.78148e+07
3.09792e+07
1.65052e+07
1.51074e+07
1.45692e+07
1.36759e+07
9.34585e+06
6.7997e+06
6.84437e+06
7.68154e+06
8.43294e+06
9.06759e+06
8.77844e+06
8.31088e+06
8.33686e+06
8.9129e+06
1.08386e+07
1.37528e+07
5.58343e+07
5.19564e+07
4.12245e+07
2.64044e+07
1.78066e+07
1.60033e+07
1.50351e+07
1.39508e+07
1.10106e+07
6.91632e+06
5.32634e+06
5.51553e+06
6.70219e+06
8.19272e+06
9.21868e+06
9.99486e+06
1.0772e+07
1.2094e+07
1.57762e+07
1.68858e+07
4.47282e+07
3.9996e+07
3.30716e+07
2.34186e+07
1.81734e+07
1.67921e+07
1.5501e+07
1.43302e+07
1.19556e+07
7.7502e+06
5.56062e+06
5.4673e+06
6.61595e+06
8.99688e+06
1.14876e+07
1.32246e+07
1.48607e+07
1.77809e+07
2.12311e+07
1.52178e+07
3.56954e+07
3.20182e+07
2.79682e+07
2.10696e+07
1.75755e+07
1.65555e+07
1.53682e+07
1.42199e+07
1.19142e+07
8.47873e+06
6.78895e+06
6.70073e+06
8.75884e+06
1.26321e+07
1.60584e+07
1.81468e+07
2.00243e+07
2.11861e+07
1.7076e+07
8.82388e+06
2.84055e+07
2.61415e+07
2.40669e+07
1.90621e+07
1.61828e+07
1.5546e+07
1.45906e+07
1.34267e+07
1.12442e+07
9.0132e+06
8.27348e+06
9.19298e+06
1.28002e+07
1.62283e+07
1.98042e+07
2.06113e+07
1.92892e+07
1.54895e+07
8.34585e+06
895194
2.24208e+07
2.13034e+07
2.06691e+07
1.71595e+07
1.43818e+07
1.3764e+07
1.28746e+07
1.15751e+07
9.82027e+06
8.69019e+06
9.2718e+06
1.1711e+07
1.63022e+07
1.99326e+07
2.16193e+07
1.93585e+07
1.32741e+07
5.32715e+06
516492
123309
1.71432e+07
1.6924e+07
1.73002e+07
1.50141e+07
1.23815e+07
1.14537e+07
1.03238e+07
8.93412e+06
7.79049e+06
8.21825e+06
1.00089e+07
1.33901e+07
1.8334e+07
2.06969e+07
1.93921e+07
1.20206e+07
2.47835e+06
212952
122661
122500
1.20687e+07
1.2556e+07
1.3471e+07
1.20915e+07
9.83887e+06
8.71081e+06
7.64722e+06
6.82311e+06
7.00737e+06
8.24988e+06
1.07535e+07
1.4947e+07
2.0081e+07
1.92084e+07
1.31182e+07
2.36229e+06
139206
122509
122500
122500
8.74333e+06
8.81627e+06
9.94103e+06
9.25448e+06
7.92285e+06
7.18948e+06
6.67671e+06
6.46217e+06
7.09826e+06
8.82549e+06
1.20318e+07
1.77746e+07
2.10909e+07
1.52674e+07
5.04193e+06
199984
122507
122500
122500
122500
8.10249e+06
7.63473e+06
8.76369e+06
8.44679e+06
7.56991e+06
7.01335e+06
6.71875e+06
6.92761e+06
8.12923e+06
1.07093e+07
1.56697e+07
2.11669e+07
1.68827e+07
8.00918e+06
470664
122625
122500
122500
122500
122500
8.6912e+06
7.38465e+06
8.22382e+06
8.29368e+06
8.01235e+06
7.90831e+06
8.05042e+06
8.98247e+06
1.07567e+07
1.36492e+07
1.68536e+07
1.513e+07
8.62082e+06
832013
123166
122500
122500
122500
122500
122500
5.76588e+07
6.51811e+07
7.25278e+07
7.74525e+07
8.39988e+07
8.73394e+07
8.8383e+07
8.71069e+07
8.02034e+07
6.80135e+07
5.53334e+07
4.42949e+07
3.53476e+07
2.81375e+07
2.22173e+07
1.69874e+07
1.19535e+07
8.69473e+06
8.07697e+06
8.71118e+06
6.51511e+07
7.51765e+07
8.46917e+07
9.15164e+07
1.01762e+08
1.08816e+08
1.13749e+08
1.10093e+08
9.0337e+07
6.89655e+07
5.12784e+07
3.95063e+07
3.16825e+07
2.59087e+07
2.11361e+07
1.6796e+07
1.24533e+07
8.75883e+06
7.615e+06
7.39101e+06
7.24429e+07
8.45788e+07
9.48074e+07
1.00835e+08
1.12709e+08
1.25277e+08
1.34011e+08
1.27863e+08
9.17394e+07
5.69411e+07
4.06507e+07
3.27064e+07
2.77244e+07
2.38972e+07
2.05461e+07
1.72028e+07
1.3386e+07
9.89296e+06
8.74719e+06
8.22948e+06
7.72262e+07
9.11575e+07
1.00789e+08
1.00453e+08
1.07565e+08
1.32653e+08
1.49824e+08
1.57528e+08
9.98898e+07
3.04743e+07
2.61933e+07
2.33346e+07
2.10132e+07
1.9012e+07
1.71117e+07
1.49668e+07
1.20415e+07
9.23064e+06
8.4425e+06
8.30996e+06
8.36864e+07
1.01029e+08
1.11403e+08
1.08056e+08
2.27644e+07
1.62089e+07
1.7691e+07
1.82446e+07
1.77007e+07
1.63305e+07
1.44967e+07
1.24425e+07
9.8536e+06
7.94248e+06
7.59877e+06
8.05358e+06
8.71096e+07
1.08194e+08
1.23815e+08
1.29176e+08
1.46906e+07
1.49136e+07
1.58986e+07
1.68509e+07
1.66665e+07
1.57036e+07
1.39152e+07
1.15616e+07
8.77359e+06
7.24775e+06
7.07352e+06
7.96793e+06
8.8208e+07
1.13275e+08
1.33186e+08
1.48738e+08
1.45033e+07
1.46333e+07
1.51489e+07
1.56313e+07
1.55004e+07
1.47225e+07
1.29955e+07
1.04213e+07
7.71821e+06
6.74878e+06
6.78897e+06
8.12505e+06
8.70319e+07
1.10073e+08
1.27961e+08
1.57248e+08
1.46444e+07
1.38349e+07
1.40933e+07
1.45035e+07
1.44024e+07
1.36239e+07
1.17522e+07
9.04675e+06
6.89337e+06
6.53049e+06
7.00166e+06
9.08506e+06
8.04801e+07
9.10955e+07
9.28061e+07
1.02566e+08
2.28452e+07
1.50422e+07
1.45043e+07
1.42952e+07
7.72836e+06
9.24653e+06
1.09949e+07
1.20227e+07
1.20117e+07
1.1379e+07
9.94495e+06
7.87123e+06
7.07426e+06
7.16309e+06
8.22117e+06
1.08875e+07
6.84698e+07
6.97118e+07
5.78346e+07
3.07799e+07
1.6293e+07
1.50687e+07
1.45899e+07
1.36768e+07
9.2615e+06
6.76963e+06
6.84739e+06
7.69225e+06
8.41873e+06
9.00759e+06
8.70853e+06
8.25059e+06
8.29081e+06
8.88679e+06
1.08374e+07
1.37674e+07
5.57859e+07
5.18954e+07
4.11867e+07
2.63914e+07
1.78089e+07
1.60235e+07
1.50615e+07
1.39426e+07
1.09323e+07
6.85964e+06
5.30074e+06
5.49502e+06
6.68711e+06
8.16592e+06
9.18123e+06
9.95714e+06
1.07457e+07
1.20898e+07
1.58009e+07
1.68848e+07
4.46915e+07
3.99544e+07
3.30492e+07
2.34784e+07
1.82816e+07
1.68575e+07
1.55207e+07
1.43277e+07
1.19024e+07
7.67426e+06
5.51357e+06
5.43194e+06
6.5986e+06
9.00168e+06
1.15003e+07
1.32395e+07
1.48888e+07
1.78174e+07
2.1231e+07
1.51512e+07
3.5672e+07
3.19992e+07
2.79653e+07
2.11377e+07
1.77002e+07
1.6633e+07
1.53919e+07
1.42213e+07
1.18649e+07
8.39324e+06
6.71948e+06
6.65108e+06
8.74786e+06
1.26602e+07
1.61049e+07
1.8213e+07
2.0084e+07
2.11889e+07
1.69952e+07
8.72096e+06
2.83916e+07
2.61379e+07
2.4078e+07
1.91225e+07
1.62947e+07
1.56343e+07
1.46269e+07
1.34398e+07
1.1208e+07
8.95941e+06
8.21484e+06
9.14365e+06
1.27964e+07
1.62578e+07
1.98343e+07
2.06517e+07
1.92914e+07
1.5441e+07
8.23815e+06
869171
2.24106e+07
2.13053e+07
2.06874e+07
1.72108e+07
1.44596e+07
1.38479e+07
1.29257e+07
1.16056e+07
9.81413e+06
8.67383e+06
9.25083e+06
1.1683e+07
1.62814e+07
1.98959e+07
2.16041e+07
1.9352e+07
1.32506e+07
5.26434e+06
503032
123249
1.71338e+07
1.69237e+07
1.73161e+07
1.50562e+07
1.24275e+07
1.15244e+07
1.0387e+07
8.98131e+06
7.82448e+06
8.24887e+06
1.00227e+07
1.33799e+07
1.83139e+07
2.06597e+07
1.93611e+07
1.19978e+07
2.45633e+06
210127
122649
122500
1.20585e+07
1.25501e+07
1.34791e+07
1.21246e+07
9.86407e+06
8.76439e+06
7.70639e+06
6.87684e+06
7.06394e+06
8.29658e+06
1.07825e+07
1.49511e+07
2.00638e+07
1.91755e+07
1.3105e+07
2.35996e+06
139005
122508
122500
122500
8.73733e+06
8.80915e+06
9.94433e+06
9.27483e+06
7.93942e+06
7.22894e+06
6.72729e+06
6.51486e+06
7.15284e+06
8.87829e+06
1.2066e+07
1.77818e+07
2.10605e+07
1.52581e+07
5.04693e+06
200245
122507
122500
122500
122500
8.09858e+06
7.63055e+06
8.76568e+06
8.46119e+06
7.58616e+06
7.04892e+06
6.76178e+06
6.97546e+06
8.18215e+06
1.07609e+07
1.57008e+07
2.11461e+07
1.68572e+07
8.0124e+06
471398
122626
122500
122500
122500
122500
8.69197e+06
7.38424e+06
8.22561e+06
8.30334e+06
8.02826e+06
7.93326e+06
8.07946e+06
9.01823e+06
1.07926e+07
1.36708e+07
1.68416e+07
1.51029e+07
8.61099e+06
831405
123166
122500
122500
122500
122500
122500
5.86135e+07
6.62995e+07
7.35066e+07
7.87234e+07
8.52845e+07
8.84437e+07
8.91572e+07
8.76892e+07
8.06413e+07
6.82594e+07
5.52866e+07
4.38898e+07
3.4504e+07
2.6901e+07
2.07518e+07
1.54621e+07
1.05973e+07
7.826e+06
7.40694e+06
8.39547e+06
6.62462e+07
7.62782e+07
8.57062e+07
9.30219e+07
1.03122e+08
1.09997e+08
1.14664e+08
1.10815e+08
9.1064e+07
6.96438e+07
5.19719e+07
3.9776e+07
3.13425e+07
2.49942e+07
1.98255e+07
1.5322e+07
1.10279e+07
7.70769e+06
6.85504e+06
6.93948e+06
7.3368e+07
8.55583e+07
9.60333e+07
1.02754e+08
1.14497e+08
1.26711e+08
1.35258e+08
1.28935e+08
9.26315e+07
5.81555e+07
4.17372e+07
3.32962e+07
2.76769e+07
2.32272e+07
1.93644e+07
1.57064e+07
1.18282e+07
8.63247e+06
7.76285e+06
7.62921e+06
7.84042e+07
9.25258e+07
1.02536e+08
1.01418e+08
1.09517e+08
1.33986e+08
1.50941e+08
1.58161e+08
1.00216e+08
3.10728e+07
2.6899e+07
2.383e+07
2.10676e+07
1.85143e+07
1.60958e+07
1.35634e+07
1.04767e+07
7.91974e+06
7.36403e+06
7.60746e+06
8.48833e+07
1.02201e+08
1.12755e+08
1.08889e+08
2.23063e+07
1.64906e+07
1.80814e+07
1.83366e+07
1.75668e+07
1.57842e+07
1.35494e+07
1.12134e+07
8.52469e+06
6.83595e+06
6.64757e+06
7.41261e+06
8.81314e+07
1.09221e+08
1.24989e+08
1.29777e+08
1.51446e+07
1.49786e+07
1.59155e+07
1.65291e+07
1.61749e+07
1.49015e+07
1.28181e+07
1.0293e+07
7.53835e+06
6.22516e+06
6.19145e+06
7.37245e+06
8.88974e+07
1.14034e+08
1.34161e+08
1.49454e+08
1.466e+07
1.41143e+07
1.45694e+07
1.4771e+07
1.45294e+07
1.35738e+07
1.17215e+07
9.14691e+06
6.59412e+06
5.801e+06
5.96582e+06
7.56705e+06
8.7658e+07
1.10701e+08
1.28653e+08
1.57199e+08
1.36773e+07
1.24896e+07
1.28415e+07
1.30893e+07
1.2914e+07
1.20816e+07
1.02825e+07
7.77252e+06
5.87746e+06
5.6296e+06
6.2183e+06
8.5497e+06
8.08855e+07
9.1601e+07
9.33652e+07
1.01619e+08
2.23434e+07
1.51923e+07
1.47462e+07
1.38616e+07
6.3899e+06
7.67949e+06
9.33468e+06
1.03138e+07
1.03e+07
9.73818e+06
8.48296e+06
6.69403e+06
6.05859e+06
6.2332e+06
7.44018e+06
1.04147e+07
6.85754e+07
7.01533e+07
5.88055e+07
3.1542e+07
1.65527e+07
1.50438e+07
1.41972e+07
1.26245e+07
7.78428e+06
5.44965e+06
5.47875e+06
6.23018e+06
6.93425e+06
7.5596e+06
7.37584e+06
7.05262e+06
7.19497e+06
7.95195e+06
1.01602e+07
1.34024e+07
5.55254e+07
5.22946e+07
4.20236e+07
2.70207e+07
1.80658e+07
1.59323e+07
1.45989e+07
1.28929e+07
9.42605e+06
5.53754e+06
4.19975e+06
4.39931e+06
5.51493e+06
6.9022e+06
7.89922e+06
8.75003e+06
9.68428e+06
1.12783e+07
1.53651e+07
1.63039e+07
4.40517e+07
3.99312e+07
3.33823e+07
2.38276e+07
1.82721e+07
1.64954e+07
1.47519e+07
1.30893e+07
1.03615e+07
6.3072e+06
4.43442e+06
4.42908e+06
5.56725e+06
7.86928e+06
1.0336e+07
1.21734e+07
1.40224e+07
1.7226e+07
2.04878e+07
1.39886e+07
3.46183e+07
3.14159e+07
2.76946e+07
2.10388e+07
1.74827e+07
1.61262e+07
1.45035e+07
1.29101e+07
1.03313e+07
7.00889e+06
5.58169e+06
5.627e+06
7.75419e+06
1.17153e+07