/*--------------------------------*- C++ -*----------------------------------*\
  =========                 |
  \\      /  F ield         | OpenFOAM: The Open Source CFD Toolbox
   \\    /   O peration     | Website:  https://openfoam.org
    \\  /    A nd           | Version:  9
     \\/     M anipulation  |
\*---------------------------------------------------------------------------*/
FoamFile
{
    format      ascii;
    class       surfaceScalarField;
    location    "0.0015";
    object      phi;
}
// * * * * * * * * * * * * * * * * * * * * * * * * * * * * * * * * * * * * * //

dimensions      [0 3 -1 0 0 0 0];

internalField   nonuniform List<scalar> 
28500
(
-321.016
-320.768
-53.4024
-238.44
-326.438
-65.4346
-163.15
-339.028
-72.1874
-82.1531
-346.103
-80.3778
3.88894
-366.273
-80.044
91.9141
-376.135
-88.635
177.03
-384.105
-91.3427
261.099
-387.321
-95.528
352.4
-386.721
-97.431
446.831
-359.11
-96.4657
535.784
-325.818
-94.1901
620.093
-295.454
-91.4413
701.704
-273.508
-88.3918
781.01
-258.253
-84.909
854.725
-246.763
-80.9085
914.505
-238.94
-77.724
967.474
-236.612
-75.9042
1034.4
-237.295
-70.8691
1067.09
-217.342
-54.1284
-195.603
-44.9479
-326.722
-237.946
-65.5498
-249.835
-249.184
-80.7604
-178.606
-264.905
-88.0828
-99.1463
-277.336
-95.382
-8.09446
-309.694
-95.3773
86.0979
-326.253
-101.289
173.96
-333.927
-106.002
265.801
-341.627
-110.796
373.923
-322.999
-113.21
473.461
-270.071
-113.045
559.113
-214.413
-110.802
637.574
-178.271
-106.952
712.378
-157.462
-102.42
785.699
-143.937
-97.5248
855.746
-132.005
-92.0871
915.041
-122.586
-87.0015
964.648
-120.344
-85.9245
1029.07
-121.529
-85.656
1094
-104.482
-68.4263
-89.2538
-52.2146
-339.168
-162.422
-72.3469
-265.306
-177.52
-88.0997
-199.662
-198.726
-91.7549
-121.736
-55.6992
-93.3909
-51.4034
-56.4289
-53.1189
-24.8486
-63.6124
-98.4825
-68.2071
-65.7233
-69.9201
79.0034
-70.2006
-101.663
-71.7982
-71.8412
-73.4004
174.471
-72.5719
-108.065
-73.5647
-74.2089
-75.0929
275.928
-69.5952
-113.175
-72.5769
-71.4524
-73.99
410.226
-63.5258
-111.717
-57.6854
-64.9278
-58.7172
514.474
-134.819
-109.64
590.896
-76.2508
-108.659
659.667
-47.7896
-106.427
727.62
-32.53
-102.409
796.308
-22.739
-97.0876
864.051
-14.8045
-90.8047
923.532
-10.3441
-84.7193
972.786
-11.5608
-81.2737
1030.17
-9.89092
-79.0437
1084.36
-1.35238
-64.5312
2.21461
-51.9664
-345.478
-81.7693
-80.4861
-276.572
-98.2887
-95.0003
-55.4522
-120.9
-92.0507
-51.453
-56.4282
-52.5042
-44.6849
-44.676
-22.099
-24.126
-24.1976
36.3072
-15.1964
-14.3193
-14.4644
-15.1212
9.61337
5.34578
-24.9123
-16.5331
-16.5854
-16.7538
-16.3867
-19.1408
31.6685
-26.3033
-17.1442
-16.5693
-16.75
-16.9634
-44.1104
54.2983
-27.6208
-16.4847
-16.2305
-16.4161
-16.2764
-74.1782
97.1852
-54.3347
-27.7254
567.348
50.1973
-91.1113
-124.275
-131.264
-124.91
-133.002
621.249
81.1753
-95.689
681.576
91.9266
-104.074
746.445
96.0962
-110.009
813.344
99.6497
-111.763
878.423
103.181
-110.072
932.318
105.081
-107.094
975.992
106.209
-107.98
1029.6
107.388
-106.837
1061.72
95.3512
-86.3329
86.9083
-78.0064
-365.248
3.70585
-80.2545
-308.304
-8.2581
-94.9073
-63.8065
-25.1264
-96.2646
-67.6904
-65.584
-68.2336
-24.0813
-22.5806
37.4189
-15.6884
-15.0532
-15.2195
-15.4258
-2.09409
33.4689
6.50417
-6.76976
583.284
196.395
-95.4102
-139.003
-148.646
-139.836
-150.466
605.867
198.71
-99.3989
650.489
201.578
-104.06
712.647
203.598
-107.93
783.651
205.02
-109.58
854.173
205.766
-108.972
912.031
206.471
-111.11
962.911
208.715
-116.523
1017.34
200.64
-109.149
1034.29
173.426
-84.9998
161.407
-77.5075
-375.467
91.541
-89.1205
-325.477
85.5658
-101.906
-70.3252
78.2007
-102.439
-71.8777
-71.9478
-73.508
9.68356
5.07566
-24.9338
-16.554
-16.6289
-16.7916
-16.4071
-10.9372
39.2598
12.4512
-5.6961
658.563
297.01
-93.8173
-161.796
-166.521
-164.73
-170.801
660.689
298.293
-93.7468
679.383
299.613
-94.5981
719.691
301.887
-97.0553
776.42
303.477
-100.613
837.899
300.837
-104.861
892.458
296.753
-111.996
949.694
292.395
-118.08
1010.95
270.694
-106.071
1023.4
241.48
-78.8117
228.532
-71.4927
-383.208
176.558
-92.0394
-333.04
173.472
-106.764
-72.5495
174.064
-108.916
-73.4512
-74.2063
-75.0259
-18.9083
31.4178
-26.5937
-17.1668
-16.5887
-16.7721
-16.9853
-16.7423
42.3359
18.1688
-5.50651
703.364
396.144
-84.2269
-173.059
-176.648
-178.517
-183.433
701.412
398.821
-85.7075
708.479
400.901
-86.3047
732.829
403.7
-89.2935
778.261
402.388
-95.4039
835.436
391.433
-103.594
893.727
379.508
-113.226
965.736
366.793
-116.476
1018.73
337.486
-95.6463
1020.07
309.196
-72.0079
288.472
-66.1185
-387.503
260.658
-95.603
-341.498
265.246
-110.874
-69.5962
275.134
-113.37
-71.9635
-71.3898
-73.5603
-43.8459
54.1817
-27.8566
-16.4028
-16.2204
-16.4005
-16.1607
-22.5757
44.2189
24.3413
-4.66557
762.708
501.844
-82.1936
-180.753
-187.362
-187.733
-193.232
761.004
498.856
-82.6056
760.017
497.398
-88.2199
773.187
492.454
-94.2063
811.799
480.606
-99.7325
867.275
466.906
-105.886
930.328
461.014
-110.99
1001.83
448.958
-104.613
1018.13
401.29
-79.0783
990.899
366.355
-65.1486
347.86
-64.2858
-385.962
352.766
-97.825
-321.857
374.761
-114.678
-63.1828
411.218
-114.656
-56.7659
-64.1152
-58.3767
-73.4915
-53.8507
98.4152
-27.5422
1.80237
7.17717
35.464
-10.0982
-10.5023
12.0524
39.6844
-5.416
-16.5499
18.0547
42.764
-5.00969
-22.596
24.2642
44.7299
-4.09666
-25.9728
-32.7844
179.57
181.831
-18.3491
-31.2262
-24.875
-29.5707
-34.9606
-35.2117
-36.3126
792.26
641.37
-74.3647
-188.285
-182.113
-194.075
-186.034
807.732
614.819
-83.5944
823.826
599.984
-91.8105
848.612
584.6
-94.9836
885.577
571.162
-96.2988
931.353
566.458
-97.7485
980.257
555.179
-93.7972
1001.14
503.705
-79.0216
979.843
453.237
-64.7594
926.835
432.99
-61.3803
423.695
-70.7505
-357.858
447.132
-97.2937
-267.814
473.831
-115.405
-131.729
514.868
-114.412
49.7581
565.659
-99.3964
-124.492
-132.059
-124.705
-132.99
194.268
588.17
-99.8245
-141.061
-150.793
-141.456
-151.831
296.056
661.592
-91.5389
-163.118
-167.833
-165.03
-170.886
399.756
709.741
-77.6676
-174.627
-178.38
-178.869
-183.986
514.407
763.519
-75.2369
-184.041
-190.863
-190.254
-197.023
637.74
797.873
-67.1668
-191.338
-184.661
-198.323
-188.897
755.283
767.569
-75.3938
829.961
733.191
-98.2642
872.478
707.826
-94.3867
901.25
683.648
-85.8978
923.676
664.884
-81.15
944.094
634.068
-76.8973
961.867
589.167
-71.1651
947.527
540.852
-63.4181
905.814
514.726
-59.2458
857.387
523.282
-73.2193
487.232
-83.714
-324.309
535.955
-95.444
-212.444
559.242
-113.508
-74.9474
590.77
-113.132
80.2765
619.197
-102.001
197.351
608.902
-101.461
297.755
664.072
-92.0469
401.097
708.357
-80.771
504.238
758.16
-76.0878
615.328
808.79
-71.8484
725.692
837.163
-88.7829
828.002
836.582
-96.2476
855.888
796.847
-77.5579
866.594
740.96
-59.8472
889.412
693.739
-60.0162
905.818
646.245
-63.2334
896.31
613.428
-62.3664
867.136
601.718
-62.7669
824.095
610.479
-75.2235
785.379
593.128
-94.4613
484.82
-92.5001
-294.034
620.206
-93.0067
-176.895
637.535
-109.722
-47.5034
659.381
-110.218
91.1118
679.905
-109.396
200.29
652.577
-105.833
298.949
682.933
-93.4247
402.393
715.119
-82.1419
500.293
757.912
-82.1518
599.789
822.548
-81.7738
703.168
874.891
-82.7972
791.236
861.171
-69.7807
805.083
808.611
-40.2626
799.485
721.383
-38.7166
811.891
658.365
-53.6895
811.954
652.983
-65.3901
799.417
671.485
-71.2833
759.637
686.805
-85.4892
731.777
661.25
-101.919
646.418
581.466
-106.676
252.8
-70.2131
-272.415
701.767
-90.1965
-156.488
712.348
-105.29
-32.5123
727.325
-105.873
95.5185
745.106
-114.482
202.154
714.17
-109.687
300.663
723.127
-96.2251
404.251
738.048
-85.8411
494.306
772.705
-87.6522
584.921
846.371
-86.1739
683.077
901.99
-77.279
740.274
870.225
-54.9536
723.462
804.625
-37.0896
666.276
668.402
-50.4841
665.641
608.934
-73.8372
677.881
643.661
-86.0971
657.376
686.857
-100.185
643.766
688.349
-110.317
559.283
601.447
-108.822
241.339
246.232
-72.1523
7.85883
-13.7097
-257.541
781.008
-86.8275
-143.243
785.716
-100.437
-22.696
796.067
-100.341
99.2364
812.234
-115.178
203.576
784.762
-111.569
301.916
779.277
-100.026
402.43
781.538
-92.213
481.984
812.122
-93.322
572.041
883.458
-89.1384
667.974
923.893
-75.4546
698.288
891.092
-57.555
665.824
815.807
-52.8628
615.079
668.622
-72.9048
601.645
597.295
-98.5038
574
592.661
-107.423
542.752
603.254
-112.535
417.369
476.52
-99.5247
159.898
163.234
-60.8593
3.39381
3.71469
-9.30651
0.000187863
-0.0185701
-246.389
854.676
-82.8337
-131.483
855.726
-94.7792
-14.6676
863.928
-93.8927
102.865
877.545
-112.347
204.462
854.88
-110.97
299.334
839.808
-104.197
391.391
837.225
-100.322
467.749
867.631
-99.8935
567.653
929.768
-92.4177
639.53
944.106
-74.1738
652.013
907.276
-63.4342
658.996
813.942
-65.8376
650.545
680.745
-84.134
597.053
574.949
-104.533
475.883
475.375
-107.055
272.367
277.709
-80.3535
47.9193
49.7024
-36.2398
0.453463
0.47791
-2.74467
3.69053e-05
2.57731e-05
-0.00487343
2.8556e-10
-5.52106e-08
-238.685
914.483
-79.6465
-122.129
914.957
-89.2857
-10.1314
923.482
-87.5318
104.82
931.639
-108.808
205.286
912.441
-112.841
295.495
893.376
-110.849
379.382
894.202
-109.886
461.188
930.072
-105.763
557.617
980.022
-90.849
593.399
962.306
-71.5007
617.054
897.362
-64.5455
675.053
801.583
-71.5399
691.552
661.12
-94.5727
608.547
546.964
-105.513
281.029
275.451
-75.0129
11.5009
11.5083
-16.8055
0.0106577
0.0100713
-0.269184
1.32811e-06
1.22949e-06
-0.000328776
1.19726e-11
4.71729e-11
-5.50408e-09
0
-3.55271e-14
-236.368
967.486
-77.6852
-119.926
964.553
-88.0386
-11.3482
972.733
-83.9975
105.85
975.562
-109.686
207.582
963.053
-118.23
291.591
949.573
-116.96
366.671
964.914
-113.942
449.367
1001.72
-101.532
505.805
1001.55
-79.3119
543.126
948.025
-65.8186
603.291
867.057
-65.1699
688.915
761.951
-83.4716
691.595
646.702
-102.603
481.61
421.226
-89.5005
51.4973
49.649
-31.2998
0.0110869
0.0117328
-0.2215
2.65816e-08
2.524e-08
-7.48648e-06
3.83693e-13
2.85638e-12
-2.00679e-10
0
0
0
0
0
-237.066
1034.37
-72.5523
-121.2
1029.07
-87.8187
-9.7199
1030.09
-81.6831
106.978
1029.4
-108.629
199.921
1017.39
-110.768
270.505
1010.99
-105.813
337.611
1018.61
-95.0953
401.911
1018.66
-79.391
454.19
980.85
-66.7524
515.543
905.836
-61.997
611.745
824.917
-76.0256
662.781
733.473
-96.7385
603.404
561.099
-99.5533
165.704
161.84
-53.48
0.505381
0.477727
-2.24477
1.31549e-06
1.45498e-06
-0.000263585
3.08376e-12
4.12115e-13
-1.75099e-10
0
0
0
0
0
0
0
0
-217.147
1066.91
-55.4445
-104.376
1093.81
-70.4382
-1.32104
1084.19
-66.7357
95.129
1061.66
-88.2359
173.24
1034.51
-85.8953
241.585
1023.65
-79.4195
309.656
1020.98
-73.0532
366.889
992.25
-66.7721
433.353
927.651
-63.5732
524.052
858.295
-74.5524
594.241
786.932
-91.898
582.691
647.701
-100.326
247.671
242.479
-65.1142
3.82828
3.49126
-7.84483
2.75822e-05
3.91067e-05
-0.00391239
5.00364e-11
1.29248e-11
-4.37696e-09
0
0
0
0
0
0
0
0
0
0
0
-195.553
-46.1171
-89.3038
-53.8019
2.15945
-53.7208
86.7702
-79.448
161.436
-78.237
228.907
-72.3982
288.935
-67.5949
348.169
-66.068
424.178
-72.1125
488.26
-82.9616
486.346
-88.9265
254.225
-65.0697
8.03619
-11.9958
0.000198448
-0.015288
3.02926e-10
-4.43801e-08
0
-2.84217e-14
0
0
0
0
0
0
0
-322.943
-322.831
-49.5127
-241.933
-330.437
-57.587
-168.159
-344.859
-61.1098
-87.3156
-354.159
-68.0201
-0.213793
-376.599
-69.3977
88.0814
-388.21
-75.6003
172.664
-395.187
-78.0977
257.586
-401.81
-82.5785
352.026
-399.062
-83.5272
446.266
-369.361
-82.1448
534.087
-331.24
-79.9516
617.04
-297.504
-78.2516
697.341
-274.093
-77.5522
776.447
-258.518
-77.5146
851.813
-247.241
-77.1316
914.284
-240.059
-75.1429
968.433
-238.539
-72.7288
1036.28
-240.133
-67.644
1075.9
-223.06
-49.9261
-199.425
-39.4957
-330.612
-241.566
-57.7022
-255.74
-255.085
-68.0198
-185.855
-273.111
-71.3077
-106.008
-291.134
-77.5051
-13.6142
-325.147
-79.2402
81.2811
-342.226
-84.0324
169.834
-350.002
-88.061
263.524
-358.692
-93.062
376.882
-337.44
-93.4244
475.969
-278.672
-92.1481
560.385
-219.014
-89.7742
636.079
-180.099
-87.1414
708.332
-158.121
-85.4824
780.271
-145.153
-84.7338
851.121
-135.172
-83.5426
913.548
-127.296
-80.4982
965.466
-125.637
-77.7216
1028.95
-127.672
-78.0096
1101.61
-112.434
-65.089
-93.7847
-46.3562
-344.995
-167.431
-61.4184
-273.572
-184.575
-71.6563
-209.845
-207.787
-72.6104
-131.269
-58.9716
-75.3713
-55.1011
-59.7072
-56.6728
-31.1156
-69.5615
-80.1535
-73.671
-71.0714
-74.9369
73.9081
-74.999
-84.6686
-76.6516
-76.4095
-77.9881
170.692
-77.2832
-90.1064
-78.4319
-78.6132
-79.7565
275.275
-74.3396
-95.1764
-77.0186
-76.0422
-78.1108
417.197
-66.8615
-91.3192
-60.8513
-68.1296
-60.8497
521.426
-141.182
-87.4666
596.231
-81.0287
-84.8081
663.218
-51.5767
-83.3365
729.29
-35.5523
-82.7384
796.238
-25.5644
-82.546
862.874
-18.1798
-81.431
922.761
-13.7759
-78.6509
972.652
-14.5424
-75.7612
1029.68
-13.9641
-74.7079
1091.02
-4.67661
-64.8433
0.655898
-50.3882
-353.531
-86.8428
-68.5816
-289.746
-104.921
-78.5151
-59.295
-128.749
-76.6571
-54.51
-60.0703
-55.8109
20.9454
-48.0762
-46.705
-19.8374
23.0509
-25.6899
-21.7043
40.4162
-16.8541
-16.6939
-16.629
-16.8762
24.0166
10.8624
4.21782
-23.0409
-17.6742
-17.7987
-17.4975
-17.9636
25.3223
-17.9786
30.396
-24.184
-18.3079
-17.7905
-18.1595
-17.9444
26.5219
-42.9421
53.4436
-25.3323
-17.6612
-17.4601
-17.5179
-17.6336
-75.4734
25.4975
99.2904
-57.7148
-24.4529
576.946
42.4097
-74.8783
-127.026
-135.114
-127.977
-136.172
627.846
75.4881
-79.92
685.524
87.4467
-84.9454
747.806
91.5949
-88.5976
812.748
94.6682
-91.2356
877.351
98.261
-92.4977
933.015
101.12
-91.0269
977.59
103.549
-89.8389
1031.71
106.086
-90.1067
1074.39
95.1433
-74.7221
86.4095
-62.6341
-375.298
-0.43323
-69.8533
-322.308
-13.9445
-79.9221
-68.1749
-32.2906
-81.4099
-71.6842
-69.4227
-72.8612
21.5248
-26.9823
-21.2007
38.289
-16.7827
-15.4701
-16.6575
-15.585
5.75808
-0.487867
34.0025
5.62942
-5.18275
601.364
181.905
-80.3235
-143.467
-154.178
-144.72
-155.735
620.36
186.113
-81.7763
658.451
189.48
-83.7812
714.385
192.079
-87.0718
781.772
194.215
-90.5751
852.19
195.799
-92.6067
912.334
198.1
-92.8788
964.167
202.907
-94.4427
1022.87
199.28
-92.0225
1045.41
172.069
-69.8128
160.632
-61.8145
-387.461
87.7012
-75.9362
-341.397
80.7384
-84.5023
-75.0773
73.0042
-85.6105
-76.7844
-76.4832
-78.1608
24.2148
11.8299
3.63823
-23.4738
-17.7063
-17.817
-17.5363
-17.9714
4.99905
-9.76948
40.8889
11.2384
-4.98004
688.489
281.188
-76.5305
-168.528
-175.237
-170.616
-178.322
690.462
283.048
-76.3845
704.915
285.206
-77.3415
736.961
287.496
-80.0835
785.423
289.784
-84.7633
842.807
289.309
-89.6004
895.882
287.796
-92.0973
949.987
286.922
-94.4719
1016.99
271.288
-91.24
1036.9
241.55
-65.8936
230.232
-57.8571
-395.041
172.354
-78.7427
-349.722
169.444
-88.7707
-77.306
170.271
-90.9298
-78.4175
-78.6849
-79.8087
25.6193
-17.7138
30.2588
-24.5289
-18.325
-17.8101
-18.1787
-17.9519
4.86091
-15.3696
45.0036
16.7781
-4.59401
744.524
384.057
-69.1449
-184.063
-189.012
-187.341
-192.353
740.725
384.352
-70.489
743.339
386.815
-73.2332
758.865
389.09
-76.5095
793.68
390.418
-82.7546
844.118
383.838
-89.7774
897.372
373.595
-93.0565
962.754
363.287
-95.8033
1027.84
339.792
-85.7643
1038.31
311.921
-59.7244
293.23
-53.099
-401.388
257.243
-82.6194
-358.483
262.915
-93.0454
-74.2101
274.205
-95.3152
-76.6998
-75.8279
-78.0078
26.7359
-42.8144
53.3169
-25.5083
-17.5887
-17.4521
-17.3888
-17.5736
4.44307
-21.2574
47.9975
22.9725
-4.15702
802.394
491.603
-72.4543
-193.891
-198.967
-197.324
-201.465
798.707
487.952
-72.2587
795.235
486.417
-76.1747
799.603
483.941
-81.6588
825.753
475.494
-87.8268
874.186
462.177
-92.4139
930.518
453.818
-92.8585
1003.24
446.557
-90.8027
1034.84
410.897
-70.707
1021.97
375.588
-51.9216
350.743
-50.0744
-399.097
351.631
-83.9631
-337.602
376.578
-94.6999
-66.3139
417.187
-94.4603
-59.8707
-67.7576
-61.0822
-74.0599
26.6338
-56.9947
99.4365
-26.0378
5.58326
2.64029
6.72011
35.7153
-8.65495
5.13516
-10.173
11.556
40.6148
-5.07164
4.38253
-15.5319
16.8885
44.8049
-4.33738
3.76826
-21.2512
22.7785
48.0165
-3.83989
-22.8936
-32.7393
17.9625
187.043
193.016
-18.8107
-29.3943
-23.0601
-29.1169
-36.3967
-32.238
-35.7975
822.197
640.216
-72.6554
-198.375
-189.307
-199.846
-190.155
836.511
607.699
-76.3211
847.964
593.8
-80.9788
865.054
580.733
-85.3129
896.442
567.128
-88.3897
938.5
559.405
-88.2815
988.667
556.491
-85.1529
1021.81
521.708
-73.3342
1015.06
469.956
-53.7513
969.958
438.623
-44.7312
422.054
-55.9547
-369.713
445.989
-83.2155
-278.728
475.823
-94.3614
-139.56
521.796
-91.9881
46.6301
576.833
-82.684
-126.862
-134.296
-127.654
-135.704
186.289
598.012
-85.6266
-143.326
-153.116
-143.542
-153.702
283.813
683.88
-75.6598
-167.4
-174.243
-168.661
-176.547
385.489
743.296
-68.1729
-183.452
-188.841
-186.181
-191.542
502.975
801.854
-70.4298
-196.266
-202.899
-198.548
-205.058
635.73
828.752
-71.5728
-202.862
-193.139
-204.259
-193.351
765.291
778.392
-74.5362
840.53
728.519
-90.6526
884.777
702.675
-87.5697
919.104
684.711
-81.92
946.378
671.178
-77.6069
969.157
653.131
-73.3174
988.54
611.835
-64.9354
985.113
563.462
-53.2458
947.651
525.178
-40.9831
898.031
518.057
-51.8292
493.728
-77.7568
-331.496
533.875
-81.5428
-218.899
560.359
-92.6241
-80.1863
596.554
-89.2826
77.6369
627.9
-85.3493
188.51
617.188
-84.3545
284.816
686.198
-75.0345
387.047
740.376
-69.2436
492.54
794.66
-70.1217
608.866
838.552
-72.2091
721.369
849.502
-86.3114
833.116
844.529
-90.4213
883.107
813.225
-78.8102
896.795
765.566
-64.9685
914.922
718.253
-61.6471
935.897
674.095
-58.1733
933.348
634.585
-51.0946
907.465
609.376
-44.3667
869.514
604.857
-50.9761
813.228
599.75
-84.5348
507.872
-106.072
-297.726
616.926
-80.1635
-179.908
635.996
-90.1137
-51.1246
663.403
-87.1238
88.1219
685.519
-89.2212
190.88
656.695
-85.4914
286.173
702.011
-75.9397
388.547
743.397
-71.5386
488.948
791.106
-73.5359
593.266
847.867
-76.3997
698.324
890.772
-81.718
803.719
891.653
-73.8051
831.816
841.482
-51.8885
834.422
767.1
-45.7998
850.075
694.998
-50.5441
850.386
670.612
-53.5111
843.089
675.204
-53.6073
809.505
682.717
-62.4536
763.713
673.301
-92.374
699.84
605.132
-119.454
347.943
-108.947
-274.37
697.308
-79.5943
-157.967
708.115
-88.2923
-35.2033
729.328
-85.8983
91.7138
747.727
-91.9588
192.691
713.913
-88.5175
287.897
735.575
-79.043
390.271
759.101
-74.8341
485.011
795.936
-77.3602
579.578
864.522
-79.0415
681.859
923.055
-75.4703
759.747
901.741
-63.1082
761.327
839.12
-44.7251
714.24
711.417
-42.615
712.819
639.554
-59.8789
725.151
660.756
-69.4535
706.388
697.465
-86.709
676.739
695.995
-110.537
623.482
648.008
-125.832
346.564
361.082
-115.203
33.8281
-50.6207
-258.813
776.516
-79.6059
-145.121
780.031
-87.4027
-25.221
796.138
-85.4326
94.7996
812.594
-94.1523
194.263
781.797
-92.189
289.799
784.904
-84.2492
391.236
793.707
-80.6043
475.875
823.814
-82.1518
566.425
896.267
-81.7213
670.18
948.062
-73.0849
715.898
916.44
-60.9582
692.864
848.63
-49.5727
639.85
706.937
-60.3606
624.96
622.982
-94.7662
608.458
610.982
-111.41
581.202
634.015
-127.496
494.285
570.356
-129.36
263.299
272.238
-108.299
19.27
20.4012
-41.4897
0.00675661
-0.586207
-247.449
851.964
-79.1642
-135.329
851.076
-86.1835
-17.8818
862.737
-84.2439
98.5574
877.248
-95.0148
195.636
852.176
-94.3197
289.138
842.494
-89.1461
384.16
843.767
-86.7091
462.183
873.605
-86.6164
559.618
938.676
-82.7731
652.66
968.671
-71.0707
672.215
934.995
-58.5421
669.037
846.52
-53.2253
659.328
718.261
-69.9272
609.358
603.648
-111.206
513.599
515.068
-133.02
358.217
378.21
-125.861
122.887
124.338
-84.6303
3.84295
4.15872
-19.7471
0.00127946
0.00109897
-0.19277
1.22246e-08
-1.61839e-05
-240.319
914.487
-76.8629
-127.649
913.82
-82.9975
-13.5874
922.814
-81.4142
101.434
933.174
-93.02
197.925
912.145
-94.6357
287.482
895.499
-91.7668
373.528
896.928
-90.4614
454.004
930.809
-88.7326
557.822
989.62
-81.7289
610.911
987.181
-65.0262
632.364
931.159
-51.8731
674.187
838.257
-53.557
694.667
699.797
-85.968
628.065
577.088
-123.654
370.444
353.522
-122.103
47.9239
47.7649
-60.4252
0.192437
0.209391
-4.04133
5.09188e-05
3.17829e-05
-0.0185615
5.58089e-10
1.67399e-09
-1.90544e-06
2.13163e-14
-1.33724e-11
-238.898
968.676
-74.2697
-126.042
965.935
-79.8617
-14.4248
972.988
-78.451
103.717
978.049
-91.6243
202.704
963.962
-96.3971
286.647
949.613
-94.4023
363.04
962.476
-94.2171
447.18
1004.34
-88.8643
522.099
1022.22
-71.8786
561.925
983.794
-54.0574
607.486
904.069
-45.1743
682.725
804.129
-62.5198
693.707
672.028
-107.693
559.047
485.895
-123.461
115.838
114.416
-78.3991
0.163951
0.151438
-3.31573
5.47975e-07
6.22166e-07
-0.000831706
1.00897e-11
5.7554e-11
-4.08841e-08
0
0
-1.51346e-12
0
0
-240.432
1036.44
-69.0453
-127.967
1029.3
-79.9682
-13.8606
1030.12
-77.4092
106.235
1032.34
-91.8712
199.231
1022.9
-93.7165
271.144
1017.28
-91.1733
339.615
1028.39
-85.1443
411.013
1035.94
-69.8891
469.152
1015.35
-54.1145
523.224
945.63
-41.9039
604.697
866.106
-51.3877
672.572
759.74
-91.3113
644.254
616.245
-120.755
259.977
251.746
-101.603
3.39756
3.10912
-16.3747
2.10796e-05
3.38993e-05
-0.0121467
4.1581e-11
7.38964e-12
-2.1971e-08
0
0
-6.39488e-14
0
0
0
0
0
-223.401
1076.06
-51.0339
-112.751
1101.77
-66.7922
-4.6565
1091.3
-66.811
95.2137
1075.31
-76.0517
172.092
1045.92
-70.4327
241.506
1037.66
-65.9877
311.944
1039.03
-59.8714
375.186
1023.24
-52.385
437.377
969.104
-45.3653
517.628
896.059
-52.2233
600.12
811.348
-84.1669
604.911
695.864
-116.04
349.979
335.978
-110.1
17.766
16.6649
-36.8543
0.000768006
0.000911489
-0.137253
1.15102e-09
3.75167e-10
-1.04018e-06
0
0
-8.17124e-13
0
0
0
0
0
0
0
0
-199.687
-40.4612
-94.1148
-47.5904
0.55049
-51.7245
86.3727
-63.5941
160.671
-62.1399
230.277
-58.1604
293.028
-53.6398
350.049
-50.7848
421.546
-56.5974
493.869
-77.8558
507.904
-104.441
341.945
-105.576
30.7556
-46.5772
0.00504862
-0.447279
8.89366e-09
-9.77652e-06
1.42109e-14
-7.89413e-12
0
0
0
0
0
0
0
-327.834
-327.666
-40.0646
-247.891
-338.116
-44.7955
-173.786
-354.484
-45.8191
-92.4999
-365.249
-51.0275
-4.64861
-390.103
-52.474
84.3606
-402.245
-56.5972
169.446
-408.82
-58.9341
256.188
-417.601
-62.3132
352.971
-412.279
-63.0724
447.359
-379.743
-62.5663
534.775
-338.566
-62.0828
617.27
-303.874
-62.1607
697.141
-280.816
-62.9722
775.793
-266.091
-63.9085
851.869
-255.752
-63.8078
917.452
-248.631
-60.9499
972.949
-245.96
-56.2313
1039.71
-247.933
-51.413
1088.67
-234.952
-40.3822
-206.719
-32.3397
-338.394
-247.586
-44.8564
-264.042
-263.342
-50.5142
-193.114
-282.325
-51.2859
-112.184
-302.395
-56.4013
-19.3884
-338.566
-57.7797
76.3376
-356.094
-61.2104
166.316
-363.326
-64.5161
262.249
-372.532
-67.984
380.064
-349.446
-68.2787
479.015
-286.2
-67.724
562.73
-223.419
-66.4208
637.911
-184.241
-66.1215
709.756
-164.124
-67.1025
781.449
-153.686
-68.4726
852.825
-144.951
-68.5163
917.825
-136.715
-65.1426
971.864
-134.232
-59.3996
1032.09
-136.389
-56.3408
1111.14
-124.745
-50.1563
-103.247
-36.5891
-354.598
-173.614
-46.0258
-283.025
-192.595
-51.4667
-217.601
-216.486
-51.8276
-137.71
-61.4463
-54.53
-57.8029
-61.8879
-58.515
-37.3031
-73.1289
-57.5632
-76.8761
-73.8158
-77.0942
68.7101
-78.3627
-61.384
-80.1493
-79.1653
-80.9533
166.729
-80.2382
-65.1162
-81.2887
-81.0093
-82.2089
273.019
-77.5398
-68.3387
-79.5905
-78.2297
-80.3023
421.246
-69.0025
-68.3543
-62.4867
-68.8688
-61.8338
525.831
-145.227
-65.7297
599.286
-82.8997
-62.7409
664.774
-54.5348
-62.1717
729.616
-41.4054
-63.9387
796.063
-34.4329
-67.0462
863.857
-28.9791
-69.7301
927.583
-25.1483
-69.4115
981.139
-26.4602
-65.554
1036.76
-27.9894
-62.8287
1103.04
-18.4199
-56.446
-10.4032
-41.5314
-364.648
-92.6649
-51.633
-301.522
-112.167
-57.3376
-61.8397
-136.737
-56.2121
-56.8869
-62.282
-57.8596
18.4075
-50.0342
-49.1611
-16.517
19.9139
-27.3926
-17.3786
42.2349
-17.9328
-17.8155
-17.7367
-17.9282
21.3322
12.1368
3.28327
-18.7229
-18.4759
-18.7271
-18.4061
-18.7823
22.4888
-17.0927
29.399
-19.6834
-19.0401
-18.619
-18.9858
-18.6752
23.7611
-41.9567
52.9212
-20.7765
-18.4359
-18.3052
-18.3954
-18.3681
-75.9143
22.5377
100.738
-59.8329
-17.9933
581.966
35.2447
-63.4812
-128.964
-137.466
-129.233
-138.865
628.037
71.0613
-64.7222
681.964
83.767
-66.2239
742.653
86.4918
-68.4497
808.303
86.4171
-71.8481
876.48
86.8365
-75.1621
939.246
87.5486
-75.2353
989.923
87.9742
-71.5725
1043.56
90.237
-69.9433
1098.3
85.8159
-61.902
79.2162
-48.052
-388.986
-5.0068
-53.1251
-336.64
-20.0667
-58.7842
-71.6133
-38.9953
-59.6812
-75.3569
-72.5598
-76.6986
20.2229
-28.6353
-18.5996
40.442
-17.679
-16.3741
-17.6043
-16.3926
5.71257
-0.491411
34.9027
5.11288
-4.62461
620.429
172.714
-61.9814
-147.324
-159.874
-149.944
-161.423
635.888
177.499
-61.237
667.609
180.421
-62.1853
717.611
181.877
-65.1079
781.674
182.708
-69.8652
853.022
183.993
-74.4559
919.134
186.487
-74.6491
974.733
191.341
-72.2418
1036.75
193.881
-70.9581
1069.16
171.765
-56.5958
160.133
-47.9865
-401.568
84.2856
-56.8162
-355.371
76.1401
-61.4995
-78.3309
68.145
-61.8769
-80.2404
-79.0568
-81.0088
21.8381
12.9976
2.7542
-19.1426
-18.4947
-18.7193
-18.4355
-18.7735
4.52081
-8.9872
42.361
10.5275
-4.2527
716.396
275.168
-54.68
-175.216
-182.969
-176.765
-184.493
715.902
274.346
-55.2147
725.965
275.422
-57.625
750.819
276.583
-61.3073
792.633
278.339
-66.597
847.12
279.527
-71.1154
902
279.774
-70.7203
954.889
282.062
-68.068
1026.26
276.346
-67.2396
1060.42
245.132
-54.0079
232.926
-46.1196
-409.581
169.491
-59.3075
-363.62
166.167
-64.8988
-80.2751
166.207
-65.4514
-81.3735
-81.0435
-82.298
22.7952
-16.8244
29.3013
-19.8281
-19.0476
-18.6261
-18.9968
-18.6694
4.14592
-14.8256
46.953
16.2772
-3.94465
770.881
378.13
-55.8894
-191.774
-195.935
-193.211
-197.205
764.595
376.226
-56.0944
764.848
378.144
-59.4934
774.992
380.223
-62.4457
802.315
382.756
-66.5684
847.282
379.985
-68.9696
899.15
372.387
-67.285
958.913
366.925
-65.654
1038.52
350.734
-64.9666
1061.46
316.442
-49.37
302.092
-43.415
-416.457
255.765
-62.3918
-371.8
261.417
-68.0736
-77.5051
272.366
-68.6771
-79.6276
-78.4236
-80.4322
23.9611
-42.0623
52.9915
-21.025
-18.5034
-18.2994
-18.3915
-18.3648
4.04262
-20.7048
49.4916
22.2725
-3.97999
816.676
485.558
-61.4123
-199.667
-203.175
-200.253
-203.413
814.269
480.711
-60.3933
808.909
478.891
-61.4343
810.002
478.521
-64.0056
827.195
473.184
-66.3943
869.099
460.928
-67.0233
923.327
451.965
-64.6017
996.04
449.058
-63.7732
1055.56
424.282
-58.0738
1060.94
387.006
-43.8168
364.355
-40.1534
-412.943
351.631
-62.9312
-351.051
378.075
-67.7033
-69.8592
418.98
-67.0521
-62.9951
-70.543
-63.544
-75.1207
24.1549
-60.0055
100.103
-19.7837
6.2794
-0.558384
5.63036
34.5594
-5.40033
4.46198
-9.13411
10.5397
41.7221
-4.23669
3.96933
-14.7088
16.1554
46.5303
-3.8345
4.0179
-20.5336
22.0949
49.1971
-3.9073
-29.5095
-24.707
18.405
191.293
191.382
-17.4193
-32.1321
-27.4108
-31.9102
-32.2663
-26.1814
-32.0216
834.464
633.431
-66.0813
-202.055
-192.376
-200.208
-190.938
847.073
599.609
-63.2997
854.268
587.43
-63.2339
864.832
575.914
-63.7504
891.103
562.095
-64.6031
931.719
551.019
-64.3159
983.379
550.85
-62.144
1037.04
535.911
-58.5924
1048.86
488.379
-45.6524
1024.77
456.614
-37.3279
436.545
-40.5537
-382.026
446.554
-62.7139
-289.403
478.221
-67.4605
-149.521
525.182
-64.7431
32.3386
582.58
-62.6483
-128.793
-136.879
-129.16
-137.858
166.317
610.714
-64.8931
-143.875
-156.367
-145.427
-158.979
269.556
711.635
-56.7786
-173.544
-181.659
-176.344
-184.432
374.492
767.771
-56.5061
-190.454
-194.98
-192.659
-197.174
489.104
817.865
-62.4625
-200.311
-206.09
-201.122
-206.126
634.563
837.045
-66.4974
-202.076
-191.498
-203.95
-192.68
771.324
774.674
-66.7432
842.575
717.909
-66.1891
885.814
693.922
-63.8513
923.223
680.778
-62.1786
954.681
669.692
-61.1242
983.288
660.963
-59.1959
1007.89
634.637
-54.5896
1019.4
588.638
-45.4818
998.829
548.795
-34.6687
956.866
533.513
-37.624
512.705
-50.5892
-341.306
534.528
-62.6063
-226.273
562.753
-67.0803
-85.3398
599.651
-63.1835
68.8499
630.03
-64.7224
172.11
628.543
-64.5079
269.74
710.18
-57.6755
373.098
762.006
-57.2588
480.72
812.558
-61.9944
600.992
849.446
-65.9575
716.769
847.889
-69.1931
829.367
836.798
-66.5725
901.082
817.429
-64.9019
920.072
784.276
-58.8874
934.285
741.815
-54.8814
956.972
704.218
-50.5706
967.878
666.262
-43.6483
954.378
634.705
-37.1866
924.873
623.233
-36.907
873.327
617.439
-52.9455
544.902
-70.4841
-306.101
617.343
-62.9522
-185.849
638.408
-67.4007
-55.0165
665.623
-63.5519
82.8607
684.481
-66.5106
176.22
661.961
-65.2067
270.938
719.847
-60.0446
375.216
762.161
-60.8839
477.317
806.605
-63.8952
586.18
857.581
-66.6601
692.815
893.6
-67.2129
809.18
911.327
-66.2053
851.895
864.183
-49.187
859.355
808.692
-43.3577
878.121
739.688
-45.5626
889.104
708.14
-45.7519
885.321
700.44
-43.4733
868.212
701.972
-44.2041
826.419
697.545
-56.9267
765.762
639.137
-79.0554
461.143
-79.5608
-282.228
697.326
-63.8449
-164.736
710.334
-68.4938
-40.7951
730.635
-65.6945
86.099
745.22
-69.3609
179.051
713.299
-68.2934
272.919
745.444
-63.8238
377.345
772.101
-64.2195
475.628
807.92
-66.8055
573.409
869.985
-66.9633
679.159
932.163
-64.5636
777.497
927.431
-59.3545
799.93
865.838
-42.693
765.346
764.605
-38.661
765.428
689.17
-50.0871
774.966
698.263
-54.0224
768.45
725.222
-59.9432
742.344
730.473
-71.2336
700.712
691.631
-85.2049
498.345
513.133
-84.5331
112.099
-53.4987
-266.951
775.983
-64.7838
-153.89
781.836
-69.6912
-33.3522
796.951
-68.8054
86.4061
810.611
-73.2642
181.152
778.404
-73.0188
275.807
788.126
-69.2204
379.728
799.559
-68.8183
469.095
828.401
-69.1996
560.093
898.274
-67.4281
668.616
961.54
-64.0595
735.713
938.216
-54.8912
732.745
877.081
-44.3009
684.267
754.08
-50.7431
668.46
669.555
-70.8013
665.536
655.397
-80.1737
643.052
678.522
-89.88
590.217
655.499
-92.255
407.585
433.615
-83.851
80.886
82.5696
-48.4274
0.284104
-3.13313
-256.28
852.094
-64.7401
-145.35
853.042
-69.5855
-27.9654
864.401
-71.3071
87.3275
878.404
-76.9769
183.393
850.47
-77.2458
277.703
843.206
-73.5899
376.242
845.738
-71.4761
456.781
873.884
-69.696
550.491
939.662
-67.1854
658.812
986.749
-61.8651
697.997
957.46
-49.8312
701.377
884.012
-44.2416
691.449
765.407
-54.5186
649.07
658.59
-81.5671
577.653
579.171
-100.95
460.481
490.207
-97.7476
248.928
252.456