/*--------------------------------*- C++ -*----------------------------------*\
  =========                 |
  \\      /  F ield         | OpenFOAM: The Open Source CFD Toolbox
   \\    /   O peration     | Website:  https://openfoam.org
    \\  /    A nd           | Version:  9
     \\/     M anipulation  |
\*---------------------------------------------------------------------------*/
FoamFile
{
    format      ascii;
    class       volScalarField;
    location    "0.0015";
    object      rho;
}
// * * * * * * * * * * * * * * * * * * * * * * * * * * * * * * * * * * * * * //

dimensions      [1 -3 0 0 0 0 0];

internalField   nonuniform List<scalar> 
9720
(
72.5337
82.7316
90.6875
96.2817
102.592
105.849
105.608
104.162
99.0283
87.1743
72.6571
59.183
47.3597
37.3052
28.769
21.1189
14.8855
12.2723
11.3775
10.2395
82.7077
95.5042
105.499
113.351
123.403
130.299
133.538
131.501
116.992
94.521
74.2499
58.4243
46.5386
37.1631
29.3451
22.4259
16.3104
12.7842
11.4477
9.65061
90.6339
105.466
116.531
124.541
136.418
147.184
153.869
150.427
121.834
85.7545
64.2774
51.5048
42.6248
35.4991
29.1744
23.0457
17.1535
13.6849
12.2921
10.1444
96.1619
113.268
124.735
123.843
137.088
155.659
167.735
174.57
134.657
53.4451
45.0511
39.1359
34.2026
29.6661
25.1251
20.0465
14.8139
12.2625
11.3112
9.67022
102.333
123.165
136.34
138.342
46.1175
30.711
31.2638
30.1755
27.5655
24.1423
20.4538
16.1652
12.0932
10.602
10.0403
8.98579
105.601
129.996
146.739
154.771
27.3425
26.1148
26.9133
26.4582
24.7473
21.8631
18.2892
13.9442
10.5583
9.51396
9.42106
8.76573
105.382
133.16
153.295
166.849
24.2888
23.3371
23.775
23.4842
22.2637
19.7542
16.0831
11.7852
9.68454
9.11719
9.44471
8.8478
104.064
131.087
149.495
173.898
21.6122
20.3342
20.7285
20.558
19.5747
17.2666
13.8387
10.5519
9.494
9.31017
10.281
9.16452
98.7471
116.012
120.262
129.135
44.2037
28.6026
25.2685
22.3575
12.0703
13.246
14.9147
15.8069
15.4368
14.4306
12.4854
10.632
10.2949
10.6501
11.7228
8.96431
86.7925
93.7916
84.7344
53.2695
31.6002
26.888
23.9565
20.8249
13.7782
9.32679
9.18925
10.2627
11.9822
12.7449
12.3317
12.1079
12.3085
12.7217
12.6196
7.88037
72.3708
73.8128
63.9069
45.2461
31.9239
27.5622
24.2504
21.1474
15.5707
9.37614
7.91704
8.33635
9.98932
11.8333
13.1534
13.8844
14.1621
13.7467
11.2942
5.83588
58.999
58.2354
51.4331
39.3634
30.7116
27.0285
23.9352
20.9103
16.2883
10.6296
8.4834
8.00495
9.35701
11.4417
12.8501
13.5231
13.4372
11.3327
7.18753
3.88551
47.2694
46.4785
42.6247
34.3445
27.9334
25.1992
22.6764
19.8289
15.8025
12.3567
10.2678
9.52739
9.28595
9.37167
10.0363
10.2683
9.19687
6.63893
4.19473
1.60114
37.2773
37.1638
35.5291
29.7405
24.3701
22.1823
20.0879
17.4455
14.6162
12.8405
12.0264
11.7693
9.62554
8.12942
8.08519
7.16432
5.57131
3.35212
1.49215
1.22707
28.7762
29.3688
29.2242
25.1572
20.5789
18.4801
16.3373
13.9714
12.4952
12.2939
13.255
13.2022
10.3042
8.12836
7.02554
4.69027
2.25834
1.31903
1.22571
1.225
21.1412
22.4503
23.1011
20.0572
16.2216
14.0525
11.9368
10.6031
10.5766
12.0276
13.9762
13.8267
10.47
7.20387
4.70761
1.72928
1.24084
1.22508
1.225
1.225
14.9051
16.3281
17.1981
14.821
12.1264
10.6095
9.73437
9.50753
10.2509
12.2533
14.2581
13.6219
9.28252
5.59929
2.27641
1.24148
1.225
1.225
1.225
1.225
12.2896
12.8042
13.7139
12.2723
10.6273
9.54648
9.14235
9.31014
10.6315
12.7368
13.8129
11.376
6.65164
3.3696
1.32145
1.22508
1.225
1.225
1.225
1.225
11.3922
11.4663
12.3187
11.3228
10.0591
9.43398
9.44151
10.2699
11.7389
12.6618
11.3157
7.18675
4.20482
1.49561
1.22574
1.225
1.225
1.225
1.225
1.225
10.2477
9.66287
10.1589
9.6819
8.99615
8.76692
8.845
9.17746
8.9952
7.90436
5.84327
3.89344
1.60451
1.22713
1.225
1.225
1.225
1.225
1.225
1.225
72.6712
82.4163
89.908
95.3823
102.013
105.115
105.119
103.78
97.7508
85.3122
70.988
57.7656
46.3963
36.8843
28.8554
21.5924
15.3637
12.5072
11.5449
10.3445
82.3765
94.5382
103.9
111.597
121.723
128.39
132.003
129.322
112.666
90.2424
70.391
55.5266
44.5974
36.0821
28.96
22.5273
16.6472
13.0301
11.6653
9.83432
89.8324
103.834
114.407
122.495
134.108
145.033
152.113
147.639
116.067
79.8773
59.5835
48.085
40.2254
33.9354
28.3215
22.7685
17.2172
13.7861
12.4363
10.3487
95.2448
111.42
122.515
123.793
134.093
153.966
167.035
173.917
128.469
49.3633
41.8042
36.5163
32.1133
28.1429
24.231
19.8071
14.9316
12.3004
11.3859
9.82414
101.755
121.331
133.623
135.106
41.7679
28.552
29.3584
28.571
26.4191
23.4185
20.1301
16.253
12.2539
10.7127
10.1588
9.13904
104.876
127.958
144.217
151.878
26.5785
24.5279
25.2092
25.0294
23.9066
21.5638
18.3234
14.2478
10.6857
9.59887
9.39094
8.82166
104.926
131.59
151.459
166.096
23.3725
22.0668
22.4156
22.2815
21.4941
19.5304
16.382
12.2907
9.73767
9.09624
9.27786
8.85946
103.689
129.146
147.31
173.223
20.5758
19.1849
19.5638
19.5014
18.8971
17.1501
14.1516
10.7597
9.35571
9.08612
9.83676
9.27964
97.8152
112.608
115.801
126.33
41.1063
26.2297
23.3152
21.0536
10.3198
11.8876
13.9455
15.1406
14.9643
14.0443
12.3305
10.2953
9.84287
10.077
11.2653
9.49068
85.4546
90.2853
79.6158
49.1701
28.5956
24.3807
22.1315
19.4122
12.379
8.30636
8.31284
9.4152
10.8727
11.9138
11.5518
11.2692
11.4853
12.1197
12.7921
8.87414
71.1735
70.3991
59.3404
41.3844
29.1286
25.1551
22.5115
19.7554
14.4528
8.53666
6.90227
7.28729
8.94303
10.7519
12.0937
13.048
13.6501
13.8689
12.6833
6.79888
57.9296
55.5047
47.873
36.1157
28.3063
24.9649
22.364
19.6368
15.4218
9.74755
7.39146
7.07399
8.46026
10.8554
12.768
13.6849
14.0021
12.7845
8.68519
4.53054
46.5267
44.5794
40.0696
31.8256
26.1443
23.8086
21.555
18.9426
15.1202
11.1898
9.18834
8.6368
9.40405
10.1419
10.884
11.2672
10.585
7.8289
5.05596
2.04266
36.9896
36.0996
33.8207
27.9508
23.195
21.4618
19.5664
17.115
14.0764
12.0221
11.006
11.1682
10.2438
8.52624
8.51312
7.78343
6.30933
4.25944
1.8829
1.23789
28.9416
29.0259
28.2604
24.1167
19.9813
18.2526
16.3852
14.1029
12.2906
11.596
12.304
13.0361
10.9203
8.48876
7.28513
5.60803
3.06905
1.50405
1.23019
1.225
21.6613
22.6185
22.7658
19.7548
16.1727
14.2266
12.3003
10.7571
10.2729
11.3027
13.2113
13.8488
11.199
7.72336
5.61053
2.32673
1.29211
1.22577
1.225
1.225
15.4011
16.7206
17.2562
14.9309
12.2327
10.697
9.75208
9.36189
9.84178
11.5281
13.7655
14.0225
10.3945
6.25493
2.99559
1.2857
1.22506
1.225
1.225
1.225
12.5261
13.0607
13.8381
12.3181
10.7079
9.60506
9.10136
9.08708
10.0965
12.1801
13.9052
12.6497
7.6647
4.17932
1.47589
1.22562
1.225
1.225
1.225
1.225
11.56
11.6898
12.4764
11.4064
10.1575
9.38824
9.26584
9.83044
11.2955
12.8234
12.6188
8.52719
4.99607
1.83278
1.22934
1.225
1.225
1.225
1.225
1.225
10.3524
9.85039
10.3682
9.84025
9.13928
8.81406
8.85064
9.2869
9.49971
8.85861
6.74584
4.50199
1.99843
1.23616
1.225
1.225
1.225
1.225
1.225
1.225
72.6305
82.6517
90.053
95.6583
102.337
105.466
105.815
104.396
97.826
85.1575
70.9184
57.9011
46.6784
37.1781
29.1727
22.1466
15.9327
12.7745
11.7735
10.5678
82.5957
95.0285
104.141
111.768
121.515
127.953
131.875
128.577
110.674
88.8736
69.9301
55.7624
45.2017
36.7847
29.6598
23.3181
17.4439
13.4272
11.9775
10.1289
89.9299
103.988
114.14
121.837
132.935
143.56
150.827
145.576
112.823
77.377
58.3682
47.8725
40.6178
34.71
29.4061
24.1104
18.5942
14.6378
13.0926
10.7988
95.4124
111.193
121.075
122.899
132.92
152.867
167.171
173.592
123.964
47.5012
41.2551
36.6787
32.6758
28.9745
25.3578
21.3165
16.5639
13.3599
12.2308
10.4106
102.081
120.833
131.661
132.579
38.2248
27.7711
29.5006
29.2496
27.7013
24.9044
21.6051
17.8846
13.7097
11.5997
10.913
9.65806
105.291
127.458
142.592
150.634
24.5773
24.0845
25.1789
25.6853
25.06
23.1464
20.0446
16.099
12.0723
10.474
10.0761
9.30506
105.733
131.601
150.311
166.129
22.0022
21.9109
22.5335
22.6807
22.267
20.7795
17.9858
14.1217
10.8705
9.93828
9.86639
9.31872
104.435
128.874
146.223
173.196
19.7963
19.0877
19.5542
19.6931
19.3747
18.0998
15.5636
12.2677
10.2681
9.80267
10.2597
9.76669
98.2611
111.77
114.388
126.064
38.8364
24.6711
22.2245
19.9869
9.48882
11.7716
14.0064
15.2724
15.2304
14.5478
13.2004
11.227
10.5102
10.5552
11.5458
10.1695
85.7049
89.5931
77.859
46.8397
26.7481
23.875
21.9472
19.2003
11.9253
8.19105
8.32965
9.40517
10.6156
11.8895
11.8303
11.5706
11.8122
12.4678
13.2841
9.78057
71.3486
70.192
58.0708
40.1615
28.3762
24.7931
22.4328
19.747
14.3488
8.53323
6.70277
6.94575
8.5903
10.5189
11.9915
13.1833
14.02
14.4242
13.6909
7.82226
58.1516
55.7224
47.3635
35.6808
28.2337
25.2257
22.547
19.8805
15.7285
9.81324
7.08343
6.76591
8.10704
10.7312
13.1632
14.4055
14.8034
13.9157
10.3444
5.07892
46.7735
45.0202
40.1172
31.9096
26.8734
24.6014
22.1294
19.5386
15.6487
11.1173
8.93513
8.32793
9.60401
11.0907
12.0147
12.2749
11.6717
9.18615
5.76321
2.81039
37.1858
36.5617
34.2601
28.4004
24.2396
22.7278
20.6657
18.1995
14.8498
12.3472
10.959
11.1416
11.1736
9.09441
8.69643
8.22872
6.96842
5.09729
2.66955
1.30049
29.1461
29.4598
29.0304
24.9352
21.0704
19.7072
17.8784
15.5915
13.3969
12.1423
12.4084
13.5133
11.9379
8.60882
7.28463
6.16804
4.0847
2.00417
1.26141
1.22505
22.1049
23.1714
23.8369
21.0322
17.4729
15.8447
14.0165
12.2705
11.3106
11.7992
13.4952
14.5712
12.0947
8.09746
6.18513
3.42361
1.49032
1.23268
1.22501
1.225
15.8978
17.3482
18.4125
16.386
13.4237
11.8976
10.7774
10.2276
10.5771
11.9654
14.2025
14.8126
11.4225
6.85785
3.99391
1.46357
1.22611
1.225
1.225
1.225
12.7494
13.3669
14.5137
13.2357
11.3997
10.3329
9.84775
9.75934
10.5902
12.5643
14.4839
13.7731
8.92644
5.00342
1.91432
1.23081
1.225
1.225
1.225
1.225
11.7549
11.9347
13.0026
12.1366
10.7553
9.9557
9.77015
10.2083
11.5605
13.3195
13.6381
10.1464
5.67404
2.55882
1.2542
1.22501
1.225
1.225
1.225
1.225
10.5601
10.1172
10.7715
10.3766
9.59219
9.24827
9.27166
9.7469
10.1657
9.75572
7.75894
5.03872
2.73074
1.28879
1.22504
1.225
1.225
1.225
1.225
1.225
72.3273
82.2092
89.3715
94.716
101.223
104.268
105
103.742
97.2084
84.7379
70.9684
58.3873
47.6176
38.5365
30.8645
24.0526
17.7109
13.9575
12.7086
11.1152
82.1595
94.3907
103.109
109.979
119.461
125.743
130.007
126.824
108.652
87.6063
69.1045
55.5082
45.5577
37.6888
31.0222
25.054
19.2999
14.7754
13.0322
10.7698
89.2728
103.066
112.508
118.755
129.561
140.166
147.781
142.796
109.872
74.6565
56.7992
47.2944
40.7028
35.2327
30.3006
25.4667
20.2469
15.8792
14.0945
11.4739
94.5035
109.716
118.433
118.737
128.8
146.993
162.194
168.692
117.452
44.3866
39.6723
36.1644
32.8376
29.5463
26.2522
22.6477
18.2342
14.6354
13.2559
11.1171
100.903
118.799
128.316
125.435
36.2239
26.8044
28.9054
29.2749
28.2979
25.9222
22.7778
19.2933
15.2667
12.7565
11.8999
10.3418
104.129
125.369
139.552
146.046
25.4461
24.8758
25.924
26.6571
26.1611
24.4317
21.485
17.7428
13.6893
11.667
11.0623
9.96578
104.9
129.766
147.408
161.722
23.4825
23.2703
23.8329
23.9835
23.6054
22.2477
19.6047
15.8909
12.359
11.0982
10.8071
9.95178
103.807
126.958
142.947
168.284
21.0618
20.6726
21.0908
21.3962
21.1238
19.9547
17.4745
14.1137
11.6257
10.907
11.1492
10.4098
97.5662
109.505
111.087
119.854
36.3158
25.0085
23.1264
20.9933
10.1585
12.8755
15.4726
17.1241
17.2089
16.5711
15.1424
12.885
11.7668
11.6431
12.4051
10.8214
85.2069
88.3646
75.6548
45.032
26.5384
24.3822
22.9144
20.5438
13.2544
9.45427
9.68096
11.0437
12.4044
13.716
13.5108
12.9931
13.0387
13.5284
14.0949
10.4176
71.3144
69.6248
57.2304
39.6963
28.4848
25.5128
23.4388
20.9492
15.7711
9.87674
8.02917
8.2593
10.0172
12.0326
13.4201
14.4871
15.1992
15.3694
14.467
8.5221
58.613
55.765
47.3913
35.9788
28.765
26.257
23.6449
21.1765
17.2758
11.3542
8.38216
7.96493
9.32011
11.9829
14.3983
15.5893
15.8114
14.8286
11.4109
5.60231
47.7623
45.6546
40.6622
32.6093
27.8009
25.7599
23.2913
20.8922
17.2477
12.6995
10.2701
9.5036
10.6907
12.1941
13.1119
13.249
12.5529
10.1486
6.43089
3.41187
38.6364
37.7032
35.1419
29.3246
25.4593
24.0335
21.9682
19.6823
16.4887
13.8404
12.2818
12.3201
12.2821
9.80229
9.11698
8.71608
7.56422
5.70468
3.37933
1.42778
30.9438
31.0098
30.1961
26.0415
22.3794
21.1214
19.3511
17.1929
15.0001
13.5281
13.6173
14.671
13.0929
9.04174
7.51645
6.63386
4.84051
2.5742
1.33767
1.22549
24.1203
25.0476
25.3897
22.4729
18.9787
17.446
15.6513
13.8789
12.7241
12.9595
14.5826
15.6939
13.1544
8.62668
6.6379
4.35827
1.82549
1.25555
1.22511
1.225
17.7722
19.3154
20.2121
18.1142
15.0407
13.4599
12.1483
11.4452
11.6359
12.9725
15.1955
15.7965
12.4071
7.46769
4.78377
1.78873
1.23208
1.22501
1.225
1.225
13.9891
14.7968
15.8587
14.5445
12.5822
11.478
10.9177
10.7465
11.5166
13.4317
15.3118
14.7474
9.99967
5.62063
2.48264
1.25044
1.22501
1.225
1.225
1.225
12.7304
13.0498
14.0846
13.1829
11.7564
10.8998
10.6532
11.0123
12.2898
14.011
14.4266
11.3304
6.3533
3.27387
1.32226
1.22508
1.225
1.225
1.225
1.225
11.1244
10.7836
11.4829
11.095
10.2783
9.88957
9.87876
10.3454
10.7785
10.4093
8.51972
5.57211
3.35066
1.40757
1.22538
1.225
1.225
1.225
1.225
1.225
71.3854
81.1678
88.4426
93.5448
100.018
103.267
104.292
103.231
96.7081
84.3211
70.9015
58.7602
48.539
39.978
32.6464
25.9715
19.4972
15.1872
13.6476
11.5821
81.1373
93.4217
102.178
108.684
118.236
124.702
129.174
126.108
107.581
86.6568
68.1722
55.1331
45.9575
38.8203
32.6798
26.9689
21.2378
16.3107
14.1996
11.4151
88.3684
102.073
111.326
117.057
127.959
139.087
146.729
141.699
108.404
72.7804
55.2853
46.5195
40.7483
36.0436
31.7556
27.3618
22.292
17.6134
15.4931
12.2538
93.3388
108.24
116.578
116.189
124.036
145.11
160.382
166.665
115.774
43.0745
38.401
35.3601
32.6866
30.121
27.4983
24.4196
20.2654
16.4093
14.7313
11.9802
99.7699
117.591
126.917
123.503
34.719
26.2596
28.1802
29.0844
28.4003
26.5687
23.9497
20.8489
16.9895
14.2658
13.1691
11.1186
103.139
124.308
138.217
143.629
25.3234
24.9333
26.0217
27.13
26.8339
25.4657
22.8826
19.3744
15.3067
13.0669
12.2266
10.6707
104.225
128.955
146.337
159.958
24.4676
24.106
24.6688
25.1639
24.9242
23.7837
21.2919
17.5626
13.8632
12.4227
11.9031
10.6081
103.2
126.106
141.727
166.513
22.8649
22.4258
22.7477
23.2368
23.064
21.9803
19.4276
15.8394
13.0732
12.1787
12.1856
11.0157
96.977
108.214
109.242
116.749
34.8729
24.9199
23.8256
22.4241
11.8372
15.0068
17.7491
19.4063
19.4582
18.7464
17.1363
14.5631
13.23
12.916
13.381
11.3209
84.8261
87.4389
73.8555
43.928
26.5886
24.7397
23.6663
22.0391
15.2491
11.3548
11.6323
13.1093
14.4825
15.7416
15.3957
14.6818
14.5205
14.6935
14.8643
10.7747
71.4303
68.9771
56.1212
39.0074
28.3852
25.8202
24.23
22.4079
17.8069
11.7472
9.66591
9.88685
11.7342
13.7915
15.1216
16.0153
16.4469
16.2462
14.9895
8.86268
59.2413
55.7741
47.077
35.6941
28.9906
26.878
24.8122
22.8873
19.3106
13.238
9.95202
9.37326
10.7047
13.3898
15.7059
16.6764
16.6381
15.413
11.9106
5.93398
48.9418
46.419
41.1148
32.8589
28.2484
26.5657
24.6093
22.7038
19.2935
14.5994
11.87
10.8208
11.7956
13.0637
13.8309
13.8743
13.0827
10.6308
6.83674
3.74023
40.3008
39.1479
36.3035
30.2251
26.3861
25.1994
23.5237
21.5979
18.5006
15.7074
13.9234
13.6312
13.1402
10.1926
9.40668
9.05488
7.94188
6.0789
3.77677
1.5239
32.9032
32.918
31.951
27.578
23.7983
22.6578
21.0859
19.0823
16.8894
15.2975
15.2214
15.9137
13.8452
9.35311
7.76037
6.96207
5.26398
2.91192
1.40181
1.22617
26.181
27.1543
27.521
24.4966
20.7685
19.2258
17.4155
15.6212
14.3814
14.576
16.0497
16.7638
13.8166
8.98336
6.96188
4.86729
2.06604
1.27843
1.22529
1.225
19.6612
21.3918
22.4346
20.3521
16.9789
15.2242
13.7557
12.9543
13.0981
14.4244
16.4299
16.6321
12.9838
7.86815
5.221
2.03129
1.24029
1.22502
1.225
1.225
15.2708
16.4088
17.7044
16.4583
14.2431
12.9819
12.3197
12.0738
12.8112
14.6112
16.197
15.3729
10.5454
6.01401
2.83088
1.2722
1.22502
1.225
1.225
1.225
13.704
14.2578
15.5499
14.7637
13.1374
12.1445
11.8161
12.0984
13.2976
14.8028
14.9816
11.8951
6.78435
3.6865
1.38483
1.22524
1.225
1.225
1.225
1.225
11.6014
11.4464
12.287
11.9946
11.0961
10.6313
10.5742
10.9881
11.3163
10.8107
8.90301
5.92222
3.69195
1.50414
1.226
1.225
1.225
1.225
1.225
1.225
71.3832
81.1616
88.442
93.5442
100.037
103.319
104.354
103.235
96.6746
84.305
70.9005
58.7673
48.5478
39.9867
32.6569
25.9882
19.5166
15.2011
13.6581
11.5882
81.1517
93.4382
102.17
108.588
118.22
124.792
129.303
126.08
107.514
86.6603
68.2562
55.2205
46.0244
38.8673
32.713
26.9965
21.2642
16.3322
14.2153
11.4233
88.3885
102.116
111.335
116.788
127.968
139.289
146.927
141.62
108.372
72.9473
55.5036
46.6734
40.84
36.1084
31.8072
27.4041
22.3288
17.64
15.5119
12.2624
93.3561
108.341
116.813
116.252
123.193
145.73
160.472
166.916
115.457
43.3711
38.7877
35.6226
32.8147
30.1838
27.5355
24.4501
20.2988
16.4326
14.7473
11.9851
99.7678
117.62
126.849
123.635
34.4756
26.2428
28.2605
29.1352
28.4408
26.6016
23.9726
20.871
17.0182
14.2807
13.1776
11.1179
103.113
124.243
138.02
142.724
24.3846
24.5027
25.6977
26.9631
26.72
25.4193
22.8769
19.3914
15.3285
13.0691
12.2232
10.6617
104.192
128.874
146.206
159.557
23.7793
23.7381
24.3717
24.9701
24.7704
23.6894
21.2475
17.5533
13.8558
12.4076
11.8881
10.5946
103.162
126.065
141.708
166.676
23.4472
22.2013
22.5489
23.0757
22.9102
21.837
19.3086
15.7635
13.0377
12.1496
12.1627
11.0002
96.9356
108.243
109.389
117.957
34.6278
24.8358
23.7941
23.0437
12.5006
15.0638
17.731
19.3502
19.3768
18.6382
17.0192
14.4713
13.1691
12.8709
13.3518
11.3025
84.7784
87.39
73.8634
43.6894
26.3188
24.691
23.6962
22.0384
15.1245
11.3101
11.6342
13.1327
14.4765
15.6633
15.2959
14.5899
14.4478
14.6439
14.8303
10.7543
71.3816
68.9037
56.0671
38.9843
28.3811
25.8477
24.2644
22.3925
17.6935
11.6687
9.62996
9.8553
11.7131
13.7536
15.0714
15.9599
16.3985
16.2035
14.9545
8.83784
59.2036
55.7202
47.0419
35.762
29.1359
26.9595
24.835
22.882
19.2375
13.1332
9.88955
9.32455
10.6847
13.4074
15.7259
16.6784
16.6237
15.381
11.8689
5.90728
48.9176
46.3919
41.1062
32.9405
28.4043
26.6621
24.6355
22.7024
19.2257
14.4806
11.7763
10.7632
11.8094
13.1261
13.8729
13.8929
13.0736
10.5996
6.8041
3.70964
40.2867
39.1409
36.3153
30.3005
26.5273
25.3122
23.5673
21.6139
18.449
15.6353
13.8484
13.5888
13.1906
10.2506
9.42281
9.05755
7.9304
6.05941
3.74249
1.51481
32.8927
32.9199
31.9745
27.6438
23.9
22.7693
21.1525
19.1243
16.8771
15.2744
15.1965
15.9035
13.8748
9.36228
7.75883
6.95972
5.25486
2.88998
1.39639
1.2261
26.1715
27.1552
27.5424
24.5504
20.8297
19.3228
17.5033
15.6881
14.4281
14.6137
16.0655
16.7666
13.8214
8.97724
6.95651
4.86264
2.05778
1.27696
1.22527
1.225
19.6508
21.3865
22.4446
20.3925
17.0119
15.2995
13.8401
13.0324
13.1773
14.4838
16.4581
16.6298
12.9667
7.85643
5.2206
2.03201
1.24016
1.22502
1.225
1.225
15.2645
16.4011
17.7061
16.4813
14.2647
13.038
12.3916
12.1484
12.884
14.6705
16.2139
15.3494
10.5166
6.01089
2.83462
1.27246
1.22502
1.225
1.225
1.225
13.6997
14.252
15.5499
14.7808
13.1578
12.1923
11.8715
12.1579
13.3533
14.8342
14.9687
11.8587
6.77117
3.68884
1.38546
1.22524
1.225
1.225
1.225
1.225
11.6009
11.4442
12.2861
12.0036
11.1126
10.655
10.5961
11.0098
11.3262
10.7991
8.87845
5.90875
3.68913
1.50409
1.226
1.225
1.225
1.225
1.225
1.225
72.3199
82.1984
89.3835
94.7597
101.252
104.358
105.075
103.778
97.087
84.5786
70.86
58.3324
47.6005
38.5384
30.8746
24.0651
17.7256
13.9748
12.7239
11.1265
82.1709
94.4177
103.171
110.054
119.525
125.918
130.18
126.779
108.247
87.3274
68.9919
55.5046
45.5934
37.723
31.045
25.0716
19.3182
14.7979
13.0535
10.7848
89.2854
103.091
112.55
118.63
129.638
140.625
148.086
142.625
109.272
74.254
56.7043
47.3254
40.7528
35.2664
30.3095
25.4648
20.2474
15.8876
14.1049
11.4851
94.4906
109.691
118.502
117.209
124.99
146.911
161.447
167.47
115.804
44.148
39.6564
36.2129
32.8636
29.534
26.2033
22.5877
18.187
14.6058
13.2326
11.1085
100.902
118.758
128.129
124.391
33.9625
26.6522
28.8022
29.2219
28.2562
25.8726
22.689
19.1871
15.1763
12.6904
11.8475
10.3138
104.074
125.234
139.128
143.27
25.0142
24.5594
25.6885
26.5386
26.0729
24.3608
21.4067
17.6586
13.6029
11.5852
10.9942
9.92662
104.836
129.613
147.131
160.193
23.9665
23.0182
23.5763
23.8326
23.4909
22.1779
19.554
15.823
12.2599
11.0025
10.7268
9.90294
103.748
126.68
142.379
166.665
22.1618
20.4583
20.9341
21.2454
20.9812
19.8218
17.3523
13.9946
11.5119
10.8056
11.0671
10.3546
97.3191
108.769
109.982
117.084
33.9616
25.04
24.0695
22.4092
10.7045
12.9568
15.5391
17.1297
17.1504
16.4809
15.0406
12.7682
11.6582
11.5432
12.3222
10.7564
84.9061
87.8368
74.9231
44.6448
26.6808
24.6311
23.1327
20.6506
13.1116
9.45698
9.73375
11.124
12.4604
13.6961
13.446
12.9022
12.9384
13.424
14.0053
10.3414
71.1168
69.338
56.9991
39.7572
28.7419
25.7018
23.619
21.0108
15.6757
9.81643
8.00577
8.25923
10.0547
12.0583
13.4192
14.4426
15.119
15.2723
14.3599
8.43598
58.5145
55.682
47.4065
36.1762
29.0983
26.482
23.8123
21.2607
17.2177
11.2416
8.32085
7.93325
9.35541
12.0884
14.4781
15.5959
15.7555
14.7126
11.2659
5.54531
47.7337
45.6803
40.7628
32.803
28.1199
25.9977
23.4635
20.9965
17.2184
12.5862
10.1703
9.4433
10.7515
12.3359
13.178
13.2381
12.474
10.0248
6.35928
3.35948
38.6475
37.7757
35.2597
29.4798
25.7335
24.2673
22.1359
19.8156
16.5155
13.7883
12.1943
12.2496
12.3811
9.92719
9.13085
8.69157
7.51584
5.66312
3.31759
1.41241
30.973
31.0943
30.3117
26.1663
22.5835
21.322
19.505
17.3314
15.0648
13.5232
13.5594
14.6242
13.1672
9.08171
7.51432
6.63233
4.82279
2.53267
1.32845
1.22541
24.1541
25.125
25.4897
22.5758
19.1277
17.6054
15.7865
13.9918
12.8008
12.9788
14.5623
15.6802
13.186
8.63773
6.63264
4.35993
1.81221
1.2531
1.22509
1.225
17.7941
19.3682
20.2866
18.1962
15.1511
13.5781
12.2497
11.5288
11.7013
13.012
15.2058
15.7866
12.407
7.47206
4.79945
1.79855
1.23201
1.22501
1.225
1.225
14.0041
14.8231
15.9081
14.6087
12.6683
11.5662
10.999
10.8213
11.5844
13.4855
15.3262
14.7251
9.98797
5.63562
2.50434
1.25163
1.22501
1.225
1.225
1.225
12.7429
13.07
14.1217
13.2368
11.8299
10.9781
10.726
11.0856
12.3591
14.0532
14.4155
11.3013
6.35545
3.29581
1.32543
1.22509
1.225
1.225
1.225
1.225
11.1322
10.7954
11.501
11.1222
10.3181
9.93344
9.92158
10.3887
10.8078
10.4073
8.49823
5.5663
3.35981
1.41108
1.2254
1.225
1.225
1.225
1.225
1.225
72.6342
82.6543
90.0696
95.7151
102.422
105.544
105.879
104.433
97.7324
84.9862
70.7603
57.7497
46.5423
37.0724
29.0972
22.09
15.9019
12.7653
11.767
10.5659
82.6062
95.05
104.166
111.758
121.597
128.082
132.006
128.622
110.319
88.5215
69.5967
55.5011
44.9946
36.6246
29.5497
23.2518
17.4127
13.4204
11.9737
10.1282
89.9333
104.033
114.189
121.633
133.032
143.854
151.062
145.616
112.23
76.5858
57.8019
47.4819
40.3327
34.4794
29.2351
24.0053
18.5422
14.6203
13.08
10.7919
95.3722
111.236
121.271
121.487
130.514
151.23
165.373
171.72
120.07
46.6529
40.5538
36.1592
32.317
28.7029
25.1492
21.1719
16.4771
13.3163
12.1996
10.3955
102.019
120.746
131.458
129.679
35.7196
27.3236
28.9532
28.8005
27.3845
24.6794
21.4423
17.7688
13.6292
11.5533
10.8723
9.6305
105.259
127.382
142.335
147.345
24.7153
23.8191
24.9602
25.5339
24.9302
23.0538
19.983
16.0352
12.0023
10.4193
10.0259
9.27066
105.707
131.518
150.146
163.95
22.7843
21.9186
22.5027
22.6855
22.2816
20.809
17.9991
14.0922
10.8126
9.88032
9.80502
9.27536
104.408
128.625
145.678
171.034
20.6987
19.2204
19.6502
19.8163
19.4938
18.201
15.616
12.2478
10.2022
9.73563
10.1993
9.72035
98.0335
111.077
113.33
123.065
36.3549
24.9593
22.8376
20.5736
9.65547
11.7708
14.0973
15.4259
15.3751
14.648
13.2354
11.184
10.45
10.4941
11.4988
10.1079
85.3964
89.1354
77.3633
46.9381
27.2726
23.9201
21.9107
19.1411
11.8451
8.15993
8.34074
9.48857
10.7229
11.9805
11.8486
11.5413
11.7582
12.4172
13.2289
9.68482
71.0959
69.9611
58.0473
40.4918
28.8159
25.0431
22.5191
19.7211
14.2684
8.48133
6.70838
6.96992
8.64753
10.5842
12.025
13.1782
13.9859
14.3622
13.5643
7.70139
57.9816
55.6547
47.5068
36.0194
28.6374
25.5094
22.7192
19.9028
15.6691
9.75764
7.07622
6.77022
8.1582
10.8266
13.225
14.4007
14.7328
13.7582
10.1328
5.02072
46.6854
45.0478
40.2922
32.1949
27.228
24.8832
22.3088
19.5675
15.5911
11.0564
8.89064
8.30141
9.65682
11.1901
12.0252
12.1979
11.5218
8.99918
5.68722
2.74227
37.1535
36.6337
34.43
28.6273
24.5583
22.996
20.8352
18.2384
14.798
12.2606
10.8743
11.0884
11.2753
9.1996
8.69005
8.17529
6.90736
5.05007
2.59731
1.29132
29.1447
29.5412
29.1852
25.1192
21.3486
19.94
18.0173
15.623
13.3483
12.0546
12.3052
13.4755
12.0739
8.67996
7.28962
6.18276
4.05391
1.95735
1.25669
1.22504
22.1204
23.2423
23.9629
21.181
17.6998
16.0215
14.1034
12.2733
11.2697
11.7187
13.4101
14.5708
12.2103
8.15757
6.19193
3.44265
1.48066
1.23167
1.22501
1.225
15.9147
17.4001
18.503
16.4978
13.5879
12.0089
10.8305
10.2431
10.5477
11.9067
14.1556
14.8275
11.5084
6.89827
4.04555
1.47735
1.22612
1.225
1.225
1.225
12.7646
13.4019
14.5796
13.3211
11.5333
10.4307
9.90228
9.78195
10.5837
12.5406
14.4671
13.7958
8.9891
5.04611
1.95048
1.23154
1.225
1.225
1.225
1.225
11.7657
11.9603
13.052
12.2046
10.8642
10.0399
9.83041
10.247
11.5777
13.3169
13.63
10.1701
5.69876
2.59861
1.2567
1.22501
1.225
1.225
1.225
1.225
10.5626
10.1248
10.7874
10.4036
9.64283
9.2928
9.30776
9.76915
10.17
9.74582
7.75369
5.04592
2.75527
1.29242
1.22504
1.225
1.225
1.225
1.225
1.225
72.6846
82.4407
89.9492
95.4902
102.074
105.12
105.097
103.731
97.6561
85.1813
70.8611
57.6434
46.2889
36.8001
28.7925
21.5453
15.3366
12.4962
11.5371
10.3409
82.3853
94.5627
103.952
111.79
121.89
128.446
131.988
129.203
112.42
89.9996
70.1714
55.3583
44.4764
36.0011
28.9061
22.488
16.6207
13.0193
11.6577
9.8296
89.8221
103.834
114.443
122.771
134.491
145.2
152.15
147.462
115.76
79.5608
59.3235
47.8916
40.0992
33.8529
28.2692
22.7362
17.1992
13.7795
12.431
10.3424
95.1714
111.284
122.327
124.395
134.675
154.7
168.217
174.738
126.641
49.2602
41.7052
36.4274
32.0505
28.104
24.2122
19.7995
14.9335
12.3086
11.3907
9.8215
101.736
121.206
133.265
134.031
38.836
28.4368
29.2807
28.5255
26.4387
23.4836
20.1941
16.2922
12.2838
10.7349
10.1731
9.13762
104.921
127.974
144.13
151.34
24.809
24.3541
25.1364
25.001
23.9286
21.6168
18.3797
14.2925
10.7327
9.63751
9.41766
8.82181
104.987
131.668
151.509
167.03
22.3055
22.056
22.3613
22.2408
21.4805
19.5438
16.4084
12.336
9.78413
9.13462
9.29816
8.8551
103.788
129.211
147.322
174.392
20.0746
19.2217
19.4633
19.3908
18.7925
17.0722
14.1227
10.7684
9.38318
9.11264
9.8569
9.27017
97.8018
112.581
115.845
125.106
39.119
24.993
22.2812
20.1608
9.85148
11.9952
13.9366
15.0445
14.8478
13.9377
12.2625
10.2857
9.8489
10.0942
11.2812
9.45446
85.3382
90.1563
79.592
49.305
28.5631
24.5194
22.302
19.5669
12.4024
8.32517
8.3346
9.41583
10.8521
11.8416
11.4946
11.2368
11.4787
12.1261
12.7699
8.79828
70.9961
70.2035
59.2444
41.5229
29.2319
25.2032
22.5995
19.8489
14.4901
8.53843
6.89885
7.27928
8.92221
10.7234
12.0727
13.0362
13.6394
13.8311
12.566
6.7056
57.744
55.3085
47.7615
36.1988
28.4269
25.0316
22.4424
19.7524
15.4958
9.73962
7.37305
7.05337
8.45506
10.8787
12.7775
13.668
13.9371
12.6409
8.52643
4.48228
46.3674
44.4139
39.9517
31.851
26.287
23.9104
21.6297
19.0722
15.2085
11.1672
9.14978
8.58553
9.40404
10.154
10.8529
11.1883
10.446
7.70603
4.99896
1.99724
36.8679
35.9683
33.7357
27.9696
23.3396
21.5852
19.6537
17.241
14.1522
12.0267
10.9464
11.0967
10.2593
8.5372
8.49809
7.75001
6.28212
4.20931
1.84345
1.23625
28.8506
28.9203
28.2061
24.1436
20.1095
18.3718
16.4838
14.1967
12.3425
11.6033
12.2537
12.9905
10.962
8.51357
7.29195
5.63188
3.04181
1.48695
1.22952
1.225
21.5875
22.5294
22.7241
19.7817
16.2711
14.3196
12.3867
10.8116
10.3207
11.3185
13.1882
13.8367
11.26
7.76204
5.64691
2.35146
1.28992
1.22568
1.225
1.225
15.354
16.6538
17.2102
14.9412
12.2964
10.764
9.81755
9.41809
9.89252
11.5581
13.7643
14.034
10.4696
6.30461
3.05874
1.29113
1.22506
1.225
1.225
1.225
12.5022
13.0293
13.7982
12.322
10.7496
9.65802
9.15815
9.14535
10.1523
12.2116
13.9072
12.6749
7.72313
4.23867
1.49332
1.22571
1.225
1.225
1.225
1.225
11.5404
11.6651
12.4467
11.4051
10.1865
9.43269
9.31585
9.88993
11.3401
12.832
12.6093
8.55613
5.03375
1.85923
1.22979
1.225
1.225
1.225
1.225
1.225
10.3364
9.82965
10.3457
9.82975
9.14771
8.83184
8.87131
9.30046
9.49321
8.8396
6.74429
4.5176
2.01852
1.23698
1.225
1.225
1.225
1.225
1.225
1.225
72.5526
82.7615
90.7183
96.3483
102.624
105.817
105.531
104.077
98.8508
86.9802
72.5154
59.0833
47.2911
37.2554
28.7294
21.0876
14.8647
12.2607
11.3698
10.2364
82.73
95.5422
105.555
113.543
123.615
130.347
133.468
131.293
116.585
94.2117
74.0808
58.3525
46.5127
37.1511
29.3331
22.4102
16.2943
12.7738
11.4395
9.64538
90.6518
105.495
116.597
124.947
136.947
147.363
153.847
150.042
121.292
85.4925
64.257
51.587
42.7005
35.5498
29.1982
23.0455
17.1419
13.6776
12.2857
10.1388
96.1339
113.158
124.483
124.643
137.131
155.622
167.815
174.068
130.908
53.7204
45.3936
39.4269
34.4147
29.8147
25.2157
20.086
14.825
12.2652
11.3111
9.66652
102.349
123.023
135.863
136.398
41.8477
31.0107
31.6137
30.5132
27.8686
24.3785
20.6071
16.2462
12.1366
10.6323
10.0616
8.99089
105.684
130.039
146.66
153.2
26.5338
26.1825
27.0402
26.6192
24.9513
22.0636
18.4425
14.053
10.6233
9.56217
9.45036
8.77068
105.503
133.328
153.466
167.034
23.2911
23.2029
23.7289
23.4796
22.3363
19.8779
16.2175
11.8821
9.73379
9.15357
9.46589
8.85166
104.246
131.324
149.74
174.133
20.7217
20.1068
20.5983
20.4449
19.52
17.2614
13.8328
10.554
9.51046
9.32696
10.3
9.16356
98.8096
115.864
119.808
128.032
42.0654
26.6704
23.6701
21.2864
11.0358
13.027
14.7568
15.6731
15.3113
14.3107
12.3958
10.5852
10.266
10.6482
11.7331
8.94779
86.7021
93.5381
84.162
52.696
31.5935
26.7905
23.8133
20.7226
13.624
9.20442
9.05464
10.1362
11.8426
12.5934
12.2019
12.0128
12.2636
12.7143
12.6054
7.84368
72.2271
73.462
63.4186
44.8182
31.873
27.5387
24.2262
21.1023
15.4626
9.28804
7.82404
8.2379
9.87625
11.7
13.0481
13.8279
14.141
13.7263
11.2334
5.80088
58.8192
57.9101
51.016
38.997
30.655
27.0034
23.9162
20.8892
16.2761
10.5846
8.44349
7.95983
9.31249
11.4104
12.8381
13.5234
13.4199
11.275
7.13841
3.85555
47.0967
46.2221
42.3046
34.0611
27.8726
25.1615
22.6745
19.8691
15.8258
12.3587
10.2709
9.52512
9.28778
9.37788
10.0365
10.2582
9.16766
6.61476
4.16662
1.58914
37.136
36.9808
35.2916
29.5362
24.3138
22.1452
20.1076
17.5289
14.6787
12.9184
12.0722
11.7604
9.57704
8.10089
8.07854
7.17262
5.58043
3.33999
1.48507
1.22694
28.6617
29.2451
29.0556
25.0234
20.5333
18.464
16.3706
14.0636
12.5916
12.3899
13.3089
13.1722
10.2519
8.11493
7.03538
4.72488
2.26367
1.31765
1.22567
1.225
21.0413
22.3609
22.9863
19.98
16.1953
14.0667
11.9816
10.6795
10.6709
12.1159
14.0113
13.7845
10.4307
7.21141
4.75325
1.74646
1.24113