/*--------------------------------*- C++ -*----------------------------------*\
  =========                 |
  \\      /  F ield         | OpenFOAM: The Open Source CFD Toolbox
   \\    /   O peration     | Website:  https://openfoam.org
    \\  /    A nd           | Version:  9
     \\/     M anipulation  |
\*---------------------------------------------------------------------------*/
FoamFile
{
    format      ascii;
    class       volScalarField;
    location    "0.0015";
    object      rho.C4;
}
// * * * * * * * * * * * * * * * * * * * * * * * * * * * * * * * * * * * * * //

dimensions      [1 -3 0 0 0 0 0];

internalField   nonuniform List<scalar> 
9720
(
78.3786
86.4191
94.2696
99.7373
106.054
109.332
109.065
107.645
102.517
90.6333
76.1752
62.9425
51.5228
42.0104
34.1071
26.9604
20.98
19.6313
21.2462
29.2403
86.3905
96.9222
106.709
114.377
124.348
131.18
134.346
132.234
117.649
95.1192
74.8841
59.2156
47.6436
38.7728
31.6637
25.5855
20.242
17.8297
18.3981
23.2992
94.211
106.68
117.525
125.339
137.1
147.813
154.413
150.872
122.18
86.0431
64.5839
51.9148
43.2626
36.5484
30.8702
25.5925
20.5769
18.382
19.0828
23.9437
99.611
114.303
125.548
125.008
138.057
156.633
168.58
175.263
135.073
53.5697
45.2022
39.3544
34.5687
30.3208
26.2732
21.8794
17.3732
16.0481
17.1745
22.6891
105.784
124.109
137.024
139.353
46.3167
30.83
31.4278
30.4162
27.9494
24.7817
21.5092
17.764
14.2838
13.9682
15.4225
21.5621
109.073
130.862
147.343
155.685
27.5951
26.4415
27.303
26.9379
25.3768
22.7439
19.5516
15.6289
12.7349
12.7804
14.7918
21.6844
108.829
133.954
153.819
167.647
24.8886
24.2702
24.7864
24.5914
23.5071
21.1997
17.7874
13.6916
12.0873
12.6313
15.3599
23.1185
107.541
131.811
149.929
174.567
23.0353
22.4422
22.9256
22.8347
21.9267
19.669
16.2454
12.9776
12.4928
13.6171
18.0446
27.5775
102.225
116.661
120.602
129.53
44.4053
28.9211
26.0382
24.0912
14.8145
16.6506
18.6305
19.6433
19.2443
18.2012
16.1336
14.3148
14.8405
17.371
24.314
35.9887
90.2391
94.3859
85.021
53.3966
31.7339
27.2775
25.0487
23.2404
17.5033
13.1666
13.485
15.0676
17.6366
18.9255
18.6904
19.1129
21.0586
25.7135
36.0057
50.8741
75.8819
74.4469
64.2157
45.4025
32.1039
28.0103
25.4075
23.6227
19.6845
13.9449
13.3452
15.0564
18.8098
22.9917
26.4073
29.3082
33.2079
41.2318
56.293
74.1782
62.7564
59.0301
51.8487
39.5897
30.9719
27.5627
25.1751
23.4289
20.4777
15.825
15.4782
18.0128
25.7097
35.7356
42.5414
47.502
54.6695
66.9295
85.2989
103.359
51.4346
47.5897
43.2706
34.7206
28.3391
25.883
24.0398
22.3751
19.9092
18.4192
19.5135
26.1392
42.612
60.5615
69.9239
76.8399
86.0341
101.124
120.071
79.5619
41.9882
38.7827
36.5898
30.4078
25.0321
23.1158
21.6389
19.9984
18.6042
19.2654
23.4615
36.3145
61.0785
89.3009
106.415
113.745
125.617
137.196
36.4367
1.99421e-05
34.1244
31.7005
30.9362
26.3207
21.657
19.7898
18.1319
16.4968
16.2806
18.7829
26.6146
43.0639
70.5613
106.613
143.287
152.215
149.978
3.07355
5.59432e-07
2.22045e-16
26.9986
25.6271
25.6702
21.9075
17.8415
15.7776
13.9148
13.1141
14.3489
19.105
29.4616
47.9893
77.4274
114.068
152.27
6.01318
0.0133907
1.82402e-10
2.22045e-16
2.22045e-16
21.0184
20.2796
20.6483
17.3982
14.3374
12.8201
12.1919
12.5795
14.8777
21.0682
33.4087
55.1126
86.4875
125.87
150.253
0.0143741
2.80255e-16
2.22045e-16
2.22045e-16
2.22045e-16
19.6732
17.875
18.4406
16.0787
14.0181
12.8502
12.7117
13.6867
17.4365
25.84
41.4824
67.2834
101.339
137.316
3.05183
1.79564e-10
2.22045e-16
2.22045e-16
2.22045e-16
2.22045e-16
21.295
18.45
19.1479
17.2119
15.4705
14.8419
15.4033
18.0942
24.4295
36.2126
56.5729
85.5227
120.092
34.9174
4.97243e-07
2.22045e-16
2.22045e-16
2.22045e-16
2.22045e-16
2.22045e-16
29.308
23.3647
24.0136
22.7422
21.6119
21.7214
23.1478
27.6471
36.1457
51.1196
74.4457
103.5
76.7075
1.77342e-05
2.22045e-16
2.22045e-16
2.22045e-16
2.22045e-16
2.22045e-16
2.22045e-16
77.5352
85.1315
92.4652
97.8022
104.414
107.504
107.493
106.159
100.107
87.6569
73.4278
60.4509
49.4744
40.4964
33.1151
26.4432
20.5705
18.8344
20.1023
27.0969
85.0823
95.1626
104.336
111.915
122.003
128.645
132.24
129.54
112.863
90.4406
70.6425
55.9091
45.2273
37.1224
30.6064
24.9394
19.8218
17.2367
17.5862
21.8223
92.3776
104.271
114.656
122.623
134.206
145.12
152.188
147.701
116.118
79.9368
59.6772
48.258
40.5632
34.5829
29.4859
24.6631
19.9234
17.6465
18.1629
22.4644
97.6534
111.739
122.645
123.824
134.097
153.967
167.036
173.918
128.47
49.3789
41.8447
36.6044
32.303
28.5407
25.009
21.1603
16.9454
15.3692
16.2502
21.0825
104.146
121.611
133.721
135.109
41.7747
28.611
29.4579
28.7312
26.685
23.8755
20.9139
17.4985
14.0197
13.4904
14.6706
20.0368
107.256
128.21
144.301
151.88
26.7055
24.867
25.6009
25.4927
24.4856
22.3333
19.3902
15.6731
12.5152
12.369
13.8971
19.9255
107.291
131.824
151.532
166.097
23.9913
23.1366
23.5483
23.4809
22.7839
20.9521
17.9943
14.0631
11.8581
12.1539
14.2507
20.9823
106.064
129.362
147.371
173.223
22.2428
21.5188
21.9587
21.9379
21.368
19.6235
16.5832
13.112
12.084
12.851
16.1881
24.6292
100.174
112.804
115.851
126.331
41.1132
26.3466
23.9281
22.7966
12.9781
15.181
17.7052
19.0916
18.8905
17.8664
15.9847
13.7921
13.9293
15.7415
21.2857
31.9876
87.8017
90.4815
79.6727
49.1838
28.6435
24.6697
23.1237
21.7138
15.8144
11.7787
12.3676
13.9797
16.1316
17.7421
17.4308
17.5088
18.9509
22.7059
31.4432
45.4605
73.6138
70.6459
59.4289
41.4204
29.2151
25.504
23.5763
22.1184
18.3557
12.7516
11.7166
13.0995
16.4991
20.204
23.2339
26.0278
29.4762
36.1549
50.0422
67.6395
60.6103
55.878
48.0366
36.1953
28.4502
25.3926
23.5095
22.047
19.4621
14.5372
13.3546
15.2087
21.0565
29.8986
37.2374
42.1819
48.5919
60.0439
77.9176
97.5391
49.5943
45.1943
40.3922
32.0012
26.3889
24.3547
22.8055
21.392
19.1071
16.6639
17.048
21.5911
35.0141
52.3822
62.9643
70.0655
78.9526
93.0299
114.032
120.655
40.5862
37.1188
34.4455
28.3276
23.6254
22.1984
20.9601
19.5686
17.9254
17.9561
20.7702
30.9578
53.5671
81.7702
99.5217
106.765
117.826
132.554
135.813
0.032796
33.1829
30.6475
29.3943
24.8659
20.7339
19.2883
17.9752
16.5148
15.9394
17.5259
23.7105
38.3587
64.6799
101.088
136.955
147.774
152.616
61.3522
0.00379263
5.54506e-16
26.4935
25.0054
24.6247
21.0723
17.3844
15.627
14.058
13.0986
13.7592
17.5726
26.4345
43.2354
71.7842
108.432
148.845
62.0605
0.477479
2.86191e-06
2.22045e-16
2.22045e-16
20.5867
19.8704
19.9272
16.9065
13.9665
12.5084
11.8616
12.0803
13.9204
19.0348
29.8814
49.6217
80.5123
119.586
152.612
0.25147
7.34284e-13
2.22045e-16
2.22045e-16
2.22045e-16
18.8267
17.2339
17.6638
15.3431
13.448
12.3526
12.1424
12.8357
15.7622
22.8636
36.6315
61.135
94.614
133.92
38.6237
6.45404e-07
2.22045e-16
2.22045e-16
2.22045e-16
2.22045e-16
20.0878
17.5725
18.1598
16.2134
14.6175
13.8544
14.1984
16.1457
21.3373
31.6832
50.691
79.0282
115.356
134.475
0.00187873
2.22045e-16
2.22045e-16
2.22045e-16
2.22045e-16
2.22045e-16
27.0609
21.7838
22.4121
20.9997
19.9317
19.8123
20.8656
24.5672
32.0529
45.8177
68.407
98.6102
121.459
0.019082
2.22045e-16
2.22045e-16
2.22045e-16
2.22045e-16
2.22045e-16
2.22045e-16
76.517
84.6037
91.8595
97.3519
104.004
107.129
107.479
106.059
99.4754
86.8187
72.6886
59.9078
49.0492
40.0362
32.6323
26.2343
20.4733
18.3203
19.3041
25.4675
84.5385
95.2648
104.268
111.845
121.579
128.013
131.935
128.636
110.732
88.9449
70.0475
55.9826
45.6193
37.541
30.9352
25.2902
20.1685
17.0925
17.1826
20.838
91.7253
104.115
114.18
121.848
132.943
143.566
150.833
145.582
112.829
77.3941
58.4105
47.9731
40.8462
35.1914
30.3323
25.7053
20.9905
18.094
18.2308
21.7343
97.0956
111.269
121.086
122.9
132.92
152.867
167.171
173.592
123.964
47.5102
41.2795
36.7383
32.8171
29.2909
26.0075
22.5051
18.4265
16.1983
16.695
20.7037
103.741
120.897
131.668
132.579
38.2323
27.8467
29.6124
29.4114
27.9527
25.3223
22.3169
19.0451
15.4006
14.2036
15.0825
19.6056
106.949
127.517
142.598
150.634
24.7811
24.5161
25.6529
26.2193
25.6889
23.9381
21.1049
17.5303
13.9084
13.1628
14.298
19.4453
107.39
131.66
150.318
166.129
22.8316
23.1788
23.8437
24.0308
23.6804
22.2971
19.673
16.007
13.0427
12.9774
14.5341
20.3199
106.1
128.934
146.229
173.196
21.7552
21.6226
22.1199
22.2926
21.9973
20.7258
18.1676
14.8221
13.0783
13.5366
16.074
23.3632
99.9191
111.828
114.394
126.064
38.8405
24.8038
22.8636
21.6695
11.8855
15.0174
17.7865
19.282
19.2368
18.4759
17.0257
14.8978
14.6201
15.9466
20.2746
29.5826
87.3741
89.6636
77.8738
46.8452
26.7997
24.2134
23.019
21.4778
15.0862
11.4338
12.253
13.8348
15.6045
17.5207
17.6083
17.6258
18.8725
21.9832
28.8878
40.7837
73.1204
70.3056
58.1075
40.1792
28.4586
25.1758
23.5579
22.1025
18.0573
12.492
11.1373
12.1991
15.3877
19.0772
22.089
24.9853
28.2195
33.4383
44.268
59.5138
60.1513
55.9335
47.4538
35.7294
28.3617
25.6727
23.7353
22.2969
19.6865
14.3603
12.4322
13.8816
18.7012
26.8378
34.5739
39.6465
44.6742
53.3913
68.5246
86.4816
49.1274
45.4213
40.3281
32.0333
27.0871
25.1473
23.4055
22.0125
19.6088
16.2566
16.0015
19.2885
30.7834
47.6738
58.6332
64.352
71.0159
82.3858
101.474
115.247
40.017
37.2915
34.7135
28.6896
24.6154
23.4429
22.0733
20.7103
18.7323
18.1023
19.8784
28.1563
49.15
75.8517
91.8736
97.3205
105.546
120.206
132.528
2.52109
32.5689
30.6968
29.9143
25.545
21.7332
20.7005
19.4835
18.1094
17.1769
17.9852
22.8791
36.0631
60.7381
94.2491
125.918
135.431
143.562
143.948
0.484639
9.14125e-11
26.1455
25.0931
25.3739
22.1667
18.5751
17.2177
15.8408
14.7622
14.928
17.8989
25.6418
40.9228
66.5287
100.136
138.405
160.348
10.7946
0.00909524
4.23947e-13
2.22045e-16
20.3865
20.0137
20.7376
18.1826
15.0476
13.6801
12.8964
12.9743
14.6426
19.0629
28.7403
45.8557
73.1513
108.434
146.088
5.59907
1.68047e-08
2.22045e-16
2.22045e-16
2.22045e-16
18.2371
16.9654
17.8836
15.991
13.9194
12.9543
12.8205
13.4219
15.935
22.1405
33.9248
54.5572
84.3831
122.878
144.074
0.00392049
2.22045e-16
2.22045e-16
2.22045e-16
2.22045e-16
19.2136
17.0572
18.0296
16.4869
14.8048
14.0757
14.334
15.9232
20.2432
29.0609
44.8462
69.7426
103.482
133.674
0.268987
6.68711e-14
2.22045e-16
2.22045e-16
2.22045e-16
2.22045e-16
25.3436
20.7023
21.5442
20.4794
19.3314
19.1887
20.0755
23.1897
29.5581
41.0153
60.2335
87.8171
116.71
1.63315
2.24779e-11
2.22045e-16
2.22045e-16
2.22045e-16
2.22045e-16
2.22045e-16
75.8073
83.9109
90.9455
96.1892
102.669
105.714
106.452
105.195
98.65
86.1959
72.5418
60.2007
49.8045
41.2373
34.2236
28.1531
22.4161
19.6699
20.3912
25.939
83.8531
94.5672
103.2
110.034
119.507
125.786
130.05
126.868
108.695
87.6619
69.2008
55.6965
45.9286
38.3835
32.2319
26.9934
22.0892
18.5623
18.3856
21.5699
90.8372
103.156
112.534
118.762
129.565
140.171
147.785
142.801
109.876
74.6702
56.835
47.3827
40.9088
35.6769
31.1745
27.0188
22.67
19.4029
19.3196
22.4844
95.9673
109.769
118.44
118.738
128.8
146.993
162.194
168.692
117.452
44.3941
39.6942
36.2194
32.9696
29.8453
26.8757
23.8204
20.148
17.568
17.8338
21.545
102.341
118.844
128.32
125.435
36.2335
26.8757
29.0147
29.4349
28.5458
26.3343
23.4835
20.469
17.0409
15.4747
16.2139
20.4653
105.569
125.412
139.556
146.046
25.651
25.2998
26.4
27.2031
26.8022
25.2367
22.571
19.2459
15.6771
14.5396
15.4889
20.3074
106.346
129.809
147.412
161.722
24.3445
24.5034
25.1359
25.3506
25.052
23.8176
21.3772
17.9321
14.7392
14.3782
15.7176
21.1659
105.259
127.002
142.952
168.284
23.0437
23.1547
23.6599
24.0608
23.855
22.7401
20.2933
16.9511
14.7078
14.9389
17.2304
24.2212
99.0129
109.549
111.091
119.854
36.3219
25.1814
23.8913
22.8181
12.571
16.179
19.3852
21.3827
21.5153
20.8506
19.3582
16.9545
16.2327
17.418
21.3962
30.3127
86.6733
88.4202
75.6676
45.0384
26.602
24.7751
24.0774
22.9422
16.613
13.0069
13.9958
15.9864
17.9583
19.9253
19.8532
19.5685
20.6013
23.5076
29.7479
40.8789
72.8942
69.7201
57.2641
39.7153
28.5803
25.9469
24.6502
23.4067
19.6821
14.265
13.1111
14.238
17.6085
21.4297
24.3045
27.0125
30.0519
34.6426
44.1551
58.5174
60.4295
55.9506
47.4753
36.0284
28.9051
26.7493
24.9083
23.6974
21.4558
16.3927
14.465
16.0399
21.0335
29.2268
36.8256
41.7041
46.0396
53.5568
67.3501
84.4565
49.9485
46.0197
40.8606
32.7324
28.0241
26.3403
24.6264
23.4655
21.4398
18.3178
18.0648
21.5315
33.1809
50.3095
61.2868
66.2676
71.6842
81.5847
99.0432
115.648
41.3322
38.3876
35.5737
29.6096
25.8425
24.7763
23.4294
22.3059
20.6231
20.0184
21.8685
30.2752
51.5092
78.5617
94.5616
98.9295
105.195
118.589
134.703
22.3196
34.2937
32.2033
31.0505
26.6435
23.0507
22.147
21.0278
19.8649
19.0644
19.7815
24.6417
37.8702
62.8507
96.201
127.31
136.242
144.546
150.439
5.27356
1.09905e-07
28.2077
26.9641
26.9141
23.6141
20.1126
18.8907
17.6096
16.5952
16.6523
19.4235
27.1702
42.4006
67.6197
100.61
137.962
168.224
53.4476
0.13531
8.28708e-10
2.22045e-16
22.4642
22.0777
22.6009
19.987
16.7653
15.3881
14.4506
14.4226
15.9733
20.4097
30.0433
46.4773
72.7117
106.619
145.726
36.4466
5.13983e-06
1.42872e-14
2.22045e-16
2.22045e-16
19.6798
18.5538
19.3394
17.4223
15.2345
14.2761
14.1069
14.6631
17.1523
23.2606
34.5401
53.8322
82.2858
119.735
150.858
0.0867997
5.5017e-15
2.22045e-16
2.22045e-16
2.22045e-16
20.378
18.3618
19.2503
17.6799
15.9719
15.2161
15.4383
16.9434
21.0988
29.4671
44.0571
67.5578
99.6302
135.187
3.91222
3.17525e-10
2.22045e-16
2.22045e-16
2.22045e-16
2.22045e-16
25.8624
21.5
22.3873
21.3762
20.2182
20.0241
20.8672
23.8998
29.9851
40.6158
58.4632
84.645
115.803
18.1947
5.55069e-08
2.22045e-16
2.22045e-16
2.22045e-16
2.22045e-16
2.22045e-16
74.7384
82.8048
89.9624
94.9672
101.415
104.668
105.701
104.643
98.1078
85.7363
72.4364
60.5444
50.7193
42.7189
36.1236
30.3083
24.5832
21.3186
21.8068
26.8887
82.7645
93.5897
102.265
108.736
118.28
124.743
129.216
126.15
107.622
86.7099
68.2646
55.3157
46.3228
39.5185
33.9231
29.0072
24.2423
20.4248
19.9645
22.7745
89.8758
102.159
111.35
117.064
127.964
139.091
146.733
141.703
108.408
72.7939
55.3204
46.6056
40.9513
36.489
32.651
28.9914
24.9033
21.457
21.1641
23.915
94.7479
108.291
116.584
116.189
124.036
145.11
160.382
166.665
115.774
43.0825
38.4234
35.4147
32.8172
30.421
28.1384
25.6565
22.3478
19.6426
19.7537
23.124
101.155
117.634
126.921
123.503
34.7258
26.3385
28.2953
29.2482
28.6484
26.9845
24.6777
22.0939
18.9258
17.2592
17.8844
21.9179
104.531
124.348
138.221
143.629
25.5322
25.3861
26.515
27.6875
27.481
26.2865
24.0152
20.9848
17.4931
16.2457
17.0726
21.6781
105.628
128.996
146.341
159.958
25.3153
25.388
26.0068
26.5727
26.4138
25.4176
23.1725
19.7776
16.4987
16.065
17.2797
22.525
104.608
126.148
141.731
166.513
24.829
25.0802
25.4658
26.0645
25.9697
24.9685
22.4897
18.9692
16.5025
16.6584
18.8172
25.6428
98.3808
108.256
109.246
116.749
34.8795
25.1228
24.6421
24.3383
14.5819
18.7966
22.1635
24.14
24.2274
23.4849
21.8159
19.0988
18.2145
19.3148
23.0992
31.7854
86.2506
87.4922
73.8681
43.935
26.6588
25.1537
24.8596
24.5645
19.052
15.5727
16.7602
18.8948
20.8731
22.7679
22.5408
22.0617
22.9328
25.5766
31.4489
42.2699
72.9754
69.0692
56.1545
39.0274
28.4881
26.2727
25.4773
24.995
22.157
16.9155
15.7451
16.9974
20.5725
24.5169
27.3715
29.8948
32.612
36.7551
45.7263
60.0122
61.0353
55.9554
47.1601
35.7446
29.1386
27.3912
26.1316
25.5743
23.9165
19.0515
17.1382
18.8735
24.1954
32.7677
40.3619
44.8577
48.6822
55.6434
69.1432
86.5351
51.1312
46.7814
41.3126
32.983
28.4781
27.167
26.0092
25.4628
23.916
20.9844
20.8221
24.5178
36.774
54.4213
65.3185
69.8908
74.7445
84.1536
101.465
119.52
43.0501
39.8411
36.741
30.5151
26.7802
25.973
25.0711
24.437
23.0742
22.6398
24.7152
33.441
55.1708
82.6657
99.2204
103.46
109.006
122.212
140.06
47.7998
36.3882
34.1536
32.835
28.2034
24.5002
23.7424
22.8874
22.0062
21.4073
22.2983
27.4605
40.9373
66.081
99.7462
132
141.842
150.32
158.692
12.2884
1.60724e-06
30.5272
29.1828
29.1355
25.7135
21.9837
20.7894
19.5623
18.6409
18.7778
21.7922
29.8223
45.0754
70.2396
103.575
141.716
175.859
91.0917
0.350778
1.20055e-08
2.22045e-16
24.7606
24.3874
25.03
22.4119
18.8857
17.367
16.3295
16.2944
17.9501
22.6552
32.4061
48.5878
74.6878
108.877
149.608
71.8498
5.10515e-05
1.75141e-13
2.22045e-16
2.22045e-16
21.403
20.5116
21.5275
19.6619
17.1977
16.1053
15.8869
16.4499
19.0586
25.273
36.4054
55.3155
83.8064
121.843
157.436
0.267481
7.76208e-14
2.22045e-16
2.22045e-16
2.22045e-16
21.852
19.9992
21.1866
19.7414
17.792
16.9063
17.0865
18.5835
22.7929
31.0351
45.2575
68.6542
100.964
139.114
10.378
7.02241e-09
2.22045e-16
2.22045e-16
2.22045e-16
2.22045e-16
26.8414
22.7462
23.8734
23.0383
21.7614
21.4697
22.2881
25.3354
31.3747
41.7695
59.4632
85.9187
118.623
43.3355
1.08668e-06
2.22045e-16
2.22045e-16
2.22045e-16
2.22045e-16
2.22045e-16
74.7356
82.8001
89.9636
94.968
101.435
104.721
105.765
104.647
98.0737
85.7199
72.4359
60.5532
50.7313
42.7325
36.1409
30.335
24.6161
21.3475
21.8347
26.9187
82.7768
93.6062
102.257
108.64
118.264
124.833
129.345
126.122
107.556
86.7137
68.3495
55.4051
46.393
39.5705
33.9632
29.044
24.2807
20.4608
19.997
22.8052
89.8936
102.202
111.36
116.794
127.972
139.293
146.931
141.624
108.376
72.9615
55.5404
46.7624
41.0469
36.5594
32.7104
29.044
24.9534
21.499
21.2006
23.9458
94.7637
108.392
116.82
116.252
123.193
145.73
160.472
166.916
115.457
43.3803
38.8124
35.6807
32.9498
30.4896
28.1829
25.6965
22.3934
19.6799
19.7852
23.1444
101.153
117.663
126.854
123.635
34.4848
26.3309
28.3862
29.3101
28.6998
27.0278
24.7105
22.1261
18.9658
17.2848
17.9034
21.9213
104.504
124.284
138.023
142.724
24.6338
24.9788
26.2145
27.5455
27.3903
26.2605
24.0268
21.0173
17.5295
16.2597
17.0803
21.6752
105.594
128.915
146.21
159.557
24.6706
25.0506
25.7441
26.4177
26.2962
25.3551
23.1542
19.7904
16.509
16.0654
17.2811
22.5287
104.57
126.107
141.712
166.676
25.544
24.9104
25.3224
25.9596
25.8658
24.8649
22.3989
18.9144
16.4881
16.6508
18.8213
25.6668
98.3389
108.284
109.393
117.957
34.6342
25.0428
24.5671
24.9098
15.3672
18.9342
22.2232
24.1615
24.2153
23.4303
21.735
19.0322
18.1788
19.3006
23.121
31.8459
86.2013
87.4432
73.8764
43.6967
26.3925
25.1106
24.8874
24.5553
18.9045
15.5477
16.8318
19.0192
20.9641
22.7576
22.4854
22.0017
22.8958
25.5865
31.5107
42.3939
72.924
68.9956
56.101
39.0053
28.4893
26.3114
25.5254
24.9869
22.0304
16.8199
15.7386
17.0358
20.653
24.5754
27.402
29.9121
32.6524
36.8317
45.8648
60.2293
60.9939
55.9013
47.1256
35.814
29.2909
27.4893
26.1786
25.5931
23.8524
18.9206
17.0616
18.8526
24.2773
32.9691
40.5921
45.0641
48.8762
55.8411
69.3831
86.8361
51.103
46.7539
41.3048
33.0664
28.6416
27.2815
26.0638
25.4947
23.8636
20.8401
20.6818
24.4241
36.8682
54.7884
65.7769
70.3077
75.0956
84.4655
101.803
119.767
43.0319
39.8337
36.7537
30.5927
26.9291
26.103
25.1421
24.4887
23.0446
22.5677
24.6089
33.3422
55.263
83.0634
99.7987
103.972
109.456
122.62
140.319
45.1849
36.3739
34.1554
32.8598
28.2719
24.6099
23.8699
22.9784
22.0814
21.4232
22.2983
27.4524
40.9395
66.21
99.9996
132.396
142.355
150.776
158.97
11.5819
1.28784e-06
30.5144
29.1839
29.1588
25.7709
22.053
20.9026
19.6738
18.7388
18.8631
21.8832
29.9043
45.1589
70.3773
103.722
141.77
176.074
87.6014
0.32889
9.84389e-09
2.22045e-16
24.7471
24.3825
25.0424
22.4569
18.9266
17.4599
16.4392
16.4063
18.0807
22.7883
32.5351
48.7128
74.8128
108.921
149.53
71.3294
4.55607e-05
1.43158e-13
2.22045e-16
2.22045e-16
21.3946
20.504
21.5316
19.6898
17.2278
16.1822
15.9899
16.5669
19.1941
25.4294
36.5523
55.4491
83.8989
121.823
157.368
0.263119
7.41695e-14
2.22045e-16
2.22045e-16
2.22045e-16
21.8462
19.9939
21.1896
19.7653
17.8237
16.9825
17.1821
18.6999
22.9347
31.1945
45.4097
68.7859
101.036
139.112
10.1764
6.62598e-09
2.22045e-16
2.22045e-16
2.22045e-16
2.22045e-16
26.8433
22.7467
23.8771
23.0577
21.7993
21.5389
22.373
25.4505
31.5172
41.9258
59.6222
86.0579
118.714
42.4809
1.01714e-06
2.22045e-16
2.22045e-16
2.22045e-16
2.22045e-16
2.22045e-16
75.7984
83.9039
90.9628
96.238
102.701
105.808
106.531
105.231
98.5261
86.0342
72.4334
60.1496
49.7958
41.2521
34.2515
28.1881
22.457
19.7192
20.446
26.0117
83.8591
94.594
103.263
110.109
119.571
125.962
130.224
126.823
108.29
87.3833
69.0901
55.6976
45.9727
38.4305
32.2724
27.0337
22.1345
18.6168
18.4455
21.6413
90.8434
103.181
112.575
118.637
129.643
140.629
148.09
142.629
109.277
74.2688
56.7432
47.4196
40.9681
35.7244
31.202
27.0402
22.6975
19.4422
19.3664
22.5482
95.9486
109.745
118.509
117.209
124.99
146.911
161.447
167.47
115.804
44.157
39.6818
36.2741
33.0051
29.8462
26.8439
23.7807
20.1229
17.5614
17.8341
21.5639
102.336
118.802
128.133
124.391
33.9707
26.7369
28.9286
29.4012
28.525
26.3069
23.4169
20.3832
16.9669
15.4222
16.1717
20.4384
105.511
125.276
139.132
143.27
25.2617
25.0442
26.2204
27.1363
26.7607
25.2093
22.5321
19.1951
15.6148
14.4748
15.4344
20.278
106.279
129.656
147.135
160.193
24.901
24.3678
24.9803
25.2927
25.0199
23.822
21.3914
17.9156
14.6742
14.3105
15.6669
21.158
105.197
126.723
142.383
166.665
24.2414
23.1083
23.6635
24.0546
23.8386
22.7136
20.2557
16.8931
14.6395
14.8826
17.2105
24.2731
98.7618
108.812
109.987
117.084
33.9689
25.2666
24.9735
24.4575
13.3106
16.4608
19.6742
21.596
21.6387
20.9126
19.3768
16.9222
16.1973
17.4005
21.4425
30.471
86.3685
87.8925
74.9369
44.6525
26.755
25.0816
24.4278
23.2351
16.5883
13.1496
14.2476
16.3005
18.2548
20.121
19.9625
19.617
20.6343
23.5643
29.9224
41.2199
72.6949
69.4344
57.0351
39.7792
28.8522
26.1905
24.9495
23.6399
19.7357
14.3056
13.2286
14.4427
17.9297
21.7653
24.6048
27.2451
30.2501
34.8916
44.5786
59.1365
60.3316
55.8703
47.4948
36.2311
29.257
27.0283
25.1819
23.9414
21.5499
16.3663
14.4957
16.1766
21.4088
29.8843
37.5248
42.3001
46.5876
54.1468
68.0845
85.3703
49.923
46.0506
40.9681
32.9342
28.3641
26.6294
24.894
23.7133
21.5591
18.2945
18.0233
21.5486
33.5652
51.2913
62.4266
67.3304
72.676
82.5248
100.118
116.605
41.3497
38.4684
35.7018
29.7764
26.1397
25.0581
23.6803
22.5642
20.7904
20.0897
21.8533
30.1853
51.6561
79.3746
95.9346
100.257
106.445
119.839
135.84
18.017
34.3337
32.3004
31.1811
26.7844
23.2801
22.3924
21.2526
20.1079
19.2566
19.9069
24.6785
37.8043
62.8203
96.2642
127.976
137.564
145.807
151.51
4.17878
5.36424e-08
28.2582
27.0598
27.035
23.7389
20.2899
19.0932
17.8066
16.7939
16.8405
19.5713
27.2754
42.4332
67.5304
100.373
137.529
168.645
45.0834
0.104307
3.88165e-10
2.22045e-16
22.506
22.1537
22.7021
20.0966
16.9073
15.5488
14.6084
14.5827
16.1442
20.5899
30.2164
46.5607
72.6242
106.281
145.16
38.8805
3.47702e-06
8.1365e-15
2.22045e-16
2.22045e-16
19.7186
18.6057
19.421
17.5213
15.3594
14.4121
14.2512
14.8239
17.342
23.4879
34.7566
53.9476
82.2182
119.387
150.504
0.0921609
6.31345e-15
2.22045e-16
2.22045e-16
2.22045e-16
20.4227
18.4153
19.3294
17.7811
16.0985
15.3595
15.5943
17.1331
21.3381
29.7441
44.3017
67.7021
99.6043
135.05
4.01661
3.48775e-10
2.22045e-16
2.22045e-16
2.22045e-16
2.22045e-16
25.9271
21.5685
22.4728
21.481
20.3481
20.1822
21.0558
24.1458
30.2874
40.936
58.745
84.8427
115.908
18.3565
5.76372e-08
2.22045e-16
2.22045e-16
2.22045e-16
2.22045e-16
2.22045e-16
76.5192
84.612
91.8837
97.4163
104.094
107.213
107.547
106.098
99.3795
86.6431
72.5274
59.7561
48.9165
39.9383
32.5691
26.1926
20.4608
18.3376
19.3322
25.5284
84.5414
95.2861
104.293
111.835
121.662
128.142
132.066
128.682
110.377
88.5927
69.7152
55.7245
45.4184
37.3908
30.8392
25.2426
20.1598
17.1134
17.2125
20.8921
91.7194
104.158
114.228
121.644
133.039
143.861
151.068
145.622
112.236
76.6029
57.8454
47.586
40.5675
34.9707
30.1749
25.6181
20.9601
18.1033
18.2497
21.7746
97.0464
111.312
121.282
121.487
130.514
151.23
165.373
171.72
120.071
46.6615
40.5789
36.2218
32.4642
29.0283
25.811
22.375
18.3549
16.1722
16.6825
20.7127
103.672
120.809
131.466
129.679
35.7273
27.3992
29.0682
28.9694
27.6474
25.1128
22.172
18.9473
15.3349
14.1724
15.0551
19.5851
106.911
127.441
142.342
147.345
24.9435
24.2609
25.4487
26.0876
25.5846
23.8799
21.0834
17.5043
13.8667
13.1339
14.2728
19.4376
107.361
131.577
150.152
163.95
23.7032
23.2216
23.8556
24.0899
23.7584
22.3992
19.7606
16.0409
13.0332
12.9657
14.5212
20.3457
106.069
128.684
145.684
171.034
22.8001
21.8581
22.3389
22.5467
22.2497
20.9577
18.3356
14.889
13.0786
13.5376
16.1063
23.4879
99.6859
111.134
113.337
123.065
36.3609
25.1504
23.6639
22.5067
12.1357
15.1434
18.058
19.6457
19.5876
18.7614
17.2124
14.9622
14.6591
16.0011
20.4227
29.8833
87.0615
89.2065
77.3794
46.9453
27.3359
24.3039
23.0815
21.5642
15.1269
11.5126
12.4087
14.1172
15.9449
17.8564
17.8295
17.7695
18.9936
22.1686
29.2548
41.3645
72.8679
70.0775
58.0877
40.5134
28.9155
25.4808
23.7552
22.2312
18.1253
12.5544
11.2919
12.4149
15.7128
19.4672
22.4576
25.3216
28.57
33.9126
45.0009
60.4817
59.9868
55.8723
47.6043
36.0753
28.7873
26.0161
24.0235
22.4801
19.791
14.4336
12.5746
14.0855
19.098
27.4951
35.314
40.3679
45.458
54.3399
69.6697
87.8311
49.0513
45.4607
40.5156
32.3309
27.4682
25.4917
23.7003
22.1972
19.7115
16.3334
16.0896
19.4108
31.1915
48.6755
59.8689
65.6365
72.3654
83.7796
103.027
116.54
40.0039
37.3825
34.9032
28.9357
24.9652
23.7745
22.3509
20.8921
18.8289
18.1558
19.9043
28.1291
49.2583
76.6528
93.4655
98.9628
107.218
121.849
133.75
1.74043
32.5946
30.8058
30.0985
25.757
22.0482
20.9946
19.7156
18.2589
17.2582
18.026
22.8677
35.9747
60.6056
94.1129
126.633
137.043
144.957
143.275
0.317848
2.75934e-11
26.1965
25.201
25.5401
22.3536
18.8446
17.4508
16.0012
14.8533
14.9937
17.9361
25.6534
40.873
66.2794
99.6318
137.624
161.02
7.84852
0.00546272
1.12136e-13
2.22045e-16
20.444
20.11
20.8773
18.3412
15.2587
13.8409
13.0103
13.0706
14.7155
19.1285
28.8127
45.8159
72.8425
107.746
145.361
7.02396
9.16505e-09
2.22045e-16
2.22045e-16
2.22045e-16
18.3007
17.0513
18.0092
16.1349
14.1133
13.1121
12.9461
13.5361
16.0493
22.2747
34.0549
54.5308
84.06
122.216
143.589
0.00507891
2.22045e-16
2.22045e-16
2.22045e-16
2.22045e-16
19.2866
17.1471
18.1564
16.634
14.9982
14.2448
14.4962
16.0952
20.4423
29.2864
45.0209
69.7381
103.192
134.05
0.317429
1.11616e-13
2.22045e-16
2.22045e-16
2.22045e-16
2.22045e-16
25.4495
20.8113
21.6785
20.6347
19.5252
19.3914
20.302
23.4531
29.8582
41.3177
60.4465
87.8544
116.711
1.81917
3.17325e-11
2.22045e-16
2.22045e-16
2.22045e-16
2.22045e-16
2.22045e-16
77.5474
85.1632
92.5159
97.9201
104.479
107.513
107.474
106.11
100.01
87.5212
73.2963
60.3253
49.3657
40.4142
33.0576
26.4041
20.5543
18.8413
20.1198
27.145
85.0819
95.1863
104.389
112.108
122.168
128.7
132.223
129.42
112.616
90.1974
70.4232
55.7424
45.1101
37.0482
30.5631
24.9136
19.8106
17.2453
17.6037
21.8618
92.3557
104.269
114.691
122.898
134.586
145.285
152.223
147.524
115.811
79.6202
59.4178
48.0664
40.441
34.5075
29.4448
24.646
19.9235
17.6618
18.1853
22.5021
97.5685
111.602
122.457
124.397
134.675
154.7
168.217
174.738
126.641
49.2758
41.7465
36.5175
32.2442
28.509
25.0016
21.1685
16.966
15.4004
16.283
21.1191
104.121
121.487
133.365
134.031
38.8422
28.4967
29.3827
28.691
26.7135
23.9542
20.9966
17.5598
14.0735
13.5403
14.7174
20.0737
107.296
128.227
144.215
151.34
24.9858
24.7038
25.5398
25.4789
24.5282
22.4134
19.4793
15.7531
12.5995
12.4504
13.9746
19.9875
107.349
131.903
151.583
167.03
23.1055
23.1723
23.5332
23.479
22.8129
21.0129
18.0716
14.16
11.9573
12.2518
14.3415
21.0754
106.163
129.428
147.383
174.392
22.0705
21.6484
21.9314
21.8962
21.3311
19.611
16.6168
13.1807
12.1777
12.9557
16.321
24.8105
100.158
112.777
115.896
125.107
39.1251
25.1527
23.0024
22.0213
12.4826
15.4132
17.8002
19.0863
18.8576
17.8341
15.986
13.8583
14.0237
15.879
21.5153
32.3159
87.6825
90.3532
79.6506
49.3206
28.6253
24.8728
23.4271
22.055
15.9631
11.8875
12.4979
14.0959
16.2333
17.7745
17.4751
17.5893
19.0942
22.946
31.8531
46.0469
73.4341
70.4525
59.3362
41.5626
29.335
25.6069
23.7723
22.3615
18.5275
12.8309
11.7978
13.2056
16.62
20.345
23.4188
26.269
29.7998
36.6343
50.7593
68.5137
60.4245
55.6866
47.9311
36.2846
28.5891
25.5067
23.6781
22.2883
19.6625
14.6038
13.3952
15.2703
21.2339
30.3039
37.7642
42.7806
49.298
60.9106
78.9197
98.5906
49.4384
45.0374
40.284
32.0369
26.5528
24.502
22.9577
21.6312
19.3171
16.7155
17.0535
21.5514
35.2097
53.1076
63.9611
71.1247
79.9765
94.1742
115.141
121.587
40.4725
37.0007
34.3757
28.3626
23.7957
22.3681
21.1188
19.7961
18.1117
18.0569
20.7533
30.839
53.5692
82.4123
100.737
107.928
118.967
133.545
134.374
0.0209962
33.1043
30.56
29.362
24.9168
20.8939
19.4552
18.1411
16.6965
16.0893
17.6336
23.7345
38.3031
64.6099
101.201
137.596
148.577
153.367
46.3101
0.00231684
2.22045e-16
26.4338
24.9376
24.6114
21.1313
17.5206
15.7672
14.204
13.2225
13.8968
17.702
26.5382
43.276
71.7596
108.472
148.988
60.6858
0.344641
1.15028e-06
2.22045e-16
2.22045e-16
20.5561
19.8264
19.9117
16.9534
14.0712
12.6221
11.9838
12.2075
14.0701
19.2088
30.0638
49.7356
80.5451
119.579
153.97
0.333875
4.47889e-13
2.22045e-16
2.22045e-16
2.22045e-16
18.8282
17.2332
17.6577
15.391
13.5401
12.4624
12.2672
12.9823
15.9492
23.095
36.8788
61.3097
94.6946
134.186
46.0025
1.12981e-06
2.22045e-16
2.22045e-16
2.22045e-16
2.22045e-16
20.1034
17.5874
18.1762
16.2711
14.7144
13.9784
14.3461
16.3457
21.5939
31.9921
50.994
79.2833
115.65
135.066
0.00242733
2.22045e-16
2.22045e-16
2.22045e-16
2.22045e-16
2.22045e-16
27.1116
21.8301
22.4691
21.0884
20.0593
19.9729
21.067
24.8329
32.3834
46.193
68.7785
98.9886
122.175
0.0224738
2.46347e-16
2.22045e-16
2.22045e-16
2.22045e-16
2.22045e-16
2.22045e-16
78.3964
86.456
94.3102
99.8155
106.092
109.304
108.99
107.561
102.334
90.4327
76.0286
62.8399
51.4532
41.9619
34.0709
26.9341
20.9653
19.63
21.255
29.2757
86.4036
96.9577
106.763
114.566
124.551
131.219
134.269
132.021
117.24
94.8095
74.7171
59.1482
47.6241
38.7697
31.663
25.5828
20.2394
17.8348
18.4101
23.3303
94.2172
106.704
117.586
125.736
137.616
147.976
154.379
150.481
121.637
85.7831
64.5681
52.0038
43.3471
36.6105
30.9085
25.6089
20.5825
18.395
19.1023
23.9796
99.5706
114.19
125.292
124.887
137.235
155.703
167.877
174.115
130.952
53.8497
45.5509
39.6531
34.7904
30.4823
26.3807
21.9388
17.4048
16.0742
17.2034
22.7289
105.792
123.974
136.558
136.52
41.8696
31.1387
31.7891
30.7673
28.2685
25.0373
21.6854
17.8694
14.3521
14.0287
15.481
21.6182
109.151
130.916
147.281
153.284
26.6597
26.5307
27.459
27.1324
25.6161
22.9795
19.74
15.7729
12.8341
12.8691
14.8687
21.7527
108.948
134.131
154.002
167.097
23.8615
24.1718
24.7939
24.648
23.6427
21.3823
17.9759
13.8354
12.1784
12.7154
15.4393
23.2102
107.724
132.052
150.18
174.18
22.2965
22.2671
22.8743
22.8066
21.9567
19.7401
16.2995
13.0276
12.56
13.6926
18.1531
27.7226
102.287