/*--------------------------------*- C++ -*----------------------------------*\
  =========                 |
  \\      /  F ield         | OpenFOAM: The Open Source CFD Toolbox
   \\    /   O peration     | Website:  https://openfoam.org
    \\  /    A nd           | Version:  9
     \\/     M anipulation  |
\*---------------------------------------------------------------------------*/
FoamFile
{
    format      ascii;
    class       volScalarField;
    location    "0.0015";
    object      rho.Air;
}
// * * * * * * * * * * * * * * * * * * * * * * * * * * * * * * * * * * * * * //

dimensions      [1 -3 0 0 0 0 0];

internalField   nonuniform List<scalar> 
9720
(
0.0498331
0.0576362
0.0639459
0.0663696
0.0690576
0.0698556
0.0687506
0.0669084
0.063182
0.056442
0.0488699
0.0415809
0.0344278
0.0267645
0.0196275
0.016854
0.0168639
0.0193395
0.0467834
0.85279
0.0575053
0.0797209
0.0894076
0.095697
0.104677
0.111699
0.116215
0.113866
0.098342
0.0746352
0.0561552
0.0436103
0.0337922
0.02406
0.0158023
0.0136962
0.0137659
0.0148664
0.0274614
0.639763
0.0638029
0.0893281
0.0991269
0.105413
0.117468
0.129013
0.135401
0.130711
0.104021
0.0726317
0.0541908
0.0432774
0.0342256
0.0240899
0.0154465
0.0138295
0.0139713
0.0153554
0.0300041
0.662776
0.0662038
0.0956894
0.106062
0.105393
0.116949
0.132815
0.142132
0.146154
0.112636
0.041071
0.0352851
0.0309003
0.0259252
0.018893
0.0124765
0.0112623
0.0113894
0.0133315
0.0350788
0.817202
0.0687902
0.104772
0.118451
0.118759
0.0366853
0.0165439
0.0180699
0.0177259
0.0161394
0.0126084
0.00887287
0.00829921
0.00856227
0.0120046
0.0504404
1.08795
0.0695864
0.111727
0.129361
0.132232
0.0166294
0.00828687
0.0107131
0.0112024
0.0105082
0.00821982
0.00623403
0.00612437
0.00659141
0.0119744
0.071742
1.31479
0.0685361
0.115899
0.134745
0.14113
0.0132534
0.00684263
0.00678731
0.00668168
0.00642522
0.00580923
0.00535881
0.00539232
0.00615191
0.014091
0.106236
1.55537
0.0668366
0.113409
0.129655
0.145223
0.0106424
0.00619282
0.00650315
0.00651736
0.00635158
0.00586604
0.00543287
0.00545078
0.00676099
0.0227334
0.207072
1.96946
0.0630412
0.0972597
0.102272
0.107216
0.033768
0.0171483
0.0132735
0.0105047
0.00428597
0.00450689
0.00539899
0.00601314
0.00633816
0.00626614
0.00627479
0.00703309
0.0131692
0.066052
0.536506
2.71835
0.0562934
0.0737099
0.0711368
0.0392917
0.017297
0.00890355
0.0070826
0.00664098
0.00508921
0.00445729
0.00471561
0.00559926
0.00703897
0.00964285
0.0145849
0.0255679
0.067573
0.294905
1.61247
3.95369
0.0487668
0.055619
0.0534577
0.0342594
0.0183028
0.0112189
0.00703735
0.00692429
0.00614869
0.00494357
0.00508931
0.00713806
0.0163997
0.0433223
0.0945168
0.18399
0.427071
1.35851
4.05124
4.73824
0.0415291
0.0433727
0.0429866
0.0303035
0.0177806
0.0114453
0.00699394
0.00692776
0.00667112
0.00605553
0.00735597
0.0249362
0.139361
0.410757
0.727932
1.14031
2.09507
4.17066
5.48334
3.83457
0.0344056
0.0336859
0.0340774
0.0255499
0.0160498
0.010615
0.00676456
0.00674424
0.00676584
0.0074178
0.0158274
0.131209
0.91228
2.4519
3.4359
4.18219
5.08576
5.48321
4.1443
1.60107
0.0267618
0.0239653
0.0239265
0.018611
0.0124406
0.00822241
0.00610882
0.00618312
0.00653637
0.00943092
0.0388847
0.378205
2.38188
5.7799
6.88264
6.3648
5.29136
3.33542
1.49212
1.22707
0.0196416
0.0157597
0.0153828
0.0123501
0.00876823
0.00627999
0.0055576
0.00563757
0.00636821
0.0132896
0.0836125
0.678898
3.3504
6.85451
6.96383
4.68005
2.2575
1.31903
1.22571
1.225
0.0168809
0.0137068
0.0138527
0.0112246
0.00823436
0.00618433
0.00557554
0.0056363
0.00694716
0.0228982
0.168171
1.09487
4.13696
6.3661
4.69678
1.72927
1.24084
1.22508
1.225
1.225
0.0168928
0.0137796
0.0139992
0.0113572
0.00850139
0.00665489
0.00630737
0.00689849
0.0127809
0.0633505
0.41049
2.07355
5.0943
5.31426
2.27554
1.24148
1.225
1.225
1.225
1.225
0.0193927
0.0148931
0.0153953
0.0133141
0.011946
0.0119826
0.0141051
0.0225525
0.0646885
0.288715
1.34665
4.18106
5.50366
3.35317
1.32145
1.22508
1.225
1.225
1.225
1.225
0.0470442
0.0275923
0.0301169
0.0350666
0.0500812
0.0708748
0.104563
0.203891
0.530149
1.60048
4.04984
5.49744
4.15579
1.49558
1.22574
1.225
1.225
1.225
1.225
1.225
0.855419
0.641407
0.663559
0.815755
1.08179
1.30452
1.54344
1.95836
2.70901
3.94935
4.74509
3.84338
1.60444
1.22713
1.225
1.225
1.225
1.225
1.225
1.225
0.0476016
0.0527052
0.0578625
0.0593808
0.0614156
0.0617398
0.0606376
0.0589554
0.0550975
0.0493465
0.0431573
0.0370924
0.0310395
0.0245194
0.0182842
0.0157256
0.0156929
0.0174632
0.0382195
0.769783
0.0525264
0.0694056
0.0777872
0.0824544
0.0893258
0.0933159
0.094677
0.0905325
0.075722
0.0553703
0.0408286
0.0325204
0.0262575
0.0193462
0.0135423
0.0123899
0.0124714
0.0133132
0.0225914
0.578343
0.0576862
0.0776147
0.0868039
0.091067
0.100463
0.106831
0.110104
0.103821
0.0829275
0.0554522
0.0388633
0.0306646
0.0246845
0.017622
0.0126255
0.0122384
0.0123943
0.0134727
0.0242876
0.600073
0.0592307
0.0824084
0.0913743
0.0790968
0.0933054
0.10833
0.111275
0.102974
0.0641952
0.0212293
0.0187819
0.0163552
0.0140733
0.0108305
0.0091334
0.00917441
0.00941205
0.0109344
0.0262619
0.723333
0.0612134
0.089328
0.100917
0.0987514
0.00572222
0.00195889
0.00372066
0.00533622
0.00561893
0.00540474
0.00539827
0.00561653
0.00610269
0.00878277
0.0351124
0.946078
0.0615303
0.0930694
0.106827
0.109143
0.000551838
0.00183928
0.00287879
0.00383778
0.00428788
0.00426617
0.00428458
0.00444011
0.00498831
0.00870544
0.0471446
1.10832
0.0604816
0.094211
0.109491
0.10844
0.00192056
0.00315273
0.00356285
0.00409469
0.00442388
0.00440424
0.0044007
0.0044877
0.00501583
0.00990494
0.0654008
1.27761
0.0588881
0.0901605
0.103159
0.100785
0.00368388
0.00492272
0.00539459
0.00547764
0.00530685
0.00494246
0.00467579
0.00468312
0.00539561
0.0142752
0.119025
1.5953
0.0551219
0.0751141
0.0817783
0.0614271
0.00547084
0.000522348
0.00194408
0.00400966
0.00332666
0.00395379
0.0048851
0.00545964
0.00558269
0.00542344
0.00527792
0.00552031
0.00840858
0.0357684
0.308286
2.22374
0.0494325
0.0550772
0.0551522
0.0217517
0.00251239
0.0017813
0.00298017
0.00488833
0.00414085
0.00382911
0.00413934
0.00491505
0.00582015
0.00689411
0.00884323
0.0137174
0.0343259
0.158279
1.01121
3.41598
0.0432809
0.0408925
0.039196
0.0192632
0.00442071
0.00295021
0.00346637
0.00539931
0.00509545
0.00425594
0.00429091
0.00532664
0.00930057
0.0205758
0.0443494
0.0919879
0.229819
0.806685
3.10301
4.59105
0.0372202
0.032689
0.0310509
0.0166712
0.00563336
0.00388435
0.00402994
0.00537677
0.00566522
0.00509847
0.00545504
0.0123685
0.0589648
0.190708
0.385278
0.660642
1.32329
3.15
5.22444
4.32218
0.0311503
0.0263403
0.0248465
0.0141001
0.00554868
0.00413371
0.00426
0.00515962
0.00558514
0.00590056
0.00938032
0.0590982
0.44613
1.40267
2.27871
3.10234
4.33328
5.33696
4.83502
2.04154
0.0246025
0.0192731
0.0174577
0.0105891
0.00514057
0.00406336
0.00421574
0.00475079
0.00527152
0.00678695
0.0203452
0.193433
1.44124
4.37106
6.13984
6.12672
5.57259
4.17704
1.88232
1.23789
0.018324
0.0134504
0.0124599
0.00891707
0.00510886
0.00407324
0.00420567
0.00447908
0.00507532
0.00856031
0.0441917
0.399697
2.40597
6.29976
7.09042
5.56404
3.06314
1.50399
1.23019
1.225
0.0157247
0.0123336
0.0121203
0.00896324
0.00531194
0.00422943
0.00429146
0.00448935
0.00530236
0.0133744
0.0938583
0.700589
3.30181
6.27718
5.57776
2.32667
1.29211
1.22577
1.225
1.225
0.0156856
0.0124163
0.012283
0.0092077
0.00579668
0.00477709
0.0048156
0.00519627
0.00817536
0.0344379
0.239399
1.41307
4.52817
5.64027
2.99157
1.2857
1.22506
1.225
1.225
1.225
0.0174415
0.0132532
0.0133629
0.0107184
0.00845097
0.00841865
0.0096051
0.0139241
0.0355687
0.161528
0.842607
3.29507
5.42647
4.11493
1.47585
1.22562
1.225
1.225
1.225
1.225
0.0381428
0.0224694
0.0240655
0.0257854
0.034286
0.0460143
0.0639322
0.117548
0.309825
1.0322
3.18725
5.29649
4.81069
1.83238
1.22934
1.225
1.225
1.225
1.225
1.225
0.76971
0.577795
0.59866
0.719867
0.939394
1.09968
1.27022
1.59425
2.2363
3.4541
4.63331
4.31821
1.99757
1.23616
1.225
1.225
1.225
1.225
1.225
1.225
0.0447066
0.0471794
0.0520268
0.0532307
0.054883
0.0551882
0.0543727
0.0529691
0.0495856
0.0449028
0.0397514
0.0345326
0.0291421
0.0231073
0.0172097
0.0147343
0.0146599
0.0158621
0.0298742
0.650416
0.0470393
0.0481875
0.0528884
0.0527037
0.0547172
0.0552716
0.0547958
0.0521418
0.0456631
0.0336736
0.0266676
0.0237979
0.0210093
0.0165584
0.0123175
0.0115073
0.0115951
0.0122292
0.0183754
0.490158
0.0518729
0.0527605
0.060331
0.0594655
0.0626681
0.0626595
0.0621909
0.0572956
0.0472795
0.0245237
0.0190843
0.0185674
0.0173172
0.0138568
0.011358
0.011342
0.0115541
0.0124534
0.0196123
0.508537
0.0530379
0.0524592
0.0592614
0.0191402
0.0113619
0.0114749
0.0245199
0.000828459
0.000324061
0.00135682
0.00306928
0.00560853
0.00724525
0.00726888
0.00744787
0.00788527
0.00837619
0.00969938
0.0196544
0.60429
0.0546972
0.0545106
0.0625052
2.22045e-16
2.61105e-05
0.000498936
0.000921041
0.00154372
0.00227425
0.00301496
0.00375586
0.00440428
0.00505589
0.00705846
0.0230762
0.763026
0.0550604
0.0550628
0.0623261
0.0263578
0.000809813
0.00170926
0.0019097
0.00223501
0.00267134
0.00317124
0.00364154
0.00402041
0.00457293
0.00700261
0.0287641
0.865483
0.0542879
0.0545978
0.0618946
0.0273103
0.00272247
0.00359729
0.00353517
0.00354564
0.00365779
0.00384164
0.0040002
0.00418858
0.00464888
0.00759588
0.0369244
0.966408
0.0529663
0.0521838
0.0573825
0.000608042
0.00465603
0.00533362
0.00570583
0.00573065
0.00546199
0.0048913
0.00451408
0.00451448
0.00493625
0.00963415
0.0595367
1.17388
0.0497243
0.0457573
0.0471178
0.000200737
1.12247e-05
0.00045858
0.00198854
0.00381594
0.00315174
0.00412422
0.00517807
0.00576369
0.005757
0.00540114
0.00506581
0.00511257
0.00643742
0.0187862
0.142611
1.61832
0.045038
0.0341757
0.0264403
0.00139771
0.000337937
0.00131146
0.00298605
0.00465407
0.00380284
0.00370614
0.00410077
0.00488704
0.00560444
0.00606713
0.00680721
0.00894199
0.0178095
0.0714488
0.488848
2.56839
0.0398679
0.0270396
0.0200511
0.00312963
0.000691353
0.00151388
0.00294045
0.00514614
0.00477089
0.00405991
0.00410256
0.00476127
0.00656012
0.0111132
0.0214595
0.0439109
0.107717
0.381231
1.82505
3.99286
0.0346269
0.0239822
0.0190827
0.00578667
0.00124712
0.00182593
0.00298514
0.00510272
0.00542606
0.00478057
0.00473619
0.00695701
0.0220862
0.0757349
0.179168
0.338066
0.696653
1.85851
4.37072
4.42396
0.029204
0.0210568
0.0174973
0.00719723
0.00192755
0.00224352
0.00314787
0.00481892
0.00536646
0.00539859
0.00659542
0.0234081
0.176371
0.681819
1.32428
1.97868
3.05476
4.63817
5.02065
2.79943
0.0231338
0.0164572
0.0137075
0.00710522
0.00265401
0.00275647
0.00338385
0.00434972
0.00497002
0.00584848
0.011706
0.0849554
0.734207
2.78935
4.78437
5.35579
5.37953
4.78454
2.66309
1.30049
0.0171957
0.0121399
0.0111201
0.00722536
0.00340333
0.00324515
0.00359162
0.00409977
0.00469725
0.006723
0.0238324
0.206223
1.47866
5.03543
6.7893
6.03011
4.05443
2.00327
1.26141
1.22505
0.0146754
0.0113541
0.0110993
0.00761762
0.00404654
0.00364023
0.00380889
0.00412178
0.00477276
0.00916469
0.0498956
0.389834
2.2168
5.60706
6.08243
3.42309
1.49031
1.23268
1.22501
1.225
0.0145895
0.0114443
0.0113079
0.0080848
0.00468264
0.00420077
0.00427917
0.00455865
0.00615816
0.0188095
0.120816
0.787391
3.31947
5.52418
3.9731
1.46356
1.22611
1.225
1.225
1.225
0.0157596
0.0120693
0.0121928
0.00937608
0.00663879
0.00658409
0.00715967
0.00917645
0.0186505
0.0752356
0.41379
2.01049
4.77572
4.75167
1.91375
1.23081
1.225
1.225
1.225
1.225
0.0295232
0.018081
0.01917
0.0190152
0.022181
0.0276979
0.0357083
0.0584414
0.144039
0.506707
1.91032
4.4784
5.02844
2.55402
1.2542
1.22501
1.225
1.225
1.225
1.225
0.645921
0.486192
0.503992
0.59823
0.755386
0.857304
0.959764
1.17197
1.62811
2.60549
4.05119
4.44207
2.7219
1.28879
1.22504
1.225
1.225
1.225
1.225
1.225
0.04305
0.0446007
0.0495411
0.0507352
0.0523223
0.0526839
0.0520665
0.0508836
0.0477767
0.043573
0.038779
0.0338911
0.0288911
0.0231936
0.0174819
0.0152891
0.01528
0.0162972
0.0274652
0.583745
0.0445069
0.0413905
0.0446207
0.0440752
0.0458973
0.0467133
0.0467639
0.0453516
0.0408424
0.0295877
0.0235547
0.0216804
0.0196891
0.0158818
0.0122039
0.0117458
0.0119099
0.0126144
0.0176635
0.443061
0.0494095
0.0445917
0.0495069
0.0472292
0.0502856
0.050519
0.0508559
0.0478813
0.0406063
0.0188038
0.0153203
0.0159548
0.0156067
0.0129853
0.0111512
0.011181
0.0115044
0.0124801
0.0183981
0.461435
0.0505497
0.043952
0.0472619
0.00922489
0.0010046
0.00252548
0.0282474
0.00039268
0.000247718
0.00063889
0.00189267
0.00415426
0.00609787
0.00664185
0.00707916
0.00761571
0.00822039
0.00956168
0.0177149
0.546222
0.0521171
0.0456945
0.050127
0.00062148
3.46135e-05
0.000493333
0.00089566
0.0014498
0.00214144
0.00287245
0.00356156
0.00420511
0.00490093
0.006752
0.0195406
0.681012
0.0525846
0.0466181
0.0504074
0.0133415
0.000870865
0.00172829
0.00192385
0.00220247
0.00259566
0.00306642
0.00356524
0.0040263
0.00465488
0.00680591
0.0237793
0.768248
0.0519806
0.0466751
0.0507073
0.0294075
0.00290828
0.00351995
0.00345942
0.00346236
0.00357997
0.00379766
0.00401187
0.00427559
0.00478795
0.00731393
0.0299681
0.853515
0.0508842
0.0453737
0.0478455
0.00049719
0.00463426
0.00526577
0.00587174
0.00586146
0.00557559
0.00502832
0.00470237
0.00472629
0.00512744
0.00896949
0.0465732
1.03275
0.0478841
0.040956
0.0406975
0.000329523
2.09742e-05
0.000701561
0.00247951
0.00413475
0.00318308
0.0040687
0.00531667
0.0062099
0.00619659
0.00576431
0.0053968
0.00543118
0.00650843
0.0162511
0.10641
1.41679
0.043669
0.0300013
0.0198558
0.000642321
0.000425533
0.00152137
0.00319794
0.00504849
0.00410279
0.00412486
0.00459146
0.00546973
0.00615756
0.00654922
0.00720809
0.00907521
0.016319
0.0566724
0.355644
2.25659
0.0388442
0.0238383
0.0157708
0.00190056
0.000755058
0.00167821
0.00310858
0.00549101
0.00522068
0.00466574
0.00471024
0.00537742
0.00706408
0.0111704
0.0203703
0.0395556
0.0896853
0.288611
1.38038
3.71249
0.0339355
0.0218265
0.0162439
0.00420427
0.00123397
0.00191901
0.0031127
0.00534023
0.00596608
0.00547477
0.00542572
0.00738338
0.0199522
0.0648421
0.153254
0.285325
0.558378
1.44529
3.90675
4.51986
0.0289339
0.0197632
0.015779
0.00611866
0.00188109
0.00228717
0.00322864
0.00498659
0.00584191
0.00600129
0.00715468
0.0208411
0.140158
0.558475
1.12739
1.69221
2.60224
4.26227
5.1528
3.37955
0.0232444
0.0159009
0.0129855
0.00657088
0.00260469
0.00276197
0.00344889
0.00452279
0.0053387
0.00632057
0.0115864
0.0706498
0.58885
2.34295
4.3343
5.09407
5.34576
5.12772
3.35834
1.42775
0.0175151
0.0121751
0.0110791
0.00696347
0.00331845
0.00326719
0.00367929
0.00431678
0.00502289
0.00702337
0.0218302
0.16975
1.22074
4.5055
6.7706
6.4068
4.776
2.57082
1.33767
1.22549
0.0152908
0.0117032
0.0111047
0.00748247
0.0039835
0.00372994
0.00395592
0.00436007
0.00507467
0.00903303
0.0428401
0.314105
1.83173
5.28628
6.44676
4.35668
1.82543
1.25555
1.22511
1.225
0.0152792
0.0118661
0.0114233
0.00807544
0.00467883
0.00435078
0.00446637
0.00476882
0.00615699
0.0165069
0.0953113
0.599424
2.74996
5.44743
4.73158
1.78869
1.23208
1.22501
1.225
1.225
0.0162688
0.0125611
0.0123825
0.00937587
0.00646893
0.00644921
0.00690578
0.00847813
0.0156732
0.0567462
0.296705
1.50209
4.34908
5.10254
2.47996
1.25044
1.22501
1.225
1.225
1.225
0.0271394
0.017463
0.0181096
0.0172179
0.0187631
0.0227489
0.028631
0.0445935
0.103011
0.351252
1.39287
3.95002
5.14568
3.25563
1.32225
1.22508
1.225
1.225
1.225
1.225
0.576736
0.437135
0.455137
0.538281
0.670651
0.755668
0.838594
1.01472
1.39675
2.24348
3.71995
4.51644
3.32097
1.40756
1.22538
1.225
1.225
1.225
1.225
1.225
0.0421234
0.0435157
0.0485859
0.0497165
0.0513375
0.0518573
0.0513539
0.0503163
0.0473014
0.0432828
0.0385753
0.0338316
0.0291351
0.0237696
0.0182037
0.0162508
0.0163115
0.0173516
0.0278881
0.568658
0.0434347
0.0402565
0.043574
0.0431209
0.0450615
0.0460697
0.0462359
0.0449866
0.040571
0.0289096
0.0226286
0.020979
0.0193346
0.0159483
0.0126897
0.0124512
0.0127095
0.013572
0.0185189
0.434794
0.0484904
0.0435108
0.0483542
0.0463902
0.0496441
0.0500015
0.0504105
0.0475487
0.0401612
0.0174915
0.0143237
0.0151625
0.0150428
0.0128813
0.011632
0.0117564
0.0122483
0.0134415
0.0193644
0.455912
0.0495837
0.0429236
0.0459138
0.00949449
0.00266163
2.22045e-16
0.0219016
0.000426942
0.000286893
0.00060613
0.0017674
0.00382545
0.00574306
0.00656103
0.0072419
0.00796958
0.00876887
0.0103418
0.0185379
0.543684
0.051194
0.044937
0.049516
8.21744e-05
2.31719e-05
0.00052962
0.000913843
0.00144495
0.00214162
0.00291275
0.00366232
0.00438852
0.00520124
0.00721946
0.0198607
0.675745
0.0517455
0.0459912
0.0500154
0.00033304
0.000880148
0.00176886
0.00193993
0.00220924
0.00262913
0.00314622
0.0037038
0.00426557
0.00501781
0.00732893
0.0240562
0.764014
0.0512824
0.0461769
0.0503721
0.0242455
0.00274629
0.00358231
0.00352477
0.00354712
0.003708
0.00398139
0.00425716
0.0045975
0.00521351
0.00789081
0.0302341
0.849905
0.0502674
0.0449711
0.047538
0.000315225
0.00446677
0.00568707
0.00633456
0.00627424
0.00593885
0.00538052
0.00511357
0.00517185
0.00564193
0.00960624
0.0467713
1.02937
0.0473758
0.0406858
0.0403809
0.000285082
2.32451e-05
0.000825398
0.00256786
0.00433384
0.00356406
0.004615
0.00592264
0.00687366
0.00681048
0.00631672
0.00596961
0.00602992
0.00718023
0.0171324
0.105804
1.41087
0.043421
0.0294238
0.0186761
0.000629858
0.000472273
0.00157803
0.00324825
0.00551998
0.00468016
0.00474749
0.00534136
0.00628105
0.00693883
0.00733441
0.00807642
0.0101028
0.0176504
0.0583399
0.347359
2.242
0.0387554
0.0231842
0.0150239
0.00182489
0.000808387
0.00173393
0.00321469
0.00595472
0.00594273
0.00547039
0.00553763
0.00627064
0.00807693
0.0125046
0.0224295
0.0426119
0.0936419
0.288617
1.32786
3.7241
0.0340182
0.0214242
0.0157287
0.00394776
0.00128123
0.00197918
0.00324846
0.00579936
0.00675622
0.00634762
0.00634697
0.00847906
0.021873
0.069404
0.161573
0.295498
0.562988
1.40908
3.85525
4.67513
0.0293155
0.0196858
0.0155078
0.00587167
0.00193682
0.00237747
0.00342037
0.00547138
0.00658232
0.00686388
0.00819328
0.0224774
0.145002
0.572807
1.14917
1.70881
2.58343
4.24644
5.3235
3.69432
0.0239518
0.0161922
0.0131038
0.00659929
0.00270827
0.00290305
0.00370956
0.00499747
0.00600288
0.00717559
0.0128144
0.073137
0.592397
2.33403
4.36347
5.17342
5.48433
5.37757
3.74547
1.52385
0.0183415
0.0128
0.0117121
0.00723454
0.00348828
0.00349824
0.00401103
0.0048254
0.00568376
0.00790053
0.0233242
0.172124
1.20861
4.47137
6.92996
6.69978
5.18197
2.90659
1.4018
1.22617
0.0163275
0.0125206
0.0118288
0.00795949
0.00425938
0.00407586
0.00437739
0.00490339
0.00575284
0.00996273
0.0444035
0.312226
1.78851
5.29439
6.72689
4.86497
2.06595
1.27843
1.22529
1.225
0.0163837
0.0127735
0.0123147
0.00876649
0.00509825
0.0048306
0.00500337
0.00538607
0.00688514
0.0174854
0.0957627
0.580922
2.65745
5.54217
5.14903
2.03122
1.24029
1.22502
1.225
1.225
0.0173949
0.0136174
0.0134835
0.0103085
0.00707784
0.00709947
0.00759842
0.00920649
0.0164606
0.0568667
0.286459
1.42145
4.28167
5.35192
2.82624
1.2722
1.22502
1.225
1.225
1.225
0.0276398
0.0184086
0.0192063
0.018226
0.019279
0.0231725
0.0289322
0.0444443
0.100381
0.333576
1.30608
3.85096
5.30199
3.65733
1.38482
1.22524
1.225
1.225
1.225
1.225
0.561407
0.428885
0.449715
0.536341
0.66586
0.750615
0.832232
1.00532
1.37843
2.20434
3.70001
4.65753
3.64724
1.5041
1.226
1.225
1.225
1.225
1.225
1.225
0.0421154
0.0435191
0.0485943
0.0497185
0.0513518
0.0518807
0.0513815
0.0503189
0.0473044
0.0432919
0.0385831
0.033831
0.0291253
0.0237523
0.0181944
0.0162567
0.0163194
0.0173626
0.0279068
0.568607
0.0434103
0.0402344
0.0435736
0.0430932
0.0450355
0.0460659
0.0462545
0.0449738
0.0406201
0.0288605
0.022533
0.020858
0.0192034
0.0158393
0.0126597
0.0124414
0.0127046
0.0135749
0.0185321
0.434679
0.0484708
0.0434586
0.0483095
0.0461396
0.049402
0.0499266
0.050405
0.0475298
0.0402804
0.0171258
0.0140747
0.0149282
0.0148301
0.0127395
0.0115969
0.0117327
0.0122366
0.0134391
0.0193653
0.455526
0.049572
0.0429038
0.0460577
0.00945949
0.00733491
0.000152227
0.0171639
0.000229866
0.000263213
0.000609603
0.00176792
0.00377393
0.00565787
0.00649699
0.00720288
0.00794731
0.00875873
0.0103349
0.0185062
0.542544
0.0511745
0.0449399
0.0497245
1.33611e-06
2.91959e-05
0.000578047
0.000976212
0.00151207
0.00220029
0.00295463
0.00368491
0.00440009
0.00520889
0.00721157
0.0197585
0.673291
0.0517239
0.0459911
0.0500849
0.00302683
0.00101665
0.00187875
0.00204348
0.00230432
0.0027111
0.00320795
0.00374224
0.00428966
0.00503009
0.00731673
0.0239308
0.761616
0.0512624
0.0461635
0.0503856
0.0273245
0.00294171
0.00372775
0.00365421
0.00366587
0.00380792
0.00405488
0.00430268
0.00462099
0.00522281
0.00787368
0.0301247
0.848097
0.0502513
0.0449624
0.0475622
0.00073816
0.00493144
0.00584785
0.00643508
0.00635611
0.00600047
0.00542812
0.00513471
0.00518526
0.00564481
0.00959163
0.0467465
1.02866
0.0473649
0.040702
0.0405146
0.000334186
2.45313e-05
0.000836314
0.00248959
0.00435216
0.00380527
0.00473187
0.00602309
0.00695732
0.00688133
0.00635985
0.00597939
0.00603011
0.00716867
0.0171519
0.106207
1.41196
0.0434033
0.0293619
0.0184673
0.000614837
0.000492139
0.00162661
0.00332339
0.00551674
0.00466246
0.0047806
0.00540983
0.00636396
0.0070087
0.00736695
0.00805497
0.0100286
0.0175752
0.058611
0.349682
2.24623
0.038734
0.0231435
0.0149196
0.00179606
0.000850537
0.00180354
0.00329394
0.00606402
0.00588389
0.00541945
0.00554756
0.00632704
0.00812491
0.0124615
0.0221952
0.0422316
0.0936888
0.290557
1.33744
3.72892
0.0340007
0.0214049
0.01566
0.00390341
0.00134236
0.00206211
0.00332972
0.00591845
0.00675114
0.0063031
0.00630603
0.00842886
0.0215541
0.0682817
0.159903
0.29503
0.565924
1.41965
3.86727
4.66506
0.0293044
0.0196733
0.0154608
0.00584336
0.00200405
0.00246007
0.00350217
0.00557793
0.00661181
0.0068443
0.00810008
0.0219218
0.14126
0.562888
1.14279
1.71417
2.59867
4.26108
5.31367
3.66503
0.0239433
0.0161845
0.0130888
0.00659493
0.00277034
0.00297658
0.0037859
0.0050842
0.00605568
0.00716937
0.0125929
0.0709924
0.578366
2.30553
4.35527
5.18484
5.49345
5.36973
3.71216
1.51477
0.0183324
0.012792
0.0117056
0.00723892
0.00353585
0.00355664
0.00407894
0.00489527
0.00573796
0.00789541
0.0228586
0.167944
1.18915
4.44102
6.92361
6.70001
5.17454
2.88484
1.39638
1.2261
0.0163184
0.0125121
0.0118222
0.00796188
0.00428784
0.00413152
0.00443965
0.00497078
0.00581056
0.00995298
0.0437053
0.307638
1.77585
5.28
6.72098
4.86035
2.0577
1.27696
1.22527
1.225
0.0163747
0.012765
0.0123079
0.00876599
0.0051163
0.00488829
0.00506624
0.00545634
0.00696519
0.0175133
0.0952222
0.578843
2.65479
5.53878
5.14902
2.03194
1.24016
1.22502
1.225
1.225
0.017389
0.0136098
0.0134786
0.0103144
0.00710166
0.00716245
0.00768403
0.00932379
0.0166567
0.0572658
0.287527
1.42465
4.28515
5.35495
2.83004
1.27246
1.22502
1.225
1.225
1.225
0.0276544
0.0184122
0.0192158
0.0182499
0.0193284
0.0233059
0.0291745
0.0449029
0.101491
0.336523
1.31257
3.8561
5.30311
3.66009
1.38545
1.22524
1.225
1.225
1.225
1.225
0.561792
0.429175
0.449928
0.536588
0.666171
0.751681
0.834252
1.00843
1.38278
2.20989
3.70363
4.65618
3.64507
1.50404
1.226
1.225
1.225
1.225
1.225
1.225
0.0430358
0.0446105
0.0495564
0.0507446
0.0523375
0.0527426
0.0521123
0.0509067
0.0477498
0.0435554
0.0387661
0.0338756
0.0288634
0.0231464
0.017458
0.0152978
0.0152904
0.0163128
0.0275208
0.58415
0.0444465
0.0413377
0.0446213
0.0440936
0.0458367
0.0467047
0.046777
0.0453304
0.0408479
0.0293411
0.0231706
0.0212866
0.0193091
0.0155758
0.0120953
0.0117074
0.0118771
0.0125957
0.0176851
0.443258
0.0493635
0.0444628
0.0493975
0.047158
0.0499874
0.0503481
0.0507762
0.0477723
0.0405609
0.0178912
0.014622
0.0153203
0.0150414
0.0126067
0.0110365
0.0110886
0.0114296
0.0124226
0.0183717
0.461112
0.0505161
0.043824
0.0470642
0.00947306
0.00702726
2.22045e-16
0.0188877
0.000183238
0.000261319
0.000638269
0.00185267
0.00397338
0.00584108
0.00646494
0.00696305
0.00752376
0.00813632
0.0094791
0.017601
0.544007
0.0520883
0.0457096
0.0503899
1.1449e-06
2.2657e-05
0.00056187
0.000991867
0.00156193
0.00223947
0.00292985
0.00356708
0.0041738
0.00484796
0.00666518
0.019301
0.67621
0.0525224
0.0466155
0.0506096
0.00679313
0.00104057
0.00194526
0.00212796
0.00238517
0.00274183
0.00315586
0.00359338
0.00401358
0.00461125
0.00671618
0.0235219
0.764346
0.05193
0.0466559
0.0507397
0.0310351
0.00311055
0.00380508
0.00369536
0.00366124
0.00373751
0.00389089
0.00404662
0.00426419
0.0047417
0.00722224
0.0298144
0.851701
0.0508497
0.0453148
0.0477584
0.000204065
0.00479758
0.00539343
0.00593313
0.00590189
0.00559083
0.00504406
0.00469255
0.00470144
0.00507882
0.00890499
0.0468304
1.03473
0.0477982
0.0408442
0.0405228
0.000246696
2.07626e-05
0.000926061
0.0029054
0.00464276
0.00341893
0.00417962
0.0053927
0.00623173
0.00620124
0.00576292
0.00537406
0.00539789
0.00646616
0.0163374
0.108417
1.42646
0.0436076
0.0296739
0.0188857
0.000647904
0.000499266
0.00178588
0.00360523
0.005316
0.00416057
0.00419452
0.00466132
0.00552468
0.00619044
0.00655666
0.00717635
0.0090059
0.016332
0.0577499
0.365454
2.28075
0.0388087
0.023575
0.0152978
0.00190208
0.000884596
0.00193656
0.00345297
0.00577472
0.00532646
0.00466453
0.00473505
0.00542428
0.00710297
0.0111231
0.0201819
0.0394198
0.0908491
0.296591
1.41887
3.743
0.0339184
0.0216531
0.0159026
0.00413658
0.00140988
0.00217202
0.0034087
0.00568132
0.00610913
0.00549527
0.00542074
0.00732042
0.0194459
0.0632793
0.151602
0.287219
0.571143
1.48697
3.96074
4.52021
0.028927
0.019649
0.015541
0.00604659
0.00206873
0.00252302
0.00349085
0.00531818
0.0060331
0.00609605
0.00710207
0.0198058
0.132474
0.539822
1.11975
1.71541
2.65908
4.32177
5.15846
3.33061
0.0232397
0.0158499
0.0129103
0.00656015
0.00276998
0.00295905
0.00366879
0.00478701
0.00555608
0.00643424
0.0112722
0.0659069
0.554339
2.27164
4.32484
5.13867
5.38764
5.12673
3.29909
1.4124
0.0175206
0.0121775
0.0110892
0.00698158
0.00344163
0.00343233
0.00386213
0.00450969
0.00520447
0.00708997
0.0208588
0.15922
1.16287
4.4027
6.75284
6.41631
4.76405
2.52974
1.32845
1.22541
0.0153096
0.0117213
0.0111206
0.00751091
0.00407838
0.00387727
0.00411478
0.00453867
0.00524523
0.00900843
0.0409759
0.299811
1.77467
5.22051
6.4332
4.35838
1.81217
1.2531
1.22509
1.225
0.0152987
0.0118857
0.0114458
0.00811203
0.00476538
0.00449063
0.00461414
0.00493629
0.00632492
0.016413
0.0929049
0.584903
2.70874
5.42411
4.74553
1.79851
1.23201
1.22501
1.225
1.225
0.0162983
0.0125867
0.0124156
0.00943037
0.00656753
0.00658925
0.00707293
0.00869887
0.0159908
0.0570276
0.295297
1.49083
4.33466
5.11422
2.5016
1.25163
1.22501
1.225
1.225
1.225
0.0272644
0.017541
0.0182056
0.0173566
0.0189581
0.0230466
0.0291067
0.0454824
0.104946
0.355302
1.39665
3.94659
5.15103
3.2775
1.32543
1.22509
1.225
1.225
1.225
1.225
0.578538
0.438726
0.456655
0.539555
0.671696
0.758125
0.843
1.02166
1.40652
2.25425
3.72489
4.51843
3.33027
1.41106
1.2254
1.225
1.225
1.225
1.225
1.225
0.0447213
0.0472405
0.0520811
0.0532896
0.0549486
0.0552623
0.0544313
0.0530005
0.049557
0.0448702
0.0397106
0.0344726
0.0290535
0.0229971
0.0171366
0.0147115
0.0146384
0.0158474
0.0299618
0.652002
0.0470251
0.0482587
0.0528739
0.052684
0.0546006
0.0551728
0.0547269
0.0521228
0.0456699
0.0335078
0.0262605
0.0233062
0.0204887
0.0160792
0.0120917
0.0114321
0.011529
0.0121797
0.018401
0.491498
0.0518361
0.0527617
0.0602568
0.0592761
0.0622475
0.0622918
0.0619863
0.0572769
0.0473138
0.0242635
0.0185176
0.0179027
0.0166253
0.0132368
0.0111569
0.011185
0.0114291
0.0123553
0.0195865
0.509466
0.0529897
0.0524852
0.059275
0.00681221
0.00657955
2.22045e-16
0.0180764
0.000178255
0.000305375
0.00135312
0.00301084
0.00533981
0.0068313
0.0069622
0.0072487
0.00772563
0.00822195
0.00955511
0.0195305
0.603519
0.0546467
0.0547027
0.0629651
2.22045e-16
1.89258e-05
0.000476672
0.000930065
0.00157826
0.0022922
0.00299227
0.0036834
0.00429495
0.00492277
0.0069088
0.0228655
0.760754
0.0550038
0.0552552
0.0628143
0.00793825
0.000907798
0.00176127
0.00199484
0.00232664
0.00273158
0.0031758
0.00359844
0.00394425
0.00447442
0.00688145
0.0286598
0.866301
0.0542407
0.0547465
0.062152
0.0307516
0.0030814
0.00369096
0.00361428
0.00361694
0.00370512
0.0038468
0.00396485
0.00412242
0.00455937
0.00749902
0.0371648
0.972523
0.0529296
0.0521914
0.0573624
0.00055832
0.00472991
0.00520749
0.00559664
0.0056431
0.00539984
0.00486409
0.00446387
0.00445068
0.00485848
0.00960784
0.0610118
1.18919
0.0496316
0.0457201
0.0472394
0.000384611
1.74224e-05
0.000798856
0.00277793
0.00437997
0.00313893
0.00397319
0.00502349
0.00566085
0.0056697
0.00534785
0.00500629
0.00504796
0.00639695
0.0191827
0.149112
1.65019
0.0449634
0.0337761
0.0251442
0.00135344
0.000404142
0.00151043
0.00330938
0.00489751
0.00389472
0.00369413
0.00406269
0.00483329
0.00554023
0.00600916
0.00676257
0.00895131
0.0181953
0.0748031
0.515564
2.62539
0.0398066
0.0266195
0.0191842
0.00307818
0.000846469
0.0017659
0.00328081
0.0053925
0.00493657
0.0040878
0.00410373
0.00474005
0.00650716
0.0110649
0.021602
0.0449172
0.112272
0.402673
1.90886
4.04733
0.0345745
0.0236896
0.018532
0.00563427
0.00151107
0.00213679
0.00333631
0.00538445
0.00562928
0.00488093
0.00479258
0.0068925
0.0216658
0.0752896
0.181408
0.348672
0.730265
1.94885
4.45231
4.42935
0.0291548
0.0208893
0.0172079
0.00721095
0.00224003
0.00257663
0.00349839
0.00514018
0.00560099
0.00556274
0.00662416
0.0221595
0.16681
0.667559
1.33808
2.04008
3.16513
4.72086
5.02549
2.73333
0.0230837
0.0164061
0.0136776
0.00718115
0.00293222
0.0030522
0.00370019
0.00466444
0.00522516
0.00600656
0.0113849
0.0784927
0.684406
2.70299
4.81211
5.43823
5.44814
4.77752
2.59215
1.29132
0.0171726
0.0121683
0.0111862
0.00730827
0.00362819
0.00350023
0.00385711
0.00434239
0.00490734
0.0067937
0.0225506
0.190901
1.38855
4.889
6.7777
6.05891
4.0287
1.95667
1.25669
1.22504
0.0146964
0.0114033
0.0111696
0.0077161
0.00424262
0.00386253
0.00403387
0.00434487
0.0049647
0.0090849
0.0471293
0.366073
2.11279
5.51044
6.07635
3.44215
1.48066
1.23167
1.22501
1.225
0.0146184
0.0114948
0.0113819
0.00819441
0.00486381
0.00439795
0.00447813
0.00476508
0.0063403
0.0185718
0.116433
0.75521
3.23006
5.48627
4.02201
1.47735
1.22612
1.225
1.225
1.225
0.0158099
0.0121307
0.012282
0.00949996
0.00682233
0.00678572
0.00738937
0.0094738
0.0190849
0.0754583
0.408203