/*--------------------------------*- C++ -*----------------------------------*\
  =========                 |
  \\      /  F ield         | OpenFOAM: The Open Source CFD Toolbox
   \\    /   O peration     | Website:  https://openfoam.org
    \\  /    A nd           | Version:  9
     \\/     M anipulation  |
\*---------------------------------------------------------------------------*/
FoamFile
{
    format      ascii;
    class       volScalarField;
    location    "0.0015";
    object      rhoE;
}
// * * * * * * * * * * * * * * * * * * * * * * * * * * * * * * * * * * * * * //

dimensions      [1 -1 -2 0 0 0 0];

internalField   nonuniform List<scalar> 
9720
(
4.1515e+08
4.25156e+08
4.54031e+08
4.68772e+08
5.02656e+08
5.25441e+08
5.42028e+08
5.57918e+08
5.66111e+08
5.28648e+08
4.68955e+08
4.09817e+08
3.55058e+08
3.04508e+08
2.55706e+08
2.01606e+08
1.49639e+08
1.34596e+08
1.35577e+08
1.24328e+08
4.24858e+08
4.39966e+08
4.74405e+08
4.999e+08
5.53623e+08
6.00164e+08
6.41292e+08
6.65021e+08
6.27655e+08
5.26958e+08
4.35696e+08
3.67435e+08
3.18156e+08
2.78116e+08
2.40306e+08
1.98287e+08
1.51733e+08
1.27737e+08
1.29685e+08
1.16384e+08
4.53452e+08
4.73974e+08
5.10112e+08
5.3387e+08
5.96153e+08
6.60718e+08
7.23176e+08
7.45934e+08
6.3889e+08
4.65934e+08
3.68397e+08
3.18376e+08
2.87569e+08
2.62764e+08
2.36927e+08
2.03194e+08
1.59961e+08
1.36294e+08
1.36551e+08
1.19513e+08
4.67625e+08
4.98496e+08
5.33458e+08
5.30247e+08
5.85595e+08
6.80596e+08
7.6563e+08
8.34687e+08
6.8643e+08
2.84111e+08
2.54469e+08
2.4066e+08
2.31593e+08
2.22149e+08
2.07648e+08
1.79887e+08
1.39653e+08
1.23598e+08
1.24634e+08
1.10922e+08
5.00759e+08
5.51246e+08
5.93715e+08
5.8987e+08
2.31633e+08
1.66714e+08
1.7588e+08
1.79814e+08
1.78323e+08
1.7282e+08
1.63234e+08
1.41366e+08
1.12631e+08
1.08032e+08
1.07821e+08
9.96529e+07
5.23705e+08
5.98093e+08
6.57971e+08
6.75995e+08
1.65948e+08
1.68541e+08
1.74878e+08
1.75345e+08
1.71464e+08
1.62555e+08
1.48192e+08
1.21748e+08
9.84562e+07
9.85214e+07
1.01392e+08
9.76912e+07
5.40269e+08
6.38601e+08
7.19573e+08
7.60849e+08
1.68772e+08
1.72714e+08
1.75775e+08
1.74789e+08
1.69645e+08
1.57915e+08
1.3705e+08
1.06419e+08
9.45675e+07
9.87416e+07
1.04079e+08
1.00519e+08
5.57258e+08
6.62656e+08
7.40886e+08
8.30923e+08
1.69731e+08
1.75737e+08
1.78727e+08
1.76963e+08
1.70441e+08
1.54488e+08
1.28809e+08
1.03367e+08
1.02883e+08
1.06073e+08
1.1536e+08
1.0391e+08
5.64253e+08
6.21439e+08
6.29776e+08
6.55852e+08
2.229e+08
1.75316e+08
1.77337e+08
1.77585e+08
1.16874e+08
1.30235e+08
1.46506e+08
1.56826e+08
1.55428e+08
1.48585e+08
1.33592e+08
1.20915e+08
1.21988e+08
1.22418e+08
1.29496e+08
1.03013e+08
5.25876e+08
5.22016e+08
4.59655e+08
2.82777e+08
1.7335e+08
1.74289e+08
1.78603e+08
1.79846e+08
1.37479e+08
9.3741e+07
9.75444e+07
1.141e+08
1.37367e+08
1.50518e+08
1.48656e+08
1.4671e+08
1.44207e+08
1.40316e+08
1.42996e+08
9.64003e+07
4.66677e+08
4.32607e+08
3.66089e+08
2.55218e+08
1.80991e+08
1.80026e+08
1.80745e+08
1.81806e+08
1.53888e+08
1.00362e+08
9.442e+07
1.04069e+08
1.22192e+08
1.43072e+08
1.58073e+08
1.63056e+08
1.60423e+08
1.5783e+08
1.42411e+08
7.1179e+07
4.0827e+08
3.65971e+08
3.17924e+08
2.41708e+08
1.84047e+08
1.80201e+08
1.79683e+08
1.79656e+08
1.61641e+08
1.18387e+08
1.05692e+08
9.98938e+07
1.09094e+08
1.30471e+08
1.48614e+08
1.5865e+08
1.62303e+08
1.45987e+08
9.3062e+07
3.30294e+07
3.54264e+08
3.17662e+08
2.8757e+08
2.32248e+08
1.81478e+08
1.75639e+08
1.741e+08
1.72549e+08
1.5882e+08
1.41874e+08
1.26005e+08
1.11717e+08
9.61846e+07
1.04047e+08
1.20371e+08
1.30057e+08
1.19872e+08
8.28513e+07
3.52866e+07
2.83258e+06
3.04256e+08
2.78153e+08
2.62989e+08
2.22433e+08
1.75008e+08
1.65765e+08
1.61436e+08
1.56124e+08
1.50108e+08
1.51766e+08
1.46303e+08
1.35452e+08
1.07315e+08
9.70153e+07
1.00794e+08
8.81425e+07
5.94493e+07
2.23641e+07
1.8684e+06
309987
2.55765e+08
2.40543e+08
2.37352e+08
2.07677e+08
1.64583e+08
1.50259e+08
1.39666e+08
1.3011e+08
1.33255e+08
1.48553e+08
1.60194e+08
1.5352e+08
1.24017e+08
1.01625e+08
7.91312e+07
3.91986e+07
8.61067e+06
728498
307314
306250
2.01815e+08
1.98503e+08
2.03708e+08
1.79809e+08
1.42037e+08
1.22917e+08
1.07961e+08
1.0378e+08
1.20073e+08
1.4618e+08
1.64765e+08
1.62656e+08
1.32983e+08
8.91239e+07
3.95833e+07
3.43424e+06
349069
306330
306250
306250
1.49841e+08
1.51885e+08
1.60395e+08
1.39624e+08
1.13013e+08
9.8919e+07
9.49467e+07
1.02852e+08
1.21537e+08
1.43921e+08
1.61641e+08
1.64869e+08
1.21512e+08
6.01991e+07
8.83284e+06
351488
306252
306250
306250
306250
1.34802e+08
1.27967e+08
1.36603e+08
1.23689e+08
1.08309e+08
9.878e+07
9.88938e+07
1.06074e+08
1.22424e+08
1.40564e+08
1.58681e+08
1.46941e+08
8.33248e+07
2.2661e+07
742805
306336
306250
306250
306250
306250
1.35731e+08
1.29914e+08
1.36848e+08
1.24757e+08
1.08054e+08
1.01554e+08
1.04038e+08
1.15393e+08
1.29832e+08
1.4355e+08
1.42943e+08
9.32874e+07
3.54969e+07
1.8964e+06
307359
306250
306250
306250
306250
306250
1.2441e+08
1.16523e+08
1.19675e+08
1.11064e+08
9.98101e+07
9.77723e+07
1.00618e+08
1.04203e+08
1.03452e+08
9.68662e+07
7.14822e+07
3.32142e+07
2.86604e+06
310110
306250
306250
306250
306250
306250
306250
4.17318e+08
4.2466e+08
4.51475e+08
4.65871e+08
5.021e+08
5.24666e+08
5.41377e+08
5.59055e+08
5.61456e+08
5.18143e+08
4.56959e+08
3.97827e+08
3.45316e+08
2.98848e+08
2.55298e+08
2.06384e+08
1.55189e+08
1.37423e+08
1.39217e+08
1.27199e+08
4.24276e+08
4.36123e+08
4.68435e+08
4.94665e+08
5.50187e+08
5.95319e+08
6.3711e+08
6.58224e+08
6.05611e+08
5.01796e+08
4.09827e+08
3.45125e+08
3.00727e+08
2.66364e+08
2.34689e+08
1.98534e+08
1.55499e+08
1.30382e+08
1.32696e+08
1.20121e+08
4.50815e+08
4.67776e+08
5.02889e+08
5.30286e+08
5.91677e+08
6.57131e+08
7.20967e+08
7.3757e+08
6.11744e+08
4.3315e+08
3.39637e+08
2.95336e+08
2.69612e+08
2.49694e+08
2.28909e+08
2.00344e+08
1.60814e+08
1.37144e+08
1.38452e+08
1.2318e+08
4.6478e+08
4.92581e+08
5.28902e+08
5.38114e+08
5.79266e+08
6.79949e+08
7.69663e+08
8.36891e+08
6.5732e+08
2.64056e+08
2.36303e+08
2.23708e+08
2.15711e+08
2.08576e+08
1.98252e+08
1.76639e+08
1.40543e+08
1.23254e+08
1.26336e+08
1.13962e+08
5.00259e+08
5.46701e+08
5.87225e+08
5.85505e+08
2.10742e+08
1.57486e+08
1.6727e+08
1.71184e+08
1.70214e+08
1.65816e+08
1.58625e+08
1.40954e+08
1.13478e+08
1.08614e+08
1.10389e+08
1.02448e+08
5.2291e+08
5.92533e+08
6.52619e+08
6.69696e+08
1.65556e+08
1.63271e+08
1.68963e+08
1.70679e+08
1.69065e+08
1.618e+08
1.4856e+08
1.24347e+08
9.90648e+07
9.88667e+07
1.02571e+08
9.96601e+07
5.40327e+08
6.3473e+08
7.1732e+08
7.64789e+08
1.70304e+08
1.71256e+08
1.72712e+08
1.72399e+08
1.68781e+08
1.58868e+08
1.40811e+08
1.116e+08
9.42465e+07
9.84003e+07
1.03782e+08
1.02304e+08
5.58153e+08
6.5674e+08
7.3547e+08
8.32915e+08
1.73264e+08
1.7285e+08
1.75564e+08
1.73797e+08
1.69205e+08
1.56353e+08
1.33424e+08
1.05573e+08
9.99588e+07
1.0494e+08
1.13131e+08
1.07503e+08
5.61797e+08
6.05388e+08
6.10882e+08
6.44172e+08
2.07499e+08
1.6247e+08
1.6898e+08
1.76878e+08
1.0323e+08
1.20444e+08
1.4118e+08
1.54092e+08
1.53756e+08
1.46671e+08
1.32525e+08
1.16536e+08
1.18526e+08
1.20557e+08
1.29181e+08
1.10384e+08
5.19281e+08
5.02493e+08
4.324e+08
2.63096e+08
1.5706e+08
1.61184e+08
1.71032e+08
1.74118e+08
1.27378e+08
8.4811e+07
8.86718e+07
1.04994e+08
1.25799e+08
1.42646e+08
1.42657e+08
1.41413e+08
1.41695e+08
1.40297e+08
1.46856e+08
1.08365e+08
4.58493e+08
4.10283e+08
3.38689e+08
2.34113e+08
1.65139e+08
1.6751e+08
1.7327e+08
1.76259e+08
1.4738e+08
9.1923e+07
8.07238e+07
9.18991e+07
1.13386e+08
1.35725e+08
1.51987e+08
1.60765e+08
1.61024e+08
1.60777e+08
1.58304e+08
8.62021e+07
3.99286e+08
3.45242e+08
2.94277e+08
2.21365e+08
1.68893e+08
1.69282e+08
1.72874e+08
1.7418e+08
1.57017e+08
1.09344e+08
9.34638e+07
9.26042e+07
1.04663e+08
1.29841e+08
1.5228e+08
1.63211e+08
1.69421e+08
1.63681e+08
1.16292e+08
4.53615e+07
3.46575e+08
3.00733e+08
2.68699e+08
2.13842e+08
1.68067e+08
1.67728e+08
1.69144e+08
1.68839e+08
1.55063e+08
1.30042e+08
1.16904e+08
1.07107e+08
1.02748e+08
1.12624e+08
1.29775e+08
1.42731e+08
1.39439e+08
1.03678e+08
5.14117e+07
7.14199e+06
2.9996e+08
2.66569e+08
2.48907e+08
2.07172e+08
1.6412e+08
1.60691e+08
1.59055e+08
1.55442e+08
1.46642e+08
1.44334e+08
1.39202e+08
1.33618e+08
1.13452e+08
1.00676e+08
1.08777e+08
1.00618e+08
7.5497e+07
3.65942e+07
5.16272e+06
342063
2.56274e+08
2.35343e+08
2.28463e+08
1.97316e+08
1.57433e+08
1.47795e+08
1.40665e+08
1.32529e+08
1.31841e+08
1.434e+08
1.54505e+08
1.55065e+08
1.30246e+08
1.08405e+08
8.75421e+07
5.5199e+07
1.78317e+07
1.92015e+06
318080
306251
2.07209e+08
1.99548e+08
2.00424e+08
1.76225e+08
1.40232e+08
1.24011e+08
1.11486e+08
1.0531e+08
1.16336e+08
1.41765e+08
1.62331e+08
1.6481e+08
1.42052e+08
9.94497e+07
5.47655e+07
8.81928e+06
561633
307387
306250
306250
1.55701e+08
1.56417e+08
1.61346e+08
1.40664e+08
1.13262e+08
9.90443e+07
9.42139e+07
9.99989e+07
1.1867e+08
1.42015e+08
1.61732e+08
1.69707e+08
1.37101e+08
7.4006e+07
1.68603e+07
530088
306304
306250
306250
306250
1.37717e+08
1.30855e+08
1.3783e+08
1.23565e+08
1.08559e+08
9.88486e+07
9.83682e+07
1.05046e+08
1.20893e+08
1.40593e+08
1.60919e+08
1.62332e+08
1.01083e+08
3.5055e+07
1.71802e+06
307118
306250
306250
306250
306250
1.39464e+08
1.33077e+08
1.39018e+08
1.26729e+08
1.1044e+08
1.0261e+08
1.03683e+08
1.13207e+08
1.29447e+08
1.46978e+08
1.57727e+08
1.14151e+08
5.00211e+07
4.69598e+06
315683
306250
306250
306250
306250
306250
1.27334e+08
1.20372e+08
1.23474e+08
1.14283e+08
1.0251e+08
9.96222e+07
1.02268e+08
1.07584e+08
1.10344e+08
1.08229e+08
8.55487e+07
4.46529e+07
6.66596e+06
336070
306251
306250
306250
306250
306250
306250
4.20332e+08
4.29889e+08
4.5716e+08
4.72374e+08
5.09944e+08
5.33094e+08
5.51427e+08
5.6979e+08
5.68431e+08
5.21601e+08
4.59273e+08
4.00392e+08
3.48586e+08
3.02207e+08
2.59123e+08
2.13402e+08
1.6295e+08
1.41081e+08
1.44146e+08
1.32731e+08
4.29514e+08
4.43251e+08
4.74863e+08
5.00474e+08
5.55682e+08
5.99209e+08
6.41793e+08
6.60369e+08
5.98773e+08
4.95916e+08
4.07225e+08
3.46773e+08
3.05461e+08
2.72578e+08
2.41695e+08
2.07563e+08
1.65708e+08
1.35649e+08
1.36797e+08
1.26287e+08
4.56408e+08
4.73873e+08
5.07006e+08
5.32358e+08
5.91929e+08
6.55626e+08
7.18502e+08
7.30391e+08
5.96996e+08
4.20781e+08
3.32882e+08
2.94011e+08
2.72253e+08
2.55596e+08
2.38444e+08
2.14209e+08
1.77131e+08
1.48229e+08
1.47504e+08
1.31725e+08
4.70978e+08
4.96993e+08
5.2816e+08
5.40617e+08
5.81324e+08
6.80844e+08
7.7589e+08
8.4125e+08
6.36903e+08
2.55883e+08
2.33193e+08
2.23242e+08
2.17162e+08
2.12451e+08
2.06284e+08
1.91271e+08
1.59384e+08
1.36656e+08
1.38979e+08
1.25053e+08
5.083e+08
5.51478e+08
5.85221e+08
5.82097e+08
1.93937e+08
1.56921e+08
1.71889e+08
1.78078e+08
1.79887e+08
1.76426e+08
1.6999e+08
1.56169e+08
1.29183e+08
1.19016e+08
1.22979e+08
1.12396e+08
5.31763e+08
5.96133e+08
6.5032e+08
6.69648e+08
1.56542e+08
1.66266e+08
1.74749e+08
1.80691e+08
1.8141e+08
1.7606e+08
1.63611e+08
1.41827e+08
1.13048e+08
1.08005e+08
1.1422e+08
1.09204e+08
5.51613e+08
6.40794e+08
7.1577e+08
7.70234e+08
1.66161e+08
1.75668e+08
1.78814e+08
1.80086e+08
1.78574e+08
1.71257e+08
1.55541e+08
1.29175e+08
1.05194e+08
1.07583e+08
1.14671e+08
1.1195e+08
5.69295e+08
6.60751e+08
7.32493e+08
8.39326e+08
1.70491e+08
1.73957e+08
1.77738e+08
1.77698e+08
1.75116e+08
1.6575e+08
1.46744e+08
1.20261e+08
1.08117e+08
1.14979e+08
1.22866e+08
1.18818e+08
5.70841e+08
6.05366e+08
6.06299e+08
6.48577e+08
1.9571e+08
1.54823e+08
1.66141e+08
1.70674e+08
9.43061e+07
1.19875e+08
1.43126e+08
1.56168e+08
1.56378e+08
1.51158e+08
1.40514e+08
1.25013e+08
1.2702e+08
1.314e+08
1.40659e+08
1.23725e+08
5.2567e+08
5.01377e+08
4.24496e+08
2.52724e+08
1.48141e+08
1.63409e+08
1.74661e+08
1.74408e+08
1.22137e+08
8.373e+07
8.83458e+07
1.03985e+08
1.22141e+08
1.41817e+08
1.46352e+08
1.47984e+08
1.52242e+08
1.54885e+08
1.60523e+08
1.22059e+08
4.63113e+08
4.09989e+08
3.31772e+08
2.27226e+08
1.62528e+08
1.70145e+08
1.76816e+08
1.78685e+08
1.47185e+08
9.11034e+07
7.60111e+07
8.66499e+07
1.10816e+08
1.37037e+08
1.56579e+08
1.70825e+08
1.76354e+08
1.76255e+08
1.72942e+08
1.03149e+08
4.03026e+08
3.47322e+08
2.91221e+08
2.17606e+08
1.69567e+08
1.75311e+08
1.77811e+08
1.78485e+08
1.61214e+08
1.09496e+08
8.89865e+07
9.14123e+07
1.05747e+08
1.35069e+08
1.65093e+08
1.80225e+08
1.85897e+08
1.80457e+08
1.42531e+08
6.04232e+07
3.49908e+08
3.04694e+08
2.69202e+08
2.1271e+08
1.72716e+08
1.76107e+08
1.76328e+08
1.75889e+08
1.61304e+08
1.29333e+08
1.16207e+08
1.08954e+08
1.14137e+08
1.28536e+08
1.47031e+08
1.58016e+08
1.56667e+08
1.28022e+08
7.09628e+07
1.72751e+07
3.02649e+08
2.71163e+08
2.5256e+08
2.0894e+08
1.70413e+08
1.71255e+08
1.69307e+08
1.66275e+08
1.55213e+08
1.48906e+08
1.43358e+08
1.40064e+08
1.28437e+08
1.07342e+08
1.14133e+08
1.12161e+08
9.3011e+07
5.58063e+07
1.42194e+07
651933
2.59154e+08
2.40195e+08
2.35605e+08
2.03491e+08
1.64848e+08
1.59598e+08
1.53867e+08
1.47118e+08
1.43824e+08
1.51471e+08
1.61901e+08
1.68416e+08
1.45396e+08
1.12907e+08
9.53202e+07
7.15715e+07
3.38608e+07
6.5034e+06
444882
306307
2.13258e+08
2.06385e+08
2.11915e+08
1.89267e+08
1.51908e+08
1.38652e+08
1.27814e+08
1.20694e+08
1.27176e+08
1.51349e+08
1.74068e+08
1.81132e+08
1.55449e+08
1.09825e+08
7.08887e+07
2.23638e+07
1.79152e+06
326076
306259
306250
1.62802e+08
1.64954e+08
1.75518e+08
1.58149e+08
1.26081e+08
1.10847e+08
1.04167e+08
1.08249e+08
1.28587e+08
1.54084e+08
1.77545e+08
1.8527e+08
1.53242e+08
9.03364e+07
3.19665e+07
1.59043e+06
307814
306250
306250
306250
1.40929e+08
1.35144e+08
1.4706e+08
1.35792e+08
1.16811e+08
1.06317e+08
1.06638e+08
1.14845e+08
1.32063e+08
1.55472e+08
1.76069e+08
1.7849e+08
1.23927e+08
5.31356e+07
5.57498e+06
320027
306250
306250
306250
306250
1.44061e+08
1.36378e+08
1.46561e+08
1.38241e+08
1.21205e+08
1.12879e+08
1.13563e+08
1.22413e+08
1.4069e+08
1.60305e+08
1.72055e+08
1.39656e+08
6.84946e+07
1.27681e+07
411411
306255
306250
306250
306250
306250
1.3276e+08
1.26267e+08
1.31474e+08
1.24877e+08
1.11656e+08
1.0858e+08
1.11411e+08
1.18472e+08
1.23298e+08
1.21529e+08
1.02223e+08
5.92459e+07
1.6075e+07
585058
306288
306250
306250
306250
306250
306250
4.22493e+08
4.30641e+08
4.56455e+08
4.70075e+08
5.07108e+08
5.28541e+08
5.48698e+08
5.6735e+08
5.65777e+08
5.19921e+08
4.60189e+08
4.04379e+08
3.56499e+08
3.14699e+08
2.76349e+08
2.35067e+08
1.84821e+08
1.56344e+08
1.58208e+08
1.42881e+08
4.30258e+08
4.41426e+08
4.70648e+08
4.9182e+08
5.46428e+08
5.87576e+08
6.31082e+08
6.48791e+08
5.85862e+08
4.87267e+08
4.0045e+08
3.43275e+08
3.06445e+08
2.78796e+08
2.53631e+08
2.25526e+08
1.8713e+08
1.51958e+08
1.49948e+08
1.37193e+08
4.55731e+08
4.7055e+08
4.99476e+08
5.17407e+08
5.75608e+08
6.38045e+08
7.01108e+08
7.11917e+08
5.79913e+08
4.05219e+08
3.23181e+08
2.89544e+08
2.71838e+08
2.58671e+08
2.45521e+08
2.27312e+08
1.95551e+08
1.63137e+08
1.6006e+08
1.43182e+08
4.68579e+08
4.90662e+08
5.15856e+08
5.22013e+08
5.6616e+08
6.53169e+08
7.5052e+08
8.13709e+08
5.98188e+08
2.37466e+08
2.22697e+08
2.18781e+08
2.17143e+08
2.15878e+08
2.13238e+08
2.0393e+08
1.77835e+08
1.51625e+08
1.51996e+08
1.36853e+08
5.04539e+08
5.42111e+08
5.68641e+08
5.47033e+08
1.81952e+08
1.51836e+08
1.69064e+08
1.78958e+08
1.84297e+08
1.83722e+08
1.7891e+08
1.68738e+08
1.45401e+08
1.3173e+08
1.36412e+08
1.23449e+08
5.27527e+08
5.85192e+08
6.34518e+08
6.47857e+08
1.65893e+08
1.74678e+08
1.82064e+08
1.89364e+08
1.90509e+08
1.86038e+08
1.74942e+08
1.56404e+08
1.29283e+08
1.20604e+08
1.27771e+08
1.20001e+08
5.48225e+08
6.29825e+08
6.99078e+08
7.47697e+08
1.81003e+08
1.87687e+08
1.89865e+08
1.90621e+08
1.89176e+08
1.82702e+08
1.68868e+08
1.45747e+08
1.20609e+08
1.20363e+08
1.28484e+08
1.22467e+08
5.67722e+08
6.4941e+08
7.1276e+08
8.11045e+08
1.82711e+08
1.88731e+08
1.92027e+08
1.93002e+08
1.90651e+08
1.82166e+08
1.64796e+08
1.39483e+08
1.22887e+08
1.28861e+08
1.36567e+08
1.29905e+08
5.68094e+08
5.9087e+08
5.86308e+08
6.11096e+08
1.80731e+08
1.61827e+08
1.77165e+08
1.8133e+08
1.01478e+08
1.31482e+08
1.57364e+08
1.74775e+08
1.76688e+08
1.72652e+08
1.62217e+08
1.44102e+08
1.42273e+08
1.47244e+08
1.5482e+08
1.35094e+08
5.23067e+08
4.92083e+08
4.11211e+08
2.41658e+08
1.49059e+08
1.70238e+08
1.84243e+08
1.86439e+08
1.37231e+08
9.70871e+07
1.02882e+08
1.22687e+08
1.43652e+08
1.64607e+08
1.67666e+08
1.66707e+08
1.69982e+08
1.72087e+08
1.74407e+08
1.32969e+08
4.62639e+08
4.03776e+08
3.25977e+08
2.23468e+08
1.6547e+08
1.78154e+08
1.86594e+08
1.89157e+08
1.61821e+08
1.06271e+08
9.18968e+07
1.03582e+08
1.30448e+08
1.58782e+08
1.77489e+08
1.90667e+08
1.95544e+08
1.92257e+08
1.85565e+08
1.15926e+08
4.05991e+08
3.44834e+08
2.90184e+08
2.1823e+08
1.74908e+08
1.85571e+08
1.87922e+08
1.89616e+08
1.76579e+08
1.27426e+08
1.05951e+08
1.08909e+08
1.24047e+08
1.54157e+08
1.84457e+08
1.99511e+08
2.02638e+08
1.95332e+08
1.60772e+08
7.38901e+07
3.57498e+08
3.06893e+08
2.71439e+08
2.16044e+08
1.8037e+08
1.86783e+08
1.86763e+08
1.87652e+08
1.77267e+08
1.48342e+08
1.34647e+08
1.26936e+08
1.32376e+08
1.45396e+08
1.63895e+08
1.73508e+08
1.71411e+08
1.45696e+08
8.84815e+07
2.78842e+07
3.15383e+08
2.7863e+08
2.5776e+08
2.14471e+08
1.79909e+08
1.82337e+08
1.80489e+08
1.79348e+08
1.71951e+08
1.6705e+08
1.62366e+08
1.58434e+08
1.46048e+08
1.17668e+08
1.21957e+08
1.22708e+08
1.07335e+08
7.20729e+07
2.52887e+07
1.55748e+06
2.76958e+08
2.53293e+08
2.44404e+08
2.11571e+08
1.75321e+08
1.71435e+08
1.66629e+08
1.62116e+08
1.60846e+08
1.68262e+08
1.79668e+08
1.87305e+08
1.63507e+08
1.21206e+08
1.0434e+08
8.56594e+07
4.92964e+07
1.34696e+07
886264
306964
2.35752e+08
2.25364e+08
2.26433e+08
2.0232e+08
1.65598e+08
1.53352e+08
1.4335e+08
1.3713e+08
1.42457e+08
1.66053e+08
1.91148e+08
2.00323e+08
1.72548e+08
1.21558e+08
8.51557e+07
3.77672e+07
4.77185e+06
419893
306383
306250
1.85585e+08
1.87338e+08
1.95185e+08
1.76667e+08
1.42967e+08
1.26793e+08
1.18323e+08
1.21003e+08
1.40774e+08
1.68713e+08
1.94792e+08
2.02346e+08
1.69804e+08
1.05484e+08
4.77668e+07
4.40028e+06
321778
306256
306250
306250
1.56773e+08
1.52261e+08
1.62971e+08
1.50709e+08
1.29767e+08
1.18461e+08
1.18302e+08
1.27083e+08
1.45595e+08
1.70385e+08
1.91238e+08
1.94508e+08
1.43464e+08
6.97799e+07
1.22535e+07
396430
306254
306250
306250
306250
1.58623e+08
1.50186e+08
1.60026e+08
1.51254e+08
1.34833e+08
1.25942e+08
1.26712e+08
1.35011e+08
1.53232e+08
1.73143e+08
1.85162e+08
1.59661e+08
8.65093e+07
2.35382e+07
788268
306343
306250
306250
306250
306250
1.43208e+08
1.3758e+08
1.43513e+08
1.36862e+08
1.2286e+08
1.19221e+08
1.2163e+08
1.29072e+08
1.34453e+08
1.32872e+08
1.15913e+08
7.30974e+07
2.6721e+07
1.39819e+06
306786
306250
306250
306250
306250
306250
4.16147e+08
4.23843e+08
4.50744e+08
4.62615e+08
4.99137e+08
5.21277e+08
5.42668e+08
5.62211e+08
5.60167e+08
5.14969e+08
4.57437e+08
4.0519e+08
3.62432e+08
3.26387e+08
2.93034e+08
2.55357e+08
2.05555e+08
1.71463e+08
1.70825e+08
1.50202e+08
4.23456e+08
4.35001e+08
4.64963e+08
4.84424e+08
5.38927e+08
5.80414e+08
6.2437e+08
6.42138e+08
5.76751e+08
4.78369e+08
3.91215e+08
3.37789e+08
3.06985e+08
2.86218e+08
2.67494e+08
2.44194e+08
2.08229e+08
1.69764e+08
1.64108e+08
1.46509e+08
4.4992e+08
4.63911e+08
4.92267e+08
5.09107e+08
5.67289e+08
6.32175e+08
6.94607e+08
7.04573e+08
5.70671e+08
3.9267e+08
3.11387e+08
2.81774e+08
2.69788e+08
2.63307e+08
2.57247e+08
2.45423e+08
2.17624e+08
1.83313e+08
1.77206e+08
1.54212e+08
4.60849e+08
4.80782e+08
5.0568e+08
5.10366e+08
5.41243e+08
6.4365e+08
7.40941e+08
8.00649e+08
5.88891e+08
2.30538e+08
2.1429e+08
2.11865e+08
2.14157e+08
2.18796e+08
2.23104e+08
2.20882e+08
1.99958e+08
1.72358e+08
1.70114e+08
1.49127e+08
4.97302e+08
5.34509e+08
5.61114e+08
5.40923e+08
1.75119e+08
1.50552e+08
1.65094e+08
1.77272e+08
1.84067e+08
1.87475e+08
1.87847e+08
1.83095e+08
1.63668e+08
1.49068e+08
1.52381e+08
1.34293e+08
5.20263e+08
5.77962e+08
6.27473e+08
6.36728e+08
1.67624e+08
1.761e+08
1.82426e+08
1.92187e+08
1.94865e+08
1.93621e+08
1.86614e+08
1.71923e+08
1.46312e+08
1.36459e+08
1.42518e+08
1.29847e+08
5.42316e+08
6.23154e+08
6.9252e+08
7.38697e+08
1.88376e+08
1.94333e+08
1.96214e+08
1.99765e+08
1.99953e+08
1.9598e+08
1.84515e+08
1.62556e+08
1.36849e+08
1.35819e+08
1.42927e+08
1.31721e+08
5.61975e+08
6.42196e+08
7.04857e+08
7.99766e+08
1.97752e+08
2.05082e+08
2.07571e+08
2.10383e+08
2.0924e+08
2.0222e+08
1.85008e+08
1.58288e+08
1.39572e+08
1.45044e+08
1.50811e+08
1.38403e+08
5.61855e+08
5.8033e+08
5.75085e+08
5.93746e+08
1.75488e+08
1.64432e+08
1.82937e+08
1.93814e+08
1.2066e+08
1.545e+08
1.81846e+08
1.99519e+08
2.01821e+08
1.97599e+08
1.85751e+08
1.64576e+08
1.61089e+08
1.64543e+08
1.68142e+08
1.41987e+08
5.18295e+08
4.83059e+08
3.98684e+08
2.35068e+08
1.52296e+08
1.74318e+08
1.90284e+08
2.00217e+08
1.59599e+08
1.17998e+08
1.25243e+08
1.47731e+08
1.70175e+08
1.9101e+08
1.92526e+08
1.89198e+08
1.90005e+08
1.87652e+08
1.84392e+08
1.38095e+08
4.61255e+08
3.96391e+08
3.16559e+08
2.17813e+08
1.66221e+08
1.80367e+08
1.92571e+08
2.02527e+08
1.83963e+08
1.28095e+08
1.12574e+08
1.25702e+08
1.54025e+08
1.828e+08
2.00481e+08
2.1103e+08
2.11905e+08
2.03488e+08
1.92334e+08
1.21848e+08
4.08915e+08
3.42193e+08
2.85589e+08
2.14122e+08
1.76499e+08
1.89664e+08
1.97005e+08
2.05359e+08
1.98604e+08
1.50411e+08
1.27388e+08
1.29076e+08
1.4336e+08
1.72899e+08
2.01504e+08
2.13566e+08
2.13212e+08
2.03144e+08
1.68859e+08
8.12619e+07
3.65771e+08
3.10464e+08
2.72614e+08
2.15635e+08
1.82855e+08
1.92204e+08
1.97471e+08
2.04606e+08
1.99659e+08
1.72248e+08
1.56463e+08
1.45401e+08
1.4749e+08
1.5615e+08
1.72804e+08
1.8166e+08
1.78986e+08
1.5389e+08
9.77574e+07
3.40767e+07
3.29307e+08
2.88983e+08
2.65564e+08
2.1998e+08
1.8607e+08
1.91074e+08
1.93846e+08
1.97854e+08
1.94356e+08
1.90796e+08
1.84834e+08
1.76391e+08
1.57387e+08
1.2219e+08
1.25562e+08
1.28263e+08
1.1478e+08
8.09541e+07
3.21814e+07
2.39889e+06
2.95595e+08
2.6976e+08
2.59149e+08
2.24211e+08
1.8669e+08
1.84511e+08
1.82666e+08
1.81268e+08
1.82441e+08
1.91139e+08
2.01809e+08
2.045e+08
1.73587e+08
1.25258e+08
1.09326e+08
9.32831e+07
5.80578e+07
1.82223e+07
1.3406e+06
308272
2.57698e+08
2.46196e+08
2.47154e+08
2.22023e+08
1.82537e+08
1.70516e+08
1.61098e+08
1.55873e+08
1.62076e+08
1.8758e+08
2.11597e+08
2.15348e+08
1.81734e+08
1.27558e+08
9.29594e+07
4.69774e+07
7.35074e+06
535629
306652
306250
2.07593e+08
2.101e+08
2.19346e+08
2.01246e+08
1.63789e+08
1.45538e+08
1.35702e+08
1.38174e+08
1.59279e+08
1.88778e+08
2.12169e+08
2.14045e+08
1.78259e+08
1.13515e+08
5.68707e+07
6.96333e+06
348142
306272
306250
306250
1.72574e+08
1.71044e+08
1.84518e+08
1.73181e+08
1.48963e+08
1.35533e+08
1.3459e+08
1.43811e+08
1.6334e+08
1.87003e+08
2.03665e+08
2.03315e+08
1.52641e+08
7.91801e+07
1.70485e+07
502390
306266
306250
306250
306250
1.7167e+08
1.64839e+08
1.77966e+08
1.70617e+08
1.52122e+08
1.41655e+08
1.42046e+08
1.50027e+08
1.67476e+08
1.8427e+08
1.92822e+08
1.68707e+08
9.6363e+07
3.05855e+07
1.21603e+06
306563
306250
306250
306250
306250
1.50675e+08
1.47094e+08
1.54826e+08
1.49543e+08
1.34193e+08
1.29562e+08
1.31529e+08
1.38381e+08
1.42376e+08
1.38917e+08
1.22473e+08
8.08456e+07
3.31176e+07
2.21825e+06
307916
306250
306250
306250
306250
306250
4.16153e+08
4.23864e+08
4.50816e+08
4.62739e+08
4.99423e+08
5.21757e+08
5.4303e+08
5.62379e+08
5.60001e+08
5.14833e+08
4.57402e+08
4.05229e+08
3.62501e+08
3.26465e+08
2.93127e+08
2.5551e+08
2.05751e+08
1.71616e+08
1.70949e+08
1.5028e+08
4.2353e+08
4.35114e+08
4.65003e+08
4.84192e+08
5.39354e+08
5.81084e+08
6.2518e+08
6.42206e+08
5.76249e+08
4.78233e+08
3.91729e+08
3.38424e+08
3.07543e+08
2.86672e+08
2.67856e+08
2.44509e+08
2.08535e+08
1.70022e+08
1.64312e+08
1.46624e+08
4.50031e+08
4.64127e+08
4.92325e+08
5.0808e+08
5.67945e+08
6.33349e+08
6.95808e+08
7.044e+08
5.70258e+08
3.93399e+08
3.12708e+08
2.82833e+08
2.70497e+08
2.63862e+08
2.57732e+08
2.45867e+08
2.18057e+08
1.83662e+08
1.77477e+08
1.54348e+08
4.60859e+08
4.81083e+08
5.06606e+08
5.10544e+08
5.3678e+08
6.45808e+08
7.39824e+08
8.01384e+08
5.87198e+08
2.31673e+08
2.16247e+08
2.13357e+08
2.14951e+08
2.19217e+08
2.23385e+08
2.21169e+08
2.00351e+08
1.72681e+08
1.70354e+08
1.49257e+08
4.97074e+08
5.34063e+08
5.60015e+08
5.42267e+08
1.77288e+08
1.50567e+08
1.65627e+08
1.7771e+08
1.84509e+08
1.87875e+08
1.88165e+08
1.83444e+08
1.64147e+08
1.49404e+08
1.52659e+08
1.34452e+08
5.19976e+08
5.77486e+08
6.26346e+08
6.31291e+08
1.61601e+08
1.72704e+08
1.79946e+08
1.9103e+08
1.94208e+08
1.93518e+08
1.86797e+08
1.72276e+08
1.46701e+08
1.36575e+08
1.42554e+08
1.29811e+08
5.42207e+08
6.22763e+08
6.91774e+08
7.34993e+08
1.82338e+08
1.91436e+08
1.9394e+08
1.9851e+08
1.99004e+08
1.95442e+08
1.84277e+08
1.62557e+08
1.36816e+08
1.35642e+08
1.42775e+08
1.31591e+08
5.615e+08
6.41481e+08
7.04107e+08
8.0043e+08
2.03146e+08
2.02902e+08
2.0541e+08
2.08465e+08
2.0742e+08
2.00526e+08
1.83591e+08
1.57346e+08
1.39103e+08
1.44669e+08
1.50491e+08
1.38203e+08
5.61513e+08
5.80661e+08
5.7598e+08
6.02242e+08
1.74785e+08
1.64384e+08
1.81688e+08
1.98389e+08
1.28145e+08
1.55864e+08
1.8201e+08
1.98689e+08
2.00421e+08
1.95758e+08
1.83811e+08
1.63086e+08
1.60159e+08
1.63815e+08
1.67632e+08
1.41692e+08
5.18043e+08
4.83102e+08
3.98874e+08
2.33688e+08
1.50346e+08
1.73729e+08
1.90237e+08
2.00579e+08
1.57517e+08
1.17536e+08
1.2559e+08
1.47881e+08
1.69613e+08
1.8941e+08
1.90727e+08
1.87669e+08
1.88801e+08
1.86747e+08
1.8375e+08
1.37773e+08
4.61023e+08
3.96197e+08
3.16313e+08
2.17539e+08
1.65903e+08
1.8063e+08
1.92564e+08
2.02909e+08
1.82269e+08
1.26583e+08
1.11857e+08
1.25046e+08
1.53436e+08
1.82024e+08
1.99593e+08
2.10087e+08
2.1097e+08
2.0261e+08
1.91726e+08
1.21492e+08
4.08745e+08
3.42026e+08
2.85442e+08
2.14576e+08
1.77245e+08
1.90361e+08
1.97002e+08
2.05714e+08
1.9765e+08
1.48604e+08
1.26093e+08
1.28252e+08
1.43041e+08
1.73145e+08
2.01671e+08
2.13394e+08
2.12787e+08
2.02567e+08
1.68244e+08
8.07959e+07
3.65675e+08
3.10416e+08
2.72665e+08
2.16355e+08
1.83797e+08
1.93032e+08
1.9748e+08
2.04793e+08
1.98909e+08
1.70478e+08
1.55092e+08
1.44543e+08
1.47825e+08
1.57044e+08
1.73364e+08
1.81873e+08
1.78864e+08
1.53446e+08
9.71514e+07
3.36177e+07
3.2926e+08
2.89041e+08
2.65778e+08
2.20769e+08
1.86969e+08
1.92022e+08
1.94054e+08
1.98086e+08
1.93929e+08
1.89961e+08
1.83959e+08
1.75906e+08
1.57958e+08
1.22854e+08
1.25809e+08
1.28343e+08
1.14644e+08
8.05978e+07
3.17015e+07
2.32441e+06
2.95544e+08
2.69853e+08
2.59453e+08
2.25004e+08
1.87342e+08
1.85425e+08
1.83179e+08
1.81786e+08
1.82617e+08
1.91166e+08
2.01635e+08
2.0429e+08
1.73757e+08
1.2524e+08
1.0926e+08
9.32238e+07
5.79153e+07
1.79786e+07
1.30392e+06
308124
2.57613e+08
2.4624e+08
2.47425e+08
2.22785e+08
1.82938e+08
1.71343e+08
1.61952e+08
1.56746e+08
1.63033e+08
1.88347e+08
2.11747e+08
2.15044e+08
1.81428e+08
1.27275e+08
9.27878e+07
4.68824e+07
7.27986e+06
528377
306623
306250
2.07462e+08
2.10042e+08
2.19486e+08
2.01917e+08
1.64038e+08
1.46241e+08
1.36633e+08
1.39247e+08
1.60554e+08
1.89516e+08
2.12194e+08
2.13575e+08
1.77703e+08
1.13193e+08
5.67958e+07
6.95745e+06
347635
306271
306250
306250
1.72483e+08
1.70946e+08
1.84558e+08
1.73638e+08
1.49176e+08
1.36099e+08
1.3543e+08
1.44797e+08
1.64218e+08
1.87486e+08
2.03444e+08
2.02626e+08
1.52055e+08
7.90594e+07
1.70682e+07
503065
306267
306250
306250
306250
1.71605e+08
1.64772e+08
1.77982e+08
1.70953e+08
1.52424e+08
1.42184e+08
1.42656e+08
1.50663e+08
1.67989e+08
1.8433e+08
1.92325e+08
1.68018e+08
9.60933e+07
3.05941e+07
1.21809e+06
306565
306250
306250
306250
306250
1.50654e+08
1.47064e+08
1.54826e+08
1.49738e+08
1.34479e+08
1.29821e+08
1.31714e+08
1.38516e+08
1.42284e+08
1.38569e+08
1.22028e+08
8.05978e+07
3.30695e+07
2.21671e+06
307916
306250
306250
306250
306250
306250
4.22457e+08
4.30713e+08
4.56765e+08
4.70684e+08
5.07428e+08
5.29348e+08
5.4906e+08
5.67973e+08
5.65142e+08
5.18767e+08
4.59247e+08
4.03797e+08
3.56227e+08
3.1461e+08
2.76352e+08
2.35107e+08
1.84906e+08
1.56512e+08
1.58394e+08
1.4303e+08
4.30227e+08
4.41602e+08
4.71421e+08
4.93417e+08
5.47582e+08
5.88838e+08
6.32118e+08
6.49133e+08
5.83335e+08
4.85158e+08
3.99404e+08
3.43028e+08
3.06538e+08
2.78934e+08
2.53719e+08
2.25596e+08
1.87234e+08
1.52167e+08
1.50221e+08
1.37409e+08
4.55638e+08
4.70374e+08
4.99757e+08
5.17943e+08
5.76954e+08
6.40647e+08
7.02913e+08
7.11715e+08
5.76358e+08
4.02682e+08
3.22497e+08
2.89663e+08
2.72046e+08
2.58739e+08
2.454e+08
2.27133e+08
1.9545e+08
1.63191e+08
1.60218e+08
1.43353e+08
4.68195e+08
4.8951e+08
5.1543e+08
5.13694e+08
5.44111e+08
6.5078e+08
7.44219e+08
8.04501e+08
5.8849e+08
2.36516e+08
2.2292e+08
2.19185e+08
2.17159e+08
2.15446e+08
2.12418e+08
2.02981e+08
1.77071e+08
1.51154e+08
1.51697e+08
1.36805e+08
5.04327e+08
5.40941e+08
5.66556e+08
5.44201e+08
1.72332e+08
1.51239e+08
1.68605e+08
1.788e+08
1.84129e+08
1.83268e+08
1.77923e+08
1.67476e+08
1.443e+08
1.30952e+08
1.35893e+08
1.23242e+08
5.27053e+08
5.84202e+08
6.32119e+08
6.32685e+08
1.65343e+08
1.72689e+08
1.8063e+08
1.88839e+08
1.90146e+08
1.85582e+08
1.74183e+08
1.55458e+08
1.28283e+08
1.19651e+08
1.2699e+08
1.19558e+08
5.47529e+08
6.28645e+08
6.97386e+08
7.37248e+08
1.85114e+08
1.86272e+08
1.8855e+08
1.90168e+08
1.88984e+08
1.82602e+08
1.68543e+08
1.44992e+08
1.1943e+08
1.19195e+08
1.27448e+08
1.21805e+08
5.67591e+08
6.48208e+08
7.10018e+08
7.9949e+08
1.92675e+08
1.86479e+08
1.90127e+08
1.91264e+08
1.89169e+08
1.80872e+08
1.63524e+08
1.38087e+08
1.21493e+08
1.27557e+08
1.35397e+08
1.29017e+08
5.66641e+08
5.8644e+08
5.80177e+08
5.94776e+08
1.71002e+08
1.65509e+08
1.85814e+08
1.94698e+08
1.07328e+08
1.32958e+08
1.58526e+08
1.7479e+08
1.75962e+08
1.71451e+08
1.60759e+08
1.4244e+08
1.40684e+08
1.45663e+08
1.5337e+08
1.33972e+08
5.21013e+08
4.88461e+08
4.06805e+08
2.39576e+08
1.51189e+08
1.72935e+08
1.87015e+08
1.88288e+08
1.34586e+08
9.68034e+07
1.03723e+08
1.23799e+08
1.44387e+08
1.64202e+08
1.66491e+08
1.65032e+08
1.68128e+08
1.70097e+08
1.72709e+08
1.31779e+08
4.61137e+08
4.0168e+08
3.24442e+08
2.23649e+08
1.67977e+08
1.80292e+08
1.88683e+08
1.90838e+08
1.60301e+08
1.04875e+08
9.13726e+07
1.03605e+08
1.31012e+08
1.58985e+08
1.77035e+08
1.89396e+08
1.93681e+08
1.90258e+08
1.83859e+08
1.14616e+08
4.05217e+08
3.44208e+08
2.90241e+08
2.1904e+08
1.77624e+08
1.87955e+08
1.89645e+08
1.91334e+08
1.75924e+08
1.2549e+08
1.04636e+08
1.08358e+08
1.24619e+08
1.55524e+08
1.85034e+08
1.98944e+08
2.01297e+08
1.93477e+08
1.58598e+08
7.26359e+07
3.57327e+08
3.07131e+08
2.72105e+08
2.16816e+08
1.82794e+08
1.89121e+08