/*--------------------------------*- C++ -*----------------------------------*\
  =========                 |
  \\      /  F ield         | OpenFOAM: The Open Source CFD Toolbox
   \\    /   O peration     | Website:  https://openfoam.org
    \\  /    A nd           | Version:  9
     \\/     M anipulation  |
\*---------------------------------------------------------------------------*/
FoamFile
{
    format      ascii;
    class       volVectorField;
    location    "0.0015";
    object      rhoU;
}
// * * * * * * * * * * * * * * * * * * * * * * * * * * * * * * * * * * * * * //

dimensions      [1 -2 -1 0 0 0 0];

internalField   nonuniform List<vector> 
9720
(
(-114651 -114639 -15657.9)
(-90733.5 -131640 -22075.6)
(-72778 -148198 -26931.6)
(-47195.8 -158067 -31840.5)
(-16149.8 -174075 -33526.6)
(20113.3 -181062 -38440.1)
(56459.4 -183283 -39554.1)
(90134.5 -180687 -40709.5)
(121033 -173356 -39645.6)
(139335 -148281 -34661.6)
(142427 -117856 -28222)
(136321 -91403.3 -22272.9)
(124747 -70199.8 -17144)
(110265 -53444.6 -12870.7)
(93942.3 -40029.3 -9365.64)
(74610.1 -28992.5 -6532.9)
(55717.7 -20618 -4511.53)
(49204.2 -17025.4 -3446.43)
(48642.1 -14162.8 -2500.72)
(43397.5 -10677.4 -1889.94)
(-131583 -90616.9 -22108.8)
(-107956 -107842 -31809.3)
(-90218.3 -125260 -38792.9)
(-62716.2 -139606 -45155.9)
(-27051.8 -164936 -48596.5)
(20349.2 -181367 -54499.5)
(68772.6 -190389 -58538.5)
(113390 -189658 -60138.7)
(151274 -163516 -55408.3)
(160651 -115482 -45059.6)
(152813 -77945 -34676.1)
(139228 -53596.7 -26320.4)
(125139 -38671.6 -20030)
(110968 -28749.7 -15093.8)
(96122.5 -21384.7 -11071.9)
(79322.6 -15595.2 -7881.65)
(61037 -11171.5 -5642.82)
(50764.5 -8827.71 -4418.04)
(49295.1 -7217.22 -3166.36)
(42428.9 -5376.9 -2049.36)
(-148039 -72585.4 -26973.7)
(-125237 -89986.5 -38771.3)
(-107663 -107619 -45190.4)
(-79873.7 -123844 -48997.1)
(-41142.2 -156551 -55526.4)
(15806 -180008 -61424.3)
(77437 -192945 -68323.6)
(131676 -190939 -69721.1)
(172340 -139268 -57577.5)
(159898 -72221.3 -40430.6)
(141210 -38877.2 -30098.3)
(128093 -24262.5 -23486.4)
(117787 -17041.4 -18599.4)
(107847 -12588.3 -14535.4)
(96655.1 -9149.59 -11025.8)
(82291.1 -6485.51 -8039.56)
(64805.5 -4742.18 -5714.58)
(54615.4 -3824.57 -4413.89)
(52543.2 -2781.66 -3201.89)
(44169.3 -1763.26 -2111)
(-157656 -46963.6 -31839.5)
(-139101 -62368.1 -44857.2)
(-123409 -79722.7 -48078.1)
(-103042 -102928 -46374.2)
(-70972.4 -131316 -55168.9)
(-7420.36 -167396 -62825.9)
(64720.1 -186317 -71393.4)
(133315 -186598 -76793.7)
(182162 -132749 -62371)
(114442 -10330.5 -21058.6)
(106191 299.83 -18233.3)
(101522 3568.3 -17213.8)
(97367.4 4676.61 -16048.3)
(92275 4962.28 -14252.2)
(84852.1 4760.37 -11996.4)
(72543.5 3984.86 -9530.87)
(56300.1 2883.46 -7251.93)
(49140.1 2469.45 -5937.2)
(47955.1 2235.38 -4302.61)
(41059.4 1772.49 -3212.26)
(-173385 -16133.2 -33564.3)
(-164072 -26962.6 -48261.4)
(-155598 -41054.6 -54028.4)
(-133035 -70758.7 -51411.9)
(94513.2 1746.66 -22713.7)
(70576.5 16787 -12167.8)
(74044.4 18561.2 -12923.9)
(75716.1 18332.9 -13187.4)
(75061.6 16729.8 -12634.5)
(72109.2 14704.7 -11295.2)
(66934.8 12595.7 -9587.46)
(57020.3 10076.4 -7908.7)
(45137.4 7655.84 -6311.62)
(42265.5 6597.71 -5167.24)
(41503.9 5407.08 -3725.41)
(36642 4453.93 -2994.16)
(-180433 19933.6 -38590.6)
(-180664 20055.2 -54760.4)
(-179235 15358.7 -61680.6)
(-166776 -7991.2 -62702.9)
(68741.5 22648.8 -11364.9)
(68655.8 24899.6 -10147.6)
(70830.2 26149.7 -10512.5)
(70862.3 26121.4 -10517.3)
(69235.4 24682 -10169.2)
(65378.6 21955 -9327.05)
(59052.9 18339.8 -8139.22)
(48135.2 13927.6 -6748.21)
(38733.8 10545.9 -5462.71)
(37762.5 8979.57 -4375.36)
(38533.2 7762.92 -3215.44)
(35138.7 6791.07 -2696.42)
(-182639 56187.2 -39771.8)
(-189473 68346.9 -58807)
(-191968 76752.5 -68602.9)
(-185528 63699.2 -71883.6)
(65903.7 30113.4 -9744.08)
(65922.5 31844.6 -8219.52)
(66652.2 33099.4 -8461.45)
(66170.8 32949.4 -8411.46)
(64144.8 31552.3 -8291.32)
(59691.7 28112.8 -7864.23)
(51918.5 22478.3 -6953.18)
(40578.4 16020.8 -5690.03)
(35949.1 12834.2 -4843.26)
(36777.3 11088 -3716.12)
(38635.2 10412.4 -2973.6)
(35026.4 9243.23 -2544.76)
(-180583 89874.7 -40724.4)
(-189216 112901 -60069.6)
(-189921 130960 -69638.3)
(-186468 131850 -77266.5)
(61442.6 35973.7 -7272.38)
(62207.9 35880.8 -6988.8)
(63167.7 36678.6 -7067.5)
(62335.7 36696.2 -7445.57)
(59932.3 35195.3 -7636.27)
(54721.4 30691.7 -7167.14)
(46409.2 23749.5 -6144.12)
(37726.4 17715.4 -4984.65)
(36977.2 15524.2 -4177.61)
(38089.8 13855.4 -3200.25)
(41512.5 14046.4 -3035.71)
(34838.3 11644.1 -2556.51)
(-172768 120826 -39660.9)
(-161542 150446 -55374)
(-136487 170957 -57613.3)
(-124653 177902 -60438)
(2542.76 92117.5 -19289.1)
(22861.6 72674.3 -11461.2)
(31044.7 69240 -9390.69)
(37346.6 64122.4 -6716.28)
(32249.2 33650.8 -3659.06)
(41245 31120.7 -3953.25)
(47581.9 33251.3 -4938.61)
(51363.4 34510.4 -5875.22)
(51426.6 32983.6 -6002.69)
(49879.7 30027.7 -5727.93)
(45203.4 25683.3 -5079.37)
(40721 21829.9 -4155.93)
(41269.8 20064.4 -3491.51)
(42561.1 18585.9 -3096.1)
(44907.9 18680.7 -3345.04)
(31937.9 13789.7 -2646.39)
(-147383 138870 -34740)
(-113869 159645 -45328.9)
(-70349.2 158273 -40932.3)
(-9463.62 113891 -22356.4)
(16947 73242 -13172.7)
(25482.9 70956.1 -10101.3)
(32822 68051.3 -7546.46)
(37021 63519.3 -6207.27)
(32257.5 43612.3 -3452.17)
(26141.3 26615 -2719.16)
(29110.9 24680.1 -3563.21)
(34823.4 26675.9 -3807.42)
(42369.1 30463.9 -4005.65)
(46422.7 32062.6 -4060.01)
(46099.5 30548.1 -3795.71)
(46512.8 28426.5 -3581.8)
(47556.4 25960.8 -3430.98)
(47287.1 24363.8 -3561.03)
(44747.8 23986.6 -4035.2)
(25840.6 14707.5 -2590.51)
(-117122 141944 -28413.3)
(-76960.3 152010 -35127.5)
(-38162.6 140448 -30833.6)
(520.351 106347 -19427.3)
(18703.6 76057.3 -13762.4)
(26725.2 72828.2 -10586.4)
(33628 68545.1 -8051.21)
(37656.6 64140.5 -6429.06)
(34712.6 49973.8 -4276.88)
(24946 30143.5 -3238.3)
(24901.6 25265.8 -2901.5)
(28418 25802.8 -2309.06)
(34333.7 29586.7 -2256.5)
(41522.1 33051.7 -2804.43)
(47552.4 34064.7 -3459.26)
(50569.4 33251.2 -3807.68)
(50217.5 31995.5 -4104.8)
(46560.2 30870 -4585.01)
(36569.4 25826.7 -4195.2)
(16405 12105 -1885.23)
(-90913.4 135936 -22517.4)
(-53093.7 138793 -26787.4)
(-24017.4 127893 -24192.9)
(3588.76 101847 -18122.7)
(18488.1 77371.2 -13835)
(26624.6 72725.2 -10653.8)
(33416.3 68030 -8147.85)
(37563.3 63158.3 -6949.38)
(35582.4 52931.5 -5319.77)
(27460 36251.5 -3369.76)
(25978.2 29121.1 -2123.07)
(25975.9 26084.3 -1205.42)
(29808.5 27877.1 -1476.17)
(36959.6 30878.6 -2618.64)
(42067.9 33231 -3676.51)
(43837.5 34730.7 -4243.92)
(42001.8 35062.6 -4868.36)
(33870.3 29894.7 -4493.64)
(20250.3 17838.9 -2580.35)
(6949.86 6515.59 -851.782)
(-69937.6 124527 -17404)
(-38431.4 124976 -20448.2)
(-16931.4 117746 -19161.9)
(4649.59 97574.9 -16683.1)
(16834.6 76265.7 -13128.9)
(25028.9 70833.4 -10326.5)
(31955.1 65840.9 -8123.52)
(35823.5 60594.9 -7162.89)
(33809.5 52541.9 -5542.63)
(31367.6 43786.4 -3669.39)
(30315.9 35491.6 -2110.4)
(28425.9 30544.3 -1420.45)
(24991.1 24990.1 -2014.16)
(25081.6 23666.1 -2959.31)
(27540.7 26417.3 -3594.75)
(27760.7 28881.1 -4080.19)
(24002.1 26391.4 -3757.24)
(16202.2 17810.9 -2394.79)
(7297.78 7519.18 -931.66)
(588.788 641.083 -58.6408)
(-53339.6 110188 -13113.8)
(-28650.7 110973 -15453.7)
(-12531.6 107902 -14969.4)
(4937.46 92362.8 -14681.1)
(14753.5 72918.1 -11667.4)
(22152 66604.9 -9457.22)
(28444.4 61030.3 -7763.79)
(31096.9 55272.2 -6781.82)
(30461.6 50403.6 -5355.68)
(32358 46794.3 -3805.81)
(33764 42341.5 -2684.6)
(32072.4 38265.6 -2585.35)
(24589.2 25882.9 -2946.41)
(19570.9 19430.5 -3146.96)
(19129.3 20358.1 -3261.76)
(15991.6 19155.5 -2733.73)
(10731.5 13693.4 -1762)
(4244.8 5316.79 -608.278)
(342.356 457.268 -36.5234)
(1.17886 1.76398 -0.0759324)
(-40010.4 93962.3 -9567.31)
(-21355.3 96201.9 -11350.5)
(-9116.78 96799.8 -11346.4)
(4748.09 84860.9 -12267.1)
(12603.3 67418.7 -9857.88)
(18422.6 59842.1 -8235.83)
(22758.2 52904.4 -6928.43)
(24005.4 46869.5 -5910.51)
(25719.6 45144.9 -4820.08)
(30612.1 45976.5 -3661.01)
(34638 48000.7 -3426.22)
(34428.9 43411.9 -3725.15)
(27419.7 28398.7 -3562.4)
(20666.1 19222.4 -3175.46)
(15349.2 15278.1 -2394.56)
(7252.38 8663.55 -1112.39)
(1473.81 2230.9 -225.513)
(76.6686 150.512 -9.76687)
(0.26303 0.573849 -0.0207681)
(9.50025e-06 1.7695e-05 -3.89596e-07)
(-29005 74686.5 -6679.76)
(-15585.5 79404.1 -8074.79)
(-6464.27 82481.3 -8260.91)
(3980.47 72519.2 -9714.66)
(10059.9 57254.9 -8101.43)
(13960.1 48591.7 -6806.38)
(16196.7 41161.6 -5672.15)
(17788.8 37904.3 -4830.65)
(21741.8 40464.3 -4032.98)
(28448 46216 -3563.85)
(33697.6 50988.4 -3896.4)
(35689.5 44958.5 -4295.29)
(29628.8 28431.8 -3903.47)
(19410.6 16157.7 -2545.84)
(8774.8 7302.96 -1042.25)
(761.621 753.489 -74.6837)
(7.41645 18.0694 -0.947536)
(0.0130547 0.0525984 -0.00153336)
(6.96942e-07 2.39238e-06 -3.96673e-08)
(8.17709e-12 2.75938e-11 -2.56074e-13)
(-20633.6 55790.6 -4612.32)
(-11166 61096.8 -5780.84)
(-4729.97 64970.2 -5873.25)
(2879.56 56292.9 -7390.49)
(7638.04 45275.5 -6441.49)
(10551 38934.9 -5480.39)
(12888.6 36117.6 -4806.28)
(15536.6 37003.6 -4103.34)
(20026.1 41098.3 -3494.32)
(25981.7 47379.6 -3522.85)
(32296.3 50592.5 -4227.03)
(35632.6 42696.6 -4765.02)
(26740.3 24357.9 -3487.23)
(13853 10873.8 -1595.76)
(2285.94 1513.91 -201.627)
(19.0608 7.75449 -0.86034)
(0.0011499 0.00107131 -4.07817e-05)
(1.57767e-08 1.35592e-07 -1.54539e-09)
(6.05383e-13 4.30853e-12 -2.94688e-14)
(0 2.04601e-16 0)
(-17037.6 49275.3 -3525.67)
(-8830.45 50843.6 -4532.9)
(-3817.12 54727.6 -4541.25)
(2466.09 49167.4 -6056.71)
(6587.21 42368.8 -5263.66)
(8992.25 37880.4 -4403.49)
(11117.6 36852.5 -3730.93)
(13859.2 38093.4 -3229.49)
(18610 42521.4 -3192.6)
(24427.7 47361.5 -3701)
(31066.7 46810.4 -4598.49)
(30069.7 34093.4 -4257.4)
(17892.4 16299.6 -2188.41)
(5378.84 4305.01 -543.655)
(155.074 79.5846 -8.69366)
(0.0560166 0.0140891 -0.00139096)
(1.45837e-07 1.68567e-08 -1.40827e-09)
(2.6943e-13 2.51592e-13 -2.84527e-15)
(2.02702e-16 7.34869e-22 0)
(0 6.20319e-36 0)
(-14168.9 48698.6 -2565.15)
(-7223.33 49373.2 -3258.37)
(-2783.88 52651.1 -3306.12)
(2233.35 47997.7 -4397.88)
(5407.67 41589.9 -3783.34)
(7772.5 38595.7 -3259.69)
(10414.4 38624 -3029.26)
(14059.5 41503.2 -3124.57)
(18725.4 45011.7 -3466.3)
(24086.7 44926.1 -4091.82)
(25923.4 36693.6 -4074.21)
(17872.7 20290.3 -2411.02)
(7559.31 7339.56 -847.103)
(464.466 348.616 -32.6111)
(0.596192 0.274874 -0.0186869)
(2.53609e-06 7.52832e-07 -3.64428e-08)
(4.58759e-12 6.55109e-13 -2.66236e-14)
(1.53854e-21 2.02702e-16 0)
(0 0 0)
(0 0 0)
(-10677.5 43422.8 -1942.19)
(-5384.12 42473.7 -2116.14)
(-1768.3 44225.3 -2186.91)
(1769.99 41108.1 -3280.51)
(4456.04 36701.1 -3038.41)
(6799.37 35169.8 -2744.4)
(9257.39 35055 -2613.28)
(11675.5 34931 -2639.69)
(13844.7 32080.8 -2703.91)
(14775.3 25963 -2573.94)
(12153.4 16464.1 -1809.23)
(6551.04 6984.44 -793.356)
(648.989 595.787 -53.3375)
(1.81732 1.21603 -0.0690515)
(1.87232e-05 1.00606e-05 -3.59433e-07)
(2.92885e-11 8.71769e-12 -2.36157e-13)
(6.12494e-16 0 0)
(0 0 0)
(0 0 0)
(0 0 0)
(-115412 -115430 -15186.9)
(-91233 -132258 -20412.6)
(-73602.9 -148528 -23985.1)
(-48679 -158747 -28313.5)
(-17947.5 -175919 -30535.2)
(18366.5 -183676 -34449.1)
(54466.6 -185961 -35465.2)
(88085.6 -184577 -37102)
(119048 -175287 -35488.1)
(136254 -148118 -30511.6)
(138835 -116894 -24700.1)
(132513 -90199 -19600.5)
(121503 -69310.3 -15449.8)
(108338 -53143.6 -12107.1)
(93771.8 -40332 -9310.59)
(76157.3 -29770 -6755.54)
(57537.1 -21344.5 -4691.98)
(50127 -17494.9 -3611.54)
(49671.8 -14672.4 -2530.85)
(44368 -11086.2 -1759.07)
(-132139 -91161.5 -20440.5)
(-108610 -108571 -28150)
(-91432.4 -126212 -32976.3)
(-64829.8 -142026 -38451.2)
(-29631.5 -168788 -42341.9)
(17415.7 -185762 -47258.8)
(65651.8 -195126 -50764.5)
(109841 -194541 -52556.2)
(146551 -163089 -46215.2)
(154442 -113587 -36646.5)
(145485 -75180.6 -27931.6)
(132263 -51272.6 -21315.3)
(119401 -37113.2 -16591.2)
(107035 -27974.4 -13084.5)
(94253.9 -21258.9 -10221.7)
(79405.4 -15872.2 -7655.61)
(62301.9 -11600 -5542.43)
(51710.9 -9186.32 -4402.15)
(50299.2 -7627.82 -3314.88)
(43701 -5643.39 -1992.9)
(-148329 -73465.2 -24051.9)
(-126046 -91261.5 -33022.6)
(-109608 -109774 -37346.6)
(-83098.2 -129295 -41481.9)
(-44271.6 -162974 -47446.8)
(12315.8 -187356 -53664.5)
(73815 -201291 -59861.9)
(128000 -197708 -61082.9)
(167161 -139377 -46875.3)
(151317 -69794.3 -30898.7)
(132343 -37131.7 -22595.9)
(120426 -23175.6 -17936.9)
(111566 -16371.4 -14635.3)
(103197 -12333.9 -11983.4)
(93747.5 -9326.91 -9605.86)
(81209.9 -6878.21 -7346.29)
(65036.9 -5118.07 -5341.98)
(54962.3 -4176.02 -4229.06)
(53224.3 -3164.56 -3325.7)
(45482.3 -1965.43 -2184.32)
(-158383 -48492.5 -28397.5)
(-141143 -64550.4 -38484.3)
(-128044 -83194.3 -41522)
(-109641 -110363 -42234.2)
(-73525.9 -140547 -47797.3)
(-10645.5 -177108 -58264.9)
(60740 -198021 -66474.7)
(129483 -198440 -70993.2)
(177437 -134358 -51469.9)
(108046 -10791.4 -16118.2)
(99864.4 -588.465 -14478.7)
(95499.3 2624.92 -13621.9)
(91762.7 3814.99 -12526.9)
(87574.7 4253.23 -11164.4)
(81731.6 4250.01 -9549.18)
(71659.4 3730.03 -7589.4)
(56835 2806.57 -5681.2)
(49272.1 2383.63 -4691.68)
(48591.7 2219.62 -3561.68)
(42262.7 1782.49 -2624.41)
(-175262 -17964.8 -30576)
(-167389 -29643.5 -42256.8)
(-160910 -44688.7 -47363.9)
(-141408 -76900.7 -47673.6)
(88323.5 -335.038 -15789)
(67694.3 14509.5 -9910)
(71385.9 16599.9 -10587.5)
(72937.2 16693.6 -10617.1)
(72438.3 15384.1 -10116.8)
(69939.8 13578.9 -9170.52)
(65698.1 11760.5 -7895.82)
(57297.8 9669.4 -6403.05)
(45753.1 7513.49 -4994.71)
(42725 6576.91 -4203.49)
(42434.2 5409.24 -3015.85)
(37868.7 4487.45 -2398.43)
(-183035 18165.6 -34552.6)
(-184867 17012.6 -47418.8)
(-186203 11507.5 -53980.5)
(-175253 -12475.4 -58384.3)
(69408.5 20295.7 -9596)
(67402.5 21878.4 -8363.84)
(69295.5 23075.7 -8635.01)
(69741.5 23403 -8604.33)
(68882.7 22652.5 -8375.34)
(65591.9 20621.2 -7846.9)
(59646.3 17578.9 -6963.87)
(49467.3 13721.7 -5656.7)
(39240.2 10408.2 -4425.97)
(38079.1 9033.49 -3731.32)
(38905.6 7728.1 -2598.51)
(36105 6862.71 -2115.75)
(-185654 54222.5 -35737.8)
(-194471 65241.9 -51053)
(-200414 73185.2 -60182.9)
(-197123 59822.8 -66949.6)
(67240 27342.6 -8048.76)
(66037.1 28809.7 -6781.93)
(66313.8 29754.4 -7157.3)
(66006.9 29925.5 -7230.27)
(64514.3 29135.3 -7161.71)
(60607.3 26695.2 -6934.09)
(53662.7 22225.7 -6285.48)
(42681.8 16346 -4985.59)
(36068.6 12719.8 -4071.25)
(36714.4 11135.7 -3289.41)
(38501.8 10257.3 -2294.4)
(36012.3 9348.35 -1893.34)
(-184284 87885.3 -37075.7)
(-194162 109405 -52510.2)
(-197336 127343 -61119.4)
(-197718 128510 -71352.7)
(63371.5 32819.4 -6442.32)
(61733.7 32942.2 -5951.14)
(62668.5 33597.8 -6190.92)
(61917.2 33731.6 -6594.68)
(60146.9 32963.4 -6771.78)
(55722 29874.6 -6478.51)
(48102 24015.4 -5606.23)
(38647.4 17777.2 -4346.98)
(36248.6 15165.4 -3657.27)
(37597.6 13667.6 -2680.61)
(40672.2 13630.5 -2060.59)
(36588.7 11974.5 -1849.82)
(-175399 118978 -35763.2)
(-162980 146304 -47151.9)
(-138948 166788 -48844.1)
(-128760 175567 -53840.6)
(1266.5 87149.2 -15136.2)
(20742.9 68017.9 -9722.06)
(27525.3 66773.6 -7374.41)
(33740.4 64626.7 -5747.06)
(27829.6 29773.8 -2955.69)
(38401.6 27784.2 -3551.99)
(46180 30708.9 -4648.81)
(50828.9 32596.2 -5448.22)
(51070.6 31669.8 -5560.28)
(49315 28986.2 -5300.93)
(45107.1 24938.9 -4656.26)
(39597.7 20809.3 -3727.26)
(40013.4 19301.7 -3009.77)
(41433.8 18163.3 -2202.07)
(44905.6 18442.7 -1910.48)
(35306.2 14659.2 -2222.08)
(-148435 136380 -30996.1)
(-113691 154453 -37751.8)
(-69422.4 150941 -32700.5)
(-10081.1 107527 -17814.5)
(15098 67346.8 -10254.4)
(22123.5 66501.9 -8042.01)
(29037.3 65923.4 -6498.75)
(33424.8 62162.6 -5726.82)
(28775.8 40668.7 -3481.03)
(23524.8 23975.5 -2496.5)
(26670.4 22154 -3270.22)
(32318.5 24204.9 -3598.93)
(39086.3 27379.9 -3822.91)
(44326.8 29712.1 -3991.11)
(44240.3 28689.5 -3620.68)
(44339.4 27152.8 -3112.53)
(45851.5 25423.7 -2508.55)
(47032.8 24104.8 -1877.21)
(47496.6 24375.4 -2741.04)
(30414 16514.3 -3046.99)
(-117278 139132 -25260.3)
(-75205.2 145493 -28811.1)
(-36878.7 131892 -23674.3)
(-341.073 98885 -15302.9)
(16770.1 70448.5 -10458)
(23258.2 68710.4 -8272.72)
(29981.5 66508.8 -6804.15)
(34048.6 62896.9 -5920.58)
(31826.8 48189.1 -4268.95)
(22567.7 27805.1 -3039.01)
(21530.5 21851.2 -2736.83)
(25311.1 22492.4 -2456.3)
(31824.7 26799.1 -2402.25)
(38900.2 30981.9 -2653.42)
(44976.7 32757.7 -2831.79)
(49271.7 32686.2 -2658.32)
(50615.1 31790.7 -2346.99)
(49302.2 31222.7 -2928.58)
(42953.8 28780.5 -4805.43)
(20401 14352.2 -3182.28)
(-90531.3 132854 -20133.7)
(-51258 132201 -21984.2)
(-23003.4 119944 -18593.1)
(2678.29 94462.6 -14189.9)
(16672.8 71993.3 -10558.9)
(23485.6 69211 -8295.66)
(30030.9 66225.4 -6862.43)
(34150.4 62003.4 -6263.23)
(33174.6 51835.6 -5001.1)
(24926.3 33754.8 -3306.43)
(22561 25976.9 -2288.31)
(23601.7 23910.8 -1355.14)
(28070.4 26549.6 -1232.62)
(36637.9 30954.7 -1891.23)
(43807 34197.4 -2597.53)
(46637.2 35688.2 -2932.19)
(46382.7 36396.3 -3794.03)
(40357.8 33504.3 -5352.49)
(25836.8 21921.1 -4574.17)
(9542.98 8638.25 -2126.82)
(-69567.3 121830 -15924.1)
(-37115 119325 -17140.5)
(-16261 111153 -15126.7)
(3816.86 90938.6 -12957.5)
(15262.8 71570.2 -10122.5)
(22620.4 68394.3 -8143.65)
(29192.4 64696.9 -6855.77)
(33199.6 60007.2 -6310.15)
(31965.9 51589.9 -5098.08)
(28076.2 40465.9 -3610.07)
(27346.2 32964 -2307.47)
(26882.6 28928.3 -1235.03)
(27141.6 27264.2 -1270.43)
(29062 26814.1 -2268.9)
(31824.2 29182.4 -3108.59)
(32679.1 31734 -4368.74)
(29444.2 30425.2 -5256.89)
(20606.8 21749.9 -4370.22)
(10483.2 10614.9 -2507.61)
(1470.83 1554.22 -387.353)
(-53340.1 108649 -12507)
(-28010.6 107051 -13557)
(-12265.1 102842 -12379.6)
(4259.32 86965.8 -11459.3)
(13454.1 69246.7 -9230.32)
(20531.1 65191.2 -7709.85)
(26725.3 60722.7 -6655.58)
(29921.1 55429 -5981)
(29020.8 49413.2 -4872.01)
(29951.3 44871.6 -3765.11)
(31600.6 39971.8 -2676.18)
(31710.1 37770.3 -1995.65)
(27069.3 29122.8 -2343.1)
(21330.6 21257.3 -3418.51)
(21201.2 22089.1 -4099.56)
(18575.8 21433.3 -4321.16)
(13562.8 16836.3 -3574.59)
(6855.06 8319.34 -1948.76)
(1020.85 1240.26 -283.174)
(9.89897 13.7839 -2.16877)
(-40477 94064.7 -9612.68)
(-21326.8 94450.3 -10624.8)
(-9306.15 93529 -9955.07)
(4269.44 81332.2 -9732.58)
(11674.2 65209.2 -7977.57)
(17497.2 59379.3 -6867.07)
(22225.1 53660.8 -6002.54)
(23957.4 47863 -5173.71)
(24849.6 44960.4 -4321.55)
(28830.4 44450.4 -3479.24)
(33238.9 45767.7 -2970.88)
(34793.6 44584.5 -2763.68)
(29261.1 31635.5 -3140.76)
(21969.2 20961.3 -4004.35)
(16672 16727.1 -4085.75)
(9963.07 11727.5 -2971.01)
(3132.67 4334.52 -1038.2)
(297.613 496.288 -98.5586)
(2.66786 5.305 -0.705153)
(0.000378183 0.000699037 -6.03943e-05)
(-29874.3 76415.1 -6956.09)
(-15960.5 79737.8 -7965.87)
(-6893.62 81195 -7653.33)
(3751.27 71471.3 -7712.86)
(9623.52 57005.2 -6477.92)
(13684.4 49371.2 -5583.35)
(16354.7 42695.6 -4802.59)
(17769.6 38624.5 -4098.64)
(20797.6 39538.3 -3541.52)
(27288.8 44423 -3109.8)
(32980.6 49808.2 -2862.24)
(36016.4 46960.1 -3065.31)
(31507.4 32167.4 -4207.98)
(21131.9 18281.1 -4048.57)
(11556.2 9947.18 -2830.35)
(1875.91 1910.34 -509.39)
(46.2077 93.6332 -15.8668)
(0.189341 0.632576 -0.0673288)
(3.10368e-05 9.7222e-05 -7.06487e-06)
(3.54275e-10 1.17594e-09 -5.30201e-11)
(-21403.7 57691.6 -4819.2)
(-11674.5 62602.6 -5749.8)
(-5144.49 65197.8 -5590.43)
(2821.77 56851.2 -5780.42)
(7498.49 45663.7 -5071.8)
(10408 39263.2 -4391.59)
(12734.9 36104.7 -3976.22)
(15171 36293.5 -3530.68)
(19349.5 40037 -2964.28)
(25502.7 45973.2 -2616.94)
(31911.8 50886 -2539.49)
(36416 46166.8 -3818.84)
(29858.5 28660 -4873.62)
(16499.8 13292 -3270.51)
(4103.21 2973.58 -907.537)
(81.9131 42.0764 -12.9533)
(0.0209759 0.0249853 -0.00319411)
(4.33519e-07 2.738e-06 -1.5819e-07)
(2.41657e-11 1.48699e-10 -5.89255e-12)
(4.06467e-16 1.83758e-15 0)
(-17527.9 50212.4 -3706.08)
(-9222.1 51853.8 -4549.35)
(-4198.48 55192.4 -4438.33)
(2395.81 49368.6 -4783.26)
(6575.8 42702 -4272.38)
(9036.25 38093.7 -3720.51)
(11135.9 36733.9 -3258.15)
(13666.3 37639.1 -2655.46)
(18228.4 41530.8 -2253.25)
(24128 47192.3 -2019.08)
(31216.2 49251.2 -3063.28)
(33180.3 39686.3 -5147.74)
(21249.5 19986.1 -3991.75)
(8000.11 6569.52 -1733.79)
(442.395 259.905 -79.0401)
(0.491432 0.143993 -0.0465964)
(1.93639e-06 3.13251e-07 -9.52626e-08)
(4.25255e-12 5.67648e-12 -2.67455e-13)
(9.15929e-20 2.04143e-16 0)
(0 2.83656e-29 0)
(-14702.7 49743.8 -2594.13)
(-7659.12 50416.1 -3423.9)
(-3183.37 53413.4 -3474.9)
(2228.77 48715 -3641.94)
(5411.12 42448.1 -3044.26)
(7724.84 38922 -2604.53)
(10240.5 38478.5 -2306.89)
(13632.9 40691.6 -2092.8)
(18452.8 45019.4 -1993.58)
(24364.1 47516.7 -2856.54)
(28640.9 42590.6 -4743.26)
(21546.9 25236.3 -4281.72)
(10362.6 10183.8 -2298)
(1138.41 923.71 -238.306)
(4.31825 2.12986 -0.517442)
(6.71314e-05 2.09547e-05 -4.32784e-06)
(1.02304e-10 1.63511e-11 -3.53118e-12)
(9.63693e-19 4.43303e-20 0)
(0 0 0)
(0 0 0)
(-11105.9 44409 -1801.71)
(-5665.77 43783.1 -2051.84)
(-1980.5 45584.7 -2255.54)
(1784.99 42371.8 -2674.34)
(4488.73 37899.4 -2410.58)
(6857.39 36106.5 -2123.52)
(9341.21 36011.7 -1917.49)
(11972.7 36630.3 -1890.63)
(14637 35297.1 -2278.09)
(16475.4 30303.2 -3044.01)
(14259.9 20168.2 -3068.35)
(8541.46 9364.74 -2000.15)
(1463.07 1373.5 -339.614)
(11.7478 8.26648 -1.68342)
(0.000512318 0.000271868 -3.98368e-05)
(8.47533e-10 2.48843e-10 -3.39485e-11)
(1.829e-15 2.03233e-16 0)
(0 0 0)
(0 0 0)
(0 0 0)
(-116673 -116667 -13050.2)
(-93218.5 -134910 -17053)
(-75868.3 -151865 -19499.8)
(-50810 -163088 -23043.9)
(-20062.8 -181297 -25359.9)
(16769.9 -189891 -28343.9)
(53310.2 -192757 -29470.3)
(87670.2 -191940 -30815.2)
(119297 -180808 -29140.4)
(136371 -151681 -24878.9)
(138953 -119454 -20183)
(132923 -92251.5 -16184.1)
(122248 -71100.2 -13026.2)
(109131 -54652.4 -10456.4)
(94728.6 -41615.1 -8187.34)
(78260.6 -31018.2 -5990.25)
(59947.7 -22396.9 -4080.45)
(51277.7 -18187.5 -3017.5)
(51031 -15513.2 -2162.93)
(46125.3 -11806.7 -1557.3)
(-134818 -93136 -17086.7)
(-112157 -112099 -22865.6)
(-94969 -130377 -25991.3)
(-67886 -147049 -30371)
(-32602 -174938 -33796.6)
(14613.3 -192156 -37697.2)
(63379.6 -201864 -40752.4)
(108140 -201029 -42130.9)
(145027 -165428 -36374.9)
(153299 -114914 -28749)
(145230 -76227.1 -21940.5)
(133268 -52626.3 -17094.1)
(121315 -38737.2 -13792.2)
(109309 -29662.6 -11309.6)
(96681.6 -22833.3 -9085.55)
(82458.4 -17280 -6834.77)
(65706.9 -12726.2 -4795.72)
(53499.4 -9900.15 -3607.02)
(51703.2 -8378.38 -2807.16)
(45702.4 -6161.96 -1715.67)
(-151644 -75760.6 -19623)
(-130143 -94748.9 -26134.8)
(-113457 -113481 -29017.4)
(-86201.4 -133673 -32213.7)
(-47539.9 -168328 -36737.1)
(8950.49 -193163 -42224.4)
(70468.9 -207030 -46980.8)
(124780 -202391 -47978.3)
(164140 -139925 -36408.2)
(148163 -69382.6 -23934)
(130492 -37119.4 -17263)
(120319 -23726.8 -13896.7)
(112807 -17446.9 -11922)
(105554 -13792.9 -10502.5)
(97356.7 -10850 -9134.59)
(86256.3 -8207.21 -7420.85)
(70779.1 -6209.76 -5510.27)
(58785.7 -4994.63 -4264.33)
(56314.5 -3967.49 -3394.06)
(48282.3 -2506.07 -2090.14)
(-162613 -50807.9 -23346.9)
(-145816 -67738 -30949.4)
(-132121 -86072.5 -33245.3)
(-113418 -114258 -35715.2)
(-77125.4 -146890 -39469.4)
(-13305.3 -184026 -48987.4)
(58448.6 -206317 -56457.1)
(126775 -207644 -61038.4)
(173814 -134317 -41531)
(105481 -10899.5 -13175.1)
(98951.8 -786.187 -11863.1)
(95675.6 2249.35 -10991.1)
(92810.7 3156.82 -10228)
(89601.7 3367.65 -9517.31)
(85224.2 3288.92 -8697.87)
(77321.6 2887.24 -7356.27)
(63711.6 2139.26 -5611.12)
(54080.5 1694.48 -4558.03)
(52874.1 1732.5 -3610.39)
(45946.6 1464.44 -2447.6)
(-180694 -20228 -25671.2)
(-173416 -32819.7 -34411)
(-166116 -47977.3 -38201)
(-146387 -79884.7 -42269.6)
(82353.1 -1928.99 -12880.5)
(67989.3 13118.1 -8012.86)
(73713.1 15883.5 -8488.45)
(76075.7 16388 -8545.61)
(76631.1 15354.3 -8464.8)
(74530.2 13485.6 -8100.38)
(70507.5 11626.9 -7430.79)
(63334.9 9757.35 -6209.63)
(51692 7691.33 -4750.96)
(46611.7 6662.82 -3984.3)
(46600 5655.08 -2954.2)
(41292.3 4618.54 -2268.58)
(-189395 16625.9 -28426.1)
(-191165 14242 -37779.7)
(-191772 8167.58 -42422.8)
(-181681 -14699.8 -49350.8)
(66494.3 17494.7 -7833.21)
(68883.6 20761.2 -6455.37)
(71876.5 22140.5 -6804.26)
(73954.4 23001.3 -7146.89)
(73939.4 22680.8 -7313.76)
(71375.9 21078.7 -7232.88)
(65686.2 18361.4 -6662.97)
(56282.6 14855.5 -5407.73)
(44602.9 11331.4 -4038.76)
(41560.2 9830.78 -3480.03)
(42704.2 8385.33 -2611.69)
(39430.8 7260.59 -2102.03)
(-192939 53250 -29725.3)
(-201737 63205.9 -41029.2)
(-206402 70100.6 -47176.2)
(-205127 57623.3 -56661.7)
(66045.1 24970.5 -6469)
(67879 28028.6 -5564.95)
(68948.3 29044.8 -5763.78)
(69221.6 29559.3 -6172.81)
(68489.8 29229.4 -6386.45)
(65499.8 27518.4 -6409.24)
(59325.4 23826.6 -5859.21)
(49258.7 18490.2 -4630.86)
(40166.1 14153.5 -3620.41)
(39979.8 12535.5 -3220.06)
(41940.5 11066.4 -2345.97)
(39388.6 9992.4 -1983.86)
(-191644 87593.5 -30772.2)
(-200914 107839 -42078.4)
(-202773 124180 -48102.1)
(-206948 127010 -61449.3)
(62803.9 30835.5 -5738.35)
(62492 32198.7 -5201.94)
(63816.6 32973.9 -5247.19)
(63710.4 33407.4 -5464.51)
(62602.5 33201 -5733.41)
(59226.4 31169.6 -5662.95)
(52801.8 26381 -5040.77)
(43836.3 20263.1 -3971.58)
(39279.8 16801.8 -3370.27)
(40800.4 15198.1 -2774.08)
(43631.9 14424 -2160.34)
(40527.5 13042.8 -1951.26)
(-181665 119301 -29327.7)
(-167770 145413 -36930.7)
(-143324 164853 -37562.1)
(-137679 174633 -45286.5)
(-1195.03 82637.8 -14990.8)
(17656.3 65734.5 -7731.63)
(25012.1 66113.2 -6278.13)
(31052 62926.6 -5724.93)
(26589.5 26201 -2721.29)
(38540.4 27123.3 -3414.58)
(47115.7 30467.9 -3958.93)
(51842.4 32503.4 -4375.05)
(52182.5 31987.3 -4501.51)
(50935.4 29896.5 -4442.1)
(47989.8 26413.5 -4125.28)
(42803.5 22366.5 -3490.77)
(42767.1 20765.3 -3021.31)
(44476.1 19468.7 -2322.57)
(48139.5 19660.9 -2128.9)
(40274.2 16317.2 -2110.99)
(-153111 136878 -25351.1)
(-116941 154072 -29492.5)
(-71117.6 148634 -24847.3)
(-11971.9 103916 -14083.1)
(12276.5 64388.1 -8421.33)
(20001.1 67867.7 -6501.91)
(27717.1 67627.5 -5588.64)
(32183.8 62744 -5201.5)
(27431.5 39269.5 -3431.27)
(23361.5 23498.1 -2365.42)
(26845.1 21917 -2569.1)
(32311.6 23890 -2788.23)
(38257.6 26430.8 -3039.8)
(44510 29212.8 -3371.56)
(45734.2 28979 -3302.54)
(46192.7 28038.6 -2975.08)
(48312.6 27111.9 -2559.31)
(50688 26058.1 -2117.27)
(52263.1 26240.8 -2551.23)
(35956.5 18727.5 -2570.39)
(-120704 139656 -20726.7)
(-77353.4 145683 -22689.5)
(-37601.3 129794 -17912.9)
(-1330.15 96494.1 -12201.4)
(14926.5 69948.4 -8683.06)
(21331.3 70202.7 -6754.36)
(28531.4 68351.5 -5766.19)
(33033.1 64268.9 -5332.61)
(31124.8 48433.5 -4074.65)
(22413.3 27675.3 -2649.38)
(20672.3 20818.6 -2119.71)
(24240.8 21126.3 -2052.91)
(31278.9 25684.6 -2245.47)
(38972.9 30812.7 -2621.15)
(45455.6 33704.5 -2817)
(51118.8 34712.9 -2739.09)
(54375.7 34260.1 -2520.06)
(54400.8 33665 -2700.62)
(49527 31754.5 -3778.9)
(25701.3 17233.3 -2874.96)
(-93049.6 133481 -16643.7)
(-53042.2 133231 -17661.9)
(-23706.3 119134 -14334.8)
(2022.05 93359.4 -11091.7)
(15595.1 72688.4 -8541.03)
(22175.8 72014.8 -7022.31)
(29011.2 68541.7 -6129.98)
(33518.6 64081.3 -5585.7)
(33290.2 53549.6 -4614.65)
(24871.6 33980.8 -2928.05)
(21402.4 25007.7 -2066.23)
(23001.5 23375 -1465.99)
(27719.3 26535.4 -1622.15)
(37237.8 32388.4 -2304.87)
(46780.9 37308.4 -2871)
(51491.8 39236.1 -3014.57)
(52153.3 39683 -3280.44)
(47262 37309.5 -4149.2)
(33297 27066.5 -4248.02)
(12971.4 11089.7 -2140.21)
(-71491.2 122521 -13349)
(-38771.5 120919 -14146.1)
(-17261.6 111557 -12194.4)
(3098.84 90946.9 -10248.4)
(14757.1 73797 -8450.01)
(21959.6 72020.6 -7198.94)
(28743.4 67798.6 -6341.62)
(33288.6 62961.1 -5795.57)
(32656.8 53870.9 -4665.89)
(27592.2 40457.7 -3163.47)
(26560.2 32890 -2287.31)
(26976.7 28808.5 -1633.22)
(29731.3 30059.2 -1775.97)
(33928.7 31552.8 -2657.09)
(37405.3 33976.6 -3119.06)
(38278 35586.9 -3638.23)
(35459 34433.1 -4283.62)
(26688.6 26626.8 -4069.06)
(14529.3 14264 -2598.85)
(3457.08 3578.83 -775.677)
(-54808.9 109179 -10670.5)
(-29556.1 108712 -11507.6)
(-13585.4 104312 -10679.6)
(3396.04 88099.1 -9554.14)
(13060.9 72169.8 -8109.89)
(20516.1 69633.3 -7159.3)
(27149.1 64896.3 -6370.31)
(31110.4 59530.3 -5656.27)
(30301.6 52351.4 -4510.6)
(30307.6 46620 -3522.24)
(31911.6 40863.4 -2699.82)
(33314.6 38789.3 -2317.44)
(31524.7 33864.6 -2680.82)
(24352.5 24380.6 -3111.06)
(23424 23914.8 -3387.85)
(21723.4 23781.1 -3708.06)
(17221.7 20193.6 -3337.93)
(10438 12286.7 -2263.19)
(2841.98 3203.93 -656.569)
(82.3211 106.726 -17.5256)
(-41671.5 94664.5 -8338.78)
(-22718.3 96060.9 -9203.33)
(-10715.8 96192.4 -9253.01)
(3350.67 84012.1 -8770.18)
(11332 68516.2 -7427.17)
(17956.1 64243.8 -6610.14)
(23517.2 58813.6 -5817.15)
(26147.5 53082.4 -4983.56)
(26670 49109.1 -4146.85)
(29755 47209.6 -3427.6)
(34607.9 47141.2 -2896.71)
(37901.3 47858.4 -2855.63)
(33490 36713.7 -3079.79)
(23435.2 22955.6 -3375.04)
(18156.7 18273 -3602.46)
(12999.9 14785.9 -3077.84)
(6060.68 7749.59 -1576.6)
(1136.64 1619.03 -310.887)
(28.84 50.3183 -7.02429)
(0.0195496 0.0364 -0.00320561)
(-31038.5 78137.3 -6095.85)
(-17198 81960.8 -6920.08)
(-8142.38 85317.8 -7505.85)
(2943.22 76440.9 -7434.9)
(9558.97 61713.2 -6195.14)
(14578.6 55158.9 -5374.4)
(18230.5 48847.1 -4594.95)
(20067.7 44089.5 -3926.43)
(22476.3 43466.8 -3483.24)
(28547.8 47210.8 -3066.27)
(35187.9 52280.8 -2777.94)
(39341.2 51749.7 -2962.04)
(34837.7 37241.8 -3553.02)
(23088.5 21109.9 -3623.64)
(14468.8 12992.5 -3053.82)
(4479.37 4582.2 -1111.33)
(280.783 447.423 -79.3572)
(3.22331 8.81426 -1.01494)
(0.00209323 0.00641125 -0.000484866)
(2.5275e-08 8.46409e-08 -3.88127e-09)
(-22398.4 59838.8 -4143.02)
(-12679.8 65370 -4855.02)
(-6172.67 70114.4 -5567.88)
(2170.1 63142.9 -5685.5)
(7573.29 50517.3 -4746.49)
(11163.7 43827.1 -4026.24)
(13955.2 39850.3 -3593.23)
(16620.7 39340.5 -3319.71)
(20841.8 43251.2 -3007.06)
(27318.5 48960.7 -2604.02)
(34362.1 54914.3 -2523.76)
(39464.2 51793.3 -3222.19)
(33548.9 34235.4 -4168.85)
(19568.3 16655.9 -3234.79)
(7287.08 5763.7 -1488.29)
(384.974 255.195 -68.7917)
(0.520023 0.624317 -0.0857883)
(4.14178e-05 0.000225984 -1.48786e-05)
(1.89098e-09 1.22748e-08 -5.07016e-10)
(2.86559e-14 1.3491e-13 -3.6582e-15)
(-18188.2 51191.1 -3059.96)
(-9880.06 53277 -3645.18)