/*--------------------------------*- C++ -*----------------------------------*\
  =========                 |
  \\      /  F ield         | OpenFOAM: The Open Source CFD Toolbox
   \\    /   O peration     | Website:  https://openfoam.org
    \\  /    A nd           | Version:  9
     \\/     M anipulation  |
\*---------------------------------------------------------------------------*/
FoamFile
{
    format      ascii;
    class       volScalarField;
    location    "0.0015";
    object      T;
}
// * * * * * * * * * * * * * * * * * * * * * * * * * * * * * * * * * * * * * //

dimensions      [0 0 0 1 0 0 0];

internalField   nonuniform List<scalar> 
9720
(
1600.81
1609.6
1627.32
1637.79
1649.92
1655.65
1654.74
1651.6
1640.59
1616.06
1585.2
1549.93
1510.99
1468.13
1419.07
1354.28
1269.94
1233.36
1250.05
1463.27
1609.42
1619.57
1640.91
1656.21
1674.26
1685.71
1690.55
1686.48
1661.42
1618.48
1571.55
1528.18
1488.86
1449.89
1405.05
1344.39
1258.46
1194.11
1197.81
1340.37
1627.07
1640.61
1663.67
1678.66
1696.95
1712.88
1722.65
1716.37
1671.01
1607.81
1554.51
1513.69
1480.55
1448.92
1412.28
1361.98
1286.56
1225.57
1228.63
1354.84
1637.42
1655.62
1678.55
1681.33
1700.54
1728.22
1745.33
1754.69
1698.46
1528.09
1490.29
1461.11
1437.33
1414.88
1388.22
1347.46
1277.59
1228.12
1237.23
1396.33
1649.31
1673.3
1696.05
1701.46
1493.62
1425.97
1425.8
1417.59
1400.65
1380.23
1357.54
1322.22
1260.05
1234.18
1250.9
1471.65
1655.13
1684.93
1711.86
1726.34
1402.7
1399.35
1404.7
1401.2
1389.19
1370.14
1346
1305.89
1244.55
1232.92
1257.34
1530.92
1654.27
1689.79
1721.66
1743.79
1384.83
1384.73
1388.57
1386.7
1378.14
1360.57
1331.62
1276.03
1214.82
1214.79
1256.56
1593.52
1651.31
1685.65
1714.93
1753.6
1370.61
1363.65
1366.14
1365.2
1357.86
1337.27
1292.32
1218.63
1196.92
1210.29
1288.76
1710.68
1639.82
1659.5
1668.29
1689.85
1486.35
1409.18
1391.18
1376.39
1313.44
1312.93
1317.33
1315.95
1307.17
1281.52
1239.44
1208.81
1210.06
1239.22
1389.22
1962.18
1615
1616.59
1605.14
1525.92
1428.55
1402.95
1388.98
1367.47
1318.07
1259.24
1229.02
1228.6
1232.11
1243.94
1240.96
1236.77
1253.58
1338.62
1645.76
2545.76
1584.24
1569.83
1552.7
1489.64
1427.94
1407.74
1391.75
1369.28
1322.26
1236.14
1197.62
1205.85
1228.75
1258.77
1287.71
1323.64
1400.67
1629.65
2230.76
3998.92
1549.19
1526.96
1512.65
1460.92
1419.28
1404.11
1389.79
1367.97
1320.44
1235.4
1206.58
1222.47
1302.38
1424.76
1519.24
1615.78
1810.91
2296.62
3617.85
6736.16
1510.52
1488.18
1479.95
1437.23
1402.14
1391.78
1380.97
1360.21
1310.69
1236.13
1230.09
1299.14
1614.84
2044.16
2234.36
2389.72
2775.36
4026.26
6568.96
2257.18
1467.85
1449.52
1448.62
1414.76
1381.46
1372.12
1362.78
1339.29
1283.44
1243.52
1257.43
1414.24
2016.44
3470.28
4486.59
4791.59
5640.14
6127.75
1641.47
351.84
1418.88
1404.74
1412.16
1387.99
1358.26
1347.06
1333.07
1294.39
1238.61
1239.1
1283.21
1506.04
2198.79
4403.6
8112.24
7383.66
4317.48
757.76
349.196
348.189
1354.09
1343.98
1361.87
1346.99
1322.28
1306.12
1277.27
1219.67
1207.07
1234.06
1318.1
1604.7
2363.44
4732.42
7394.8
2497.34
391.632
348.259
348.189
348.189
1269.79
1258.01
1286.39
1276.9
1259.65
1244.14
1214.81
1196.08
1208.52
1250.87
1395.97
1804.82
2766.27
5637.96
4378.13
394.127
348.191
348.189
348.189
348.189
1233.49
1194.15
1225.56
1227.72
1233.7
1232.16
1214.24
1209.25
1237.76
1336.31
1627.15
2297.34
4043.95
6166.68
770.743
348.264
348.189
348.189
348.189
348.189
1250.28
1198
1228.68
1236.94
1250.35
1256.35
1255.25
1287.14
1387.38
1643.57
2230.61
3633.2
6604.29
1660.66
349.24
348.189
348.189
348.189
348.189
348.189
1463.96
1340.95
1355.06
1395.98
1470.14
1528.59
1590.98
1708.09
1958.81
2542.18
4004.54
6765.57
2277.08
351.964
348.189
348.189
348.189
348.189
348.189
348.189
1599.8
1605.87
1622.49
1632.36
1644.98
1650.27
1649.9
1646.62
1633.24
1607.24
1576.36
1542.1
1505.11
1464.79
1419.77
1361.25
1280.88
1235.89
1247.69
1432.62
1605.65
1613.04
1634.44
1650
1668.51
1679.64
1685.38
1680.1
1650.71
1605.81
1557.58
1514.96
1477.86
1441.98
1401.66
1348
1269.04
1199.5
1199.36
1318.35
1622.15
1633.99
1657.15
1672.53
1690.34
1707.05
1717.89
1710.29
1659.13
1592.95
1538.94
1498.99
1467.71
1439.05
1406.45
1361.74
1292.34
1226.57
1226.31
1333.24
1631.9
1649.11
1672.12
1676.14
1690.41
1720.74
1739.85
1749.64
1685.2
1514.43
1476.62
1447.17
1423.53
1402.73
1379.41
1344.25
1281.26
1225.93
1231.15
1364.72
1644.36
1667.33
1688.96
1691.64
1476.35
1413.24
1413.43
1406.72
1391.45
1372.32
1351.54
1320.31
1262.47
1230.62
1242.73
1426.25
1649.78
1678.74
1705.59
1717.28
1397.71
1386.71
1393.16
1391.44
1382.52
1365.65
1342.65
1306.11
1246.11
1228.18
1245.25
1469.43
1649.52
1684.64
1716.91
1738.5
1380.77
1374.5
1378.51
1377.85
1371.62
1356.23
1330.28
1282.95
1216.77
1210
1235.76
1511.07
1646.43
1679.75
1709.79
1748.75
1366.56
1352.63
1355.19
1355.14
1350.49
1334.42
1298.43
1228.77
1186.85
1195.42
1248.69
1598.58
1633.42
1650.6
1658.7
1682.12
1474.66
1394.23
1379.27
1370.08
1308.05
1300.05
1307.03
1306.82
1301.42
1281.02
1237.04
1195.67
1193.96
1211.9
1314.22
1788.76
1607.71
1605.97
1592.32
1513.42
1413.13
1386.76
1375.77
1354.5
1304.32
1252.9
1221.22
1218.27
1216.09
1219.31
1218.38
1213.33
1222.53
1276.51
1502.73
2225.37
1576.98
1557.79
1538.26
1475.15
1412.85
1393.24
1379.4
1356.68
1310.05
1225.9
1170.67
1176.93
1197.91
1223.07
1242.81
1268.12
1321.08
1488.06
1964.91
3238.34
1542.69
1515
1498.25
1445.6
1405.54
1391.22
1378.45
1356.2
1308.8
1222.24
1178.37
1189.09
1235.9
1318.71
1397.75
1480.14
1638.31
2024.43
2949.35
5841.31
1505.63
1477.73
1466.97
1422.16
1390.02
1382.01
1371.98
1350.83
1301.53
1218.35
1200.06
1237.65
1438.67
1741.7
1929.84
2090.5
2411.81
3249.32
5772.63
4067.67
1465.29
1441.91
1438.44
1401.69
1371.06
1365.09
1356.38
1334.02
1279.03
1219.99
1224.65
1322.99
1753.15
2712.89
3549.91
3881.4
4619.78
6248.84
3291.69
384.726
1420.25
1401.95
1406.17
1378.77
1350.58
1342.1
1329.92
1296.87
1233.89
1218.69
1244.38
1406.52
1960.83
3671.94
7138.49
7593.79
5804
1672
360.097
348.19
1361.86
1348.77
1361.95
1344.04
1319.63
1305.41
1281.57
1226.14
1193.87
1213.04
1270.71
1495.04
2138.21
4077.08
7749.64
4323.66
600.728
349.261
348.189
348.189
1281.58
1270.11
1293.01
1281.57
1262.06
1245.2
1214.69
1185.02
1192.58
1222.55
1326.6
1661.6
2478.56
4871.56
5718.92
570.587
348.235
348.189
348.189
348.189
1236.22
1200.13
1226.92
1225.84
1230.01
1227.01
1207.69
1193.59
1210.89
1278.07
1499.77
2059.84
3365.65
6370.15
1535.09
349
348.189
348.189
348.189
348.189
1247.88
1199.76
1226.43
1230.79
1241.9
1243.63
1233.12
1246.62
1314.13
1508.38
1986.23
3018.36
5956.8
3108.35
357.637
348.189
348.189
348.189
348.189
348.189
1432.26
1317.88
1332.3
1362.96
1423.7
1466.04
1507.86
1596.88
1791.12
2239.85
3292.48
5984.8
3914.21
378.547
348.19
348.189
348.189
348.189
348.189
348.189
1597.88
1603.31
1619.92
1629.74
1642.22
1647.57
1647.91
1644.19
1629.73
1603.87
1573.51
1540.12
1504.28
1465.81
1424.13
1371.96
1296.96
1239.15
1245.39
1395.07
1603.09
1611.42
1633.43
1649.06
1666.9
1677.72
1684.27
1677.95
1646.44
1601.32
1553.93
1512.77
1477.52
1443.82
1406.61
1358.97
1288.53
1209.81
1201.65
1294.18
1619.54
1632.91
1656.73
1671.97
1688.5
1705.1
1716.7
1708.2
1654.37
1588.55
1536.45
1498.45
1468.7
1441.7
1412.08
1373.4
1313.52
1244.07
1235.95
1315.24
1629.09
1647.69
1670.51
1676.03
1688.86
1719.14
1740.28
1750.03
1679.27
1508.96
1475.29
1448.08
1425.55
1405.78
1385.28
1357.22
1306.57
1246.6
1245.29
1341.78
1641.63
1665.57
1686.4
1688.42
1464.19
1408.8
1414.03
1410.46
1399.12
1381.35
1361.26
1335.17
1287.2
1244.41
1250.52
1383.87
1647.24
1676.91
1703.62
1715.66
1380.96
1381.14
1391.96
1394.11
1389.45
1375.94
1355.01
1324.17
1269.95
1238.28
1248.58
1409.63
1647.77
1683.89
1715.99
1738.88
1367.37
1369.98
1376.67
1378.31
1375.41
1364.31
1342.78
1304.53
1239.48
1219.3
1234.23
1430.01
1644.37
1678.47
1709.18
1749.59
1356.99
1347.84
1351.45
1353.42
1351.43
1341.15
1314.4
1257.11
1197.47
1199.4
1231.93
1485.16
1630.79
1648.51
1657.14
1682.43
1465.81
1385.48
1372.78
1360.14
1306.55
1296.65
1305.25
1306.32
1303.38
1289
1251.75
1202.34
1195.33
1206.35
1265.84
1612.21
1605.08
1603.23
1590.35
1508.99
1404.65
1384.13
1373.74
1350.34
1298.42
1255.89
1225.19
1219.01
1214.51
1211.4
1210.64
1208.03
1213.18
1244.36
1380.5
1915.85
1574.68
1555.04
1536.48
1472.58
1409.9
1393.08
1378.88
1354.63
1309.27
1230.32
1160.53
1162.26
1179.7
1205.19
1222.72
1241.38
1275.52
1375.67
1698.19
2639.3
1541
1513
1497.35
1444.71
1406.76
1393.96
1379.64
1356.24
1310.26
1226.06
1164.88
1170.85
1198.54
1254.08
1318.22
1383.14
1490.44
1755.25
2434.13
4591.79
1504.81
1477.04
1467.14
1422.54
1395.93
1388.84
1376.49
1354.03
1306.94
1221.14
1184.14
1202.63
1317.09
1526.7
1693.7
1830.43
2069.64
2673.97
4499.68
6112.73
1466.04
1443.06
1440.12
1403.4
1378.47
1374.82
1364.99
1342.68
1291.22
1216.92
1210.77
1264.03
1545
2167.86
2838.06
3180.16
3740.84
5457.62
5479.41
690.58
1424.28
1406.04
1410.76
1383.55
1358.54
1353.64
1342.72
1313.88
1252.37
1215.41
1228.91
1333.91
1734.17
2962.05
5853.34
7167.5
6884.63
3815.2
489.712
348.239
1372.36
1358.91
1372.54
1356.16
1332.62
1322.33
1302.68
1253.92
1203.41
1211.39
1248.6
1404.15
1886.17
3370.45
7503.36
6575.42
1584.77
368.378
348.197
348.189
1297.65
1288.99
1313.1
1306.16
1284.82
1267.39
1235.52
1195.19
1195.78
1216.19
1284.44
1517.43
2137.56
3972.28
6915.29
1442.59
349.649
348.19
348.189
348.189
1239.26
1209.81
1243.29
1245.83
1242.32
1235.77
1215.06
1197.47
1206.37
1247.51
1388.12
1790.48
2760.73
5683.89
3488.09
362.115
348.19
348.189
348.189
348.189
1245.25
1201.22
1234.83
1244.2
1248.49
1245.96
1230.01
1229.63
1265.84
1385.85
1718.1
2484.4
4663.76
5250.94
455.956
348.194
348.189
348.189
348.189
348.189
1393.6
1292.79
1313.41
1339.56
1381.48
1406.5
1426.85
1483.24
1613.93
1927.51
2677.05
4709.05
5966.91
627.027
348.221
348.189
348.189
348.189
348.189
348.189
1596.71
1600.72
1617.72
1626.82
1638.94
1644.22
1645.3
1641.79
1627.36
1602.55
1573.19
1541.24
1507.63
1472.18
1434.36
1388.07
1320.06
1254.81
1255.88
1378.63
1600.49
1607.93
1631.33
1645.96
1663.66
1674.4
1681.7
1675.38
1643.17
1598.25
1551.24
1510.8
1477.18
1446.49
1413.91
1372.97
1311.42
1231.44
1213.85
1288.94
1617.38
1631.17
1654.84
1667.99
1684.17
1701.19
1713.61
1705.24
1650.22
1584.04
1533.33
1497.08
1468.88
1443.69
1416.98
1383.56
1332.36
1264.45
1249.1
1313.73
1626.24
1645.37
1667.21
1670.67
1683.91
1712.17
1735.41
1745.37
1670.11
1499.57
1470.13
1446.5
1426.36
1408.49
1390.44
1367.45
1326.61
1267.5
1260.52
1337.96
1638.19
1662.44
1682.15
1678.57
1454.31
1402.65
1412.07
1410.95
1402.96
1387.51
1368.87
1346.91
1307.93
1261.67
1264.04
1371.49
1643.95
1673.81
1700.29
1710.9
1387.09
1387.72
1397.91
1400.86
1396.98
1384.88
1365.83
1339.62
1293.19
1254.58
1261.18
1391.64
1645.1
1681.33
1713.07
1734.74
1378.78
1381.53
1386.74
1387.84
1385.41
1375.84
1356.99
1324.35
1264.73
1234.49
1245.75
1406.16
1641.97
1675.65
1705.47
1744.73
1366.08
1363.22
1365.72
1368.09
1366.54
1357.74
1334.28
1284.11
1219.32
1215.81
1240.38
1451.78
1628.19
1644.74
1652.31
1673.96
1458.7
1386.34
1378.93
1367.37
1318.68
1314.84
1324.4
1327.39
1325.68
1313.95
1280.6
1227.87
1212.52
1221.14
1266.53
1558.96
1603.41
1600.11
1586.49
1502.81
1401.83
1385.78
1379.9
1361.96
1316.59
1276.94
1251.41
1248.68
1245.21
1239.89
1233.95
1227.4
1229.49
1252.66
1356.75
1817.06
1573.96
1552.66
1534.93
1470.96
1410.48
1396.93
1385.3
1364.75
1325.92
1254.9
1187.66
1187.57
1201.96
1226.72
1242.15
1255.74
1282.26
1358.28
1616.52
2439.82
1541.89
1511.61
1497.68
1446.25
1409.23
1399.89
1386.86
1366.92
1327.51
1251.83
1189.49
1194.01
1217.26
1264.45
1319.64
1375.46
1461.64
1675.61
2254.83
4103.93
1508.18
1477.55
1468.91
1425.77
1401.05
1395.82
1384.42
1365.32
1325.19
1247.09
1204.87
1219.83
1308.82
1486.78
1642.45
1764.95
1963.62
2475.24
3995.56
6975.25
1472.69
1446.67
1443.5
1407.84
1385.48
1383.39
1374.77
1356.12
1312.05
1240.29
1229.26
1270.01
1497.16
2017.41
2627.8
2961.91
3454.97
4972.62
6659.33
1453.25
1434.89
1414.17
1416.81
1389.82
1366.96
1364.12
1355.66
1331.85
1277.24
1234.04
1244.16
1328.42
1666.37
2698.37
5344.72
6935.56
7297.49
5521.35
904.111
348.862
1388.84
1373.58
1383.66
1366.98
1345.28
1337.81
1322.28
1280.12
1225.21
1226.7
1258.17
1386.85
1796.68
3071.19
7189.67
7957.46
3203.02
464.778
348.309
348.189
1321.27
1312.61
1332.93
1326.49
1306.62
1291.15
1261.33
1215.47
1210.44
1228.77
1285.17
1474.8
1998.26
3572.69
7409.25
3037.92
363.717
348.194
348.189
348.189
1255.39
1232.55
1264.91
1267.15
1260.18
1252.25
1230.68
1212.57
1218.86
1251.79
1361.68
1689.61
2512.81
5093.34
5302.58
440.898
348.192
348.189
348.189
348.189
1256.03
1214.08
1248.94
1259.73
1262.44
1258.83
1241.92
1237.1
1263.56
1355.11
1620.24
2269.96
4049.39
6534.9
816.774
348.272
348.189
348.189
348.189
348.189
1376.66
1287.64
1312.34
1336.03
1368.92
1388.29
1401.72
1446.84
1553.87
1813.81
2442.63
4126.36
6913.59
1330.54
348.69
348.189
348.189
348.189
348.189
348.189
1594.21
1597.3
1615.57
1624.25
1636.45
1642.24
1643.87
1640.75
1626.24
1602.13
1573.37
1542.75
1511.38
1478.76
1443.95
1401.16
1337.35
1269.42
1267.08
1376.63
1597.11
1604.47
1629.75
1644.03
1662
1673.06
1680.71
1674.5
1641.45
1595.73
1548.43
1509.14
1478.1
1451.05
1422.64
1386.04
1329.28
1250.72
1227.24
1293.35
1615.22
1629.16
1653.03
1665.45
1682.07
1700.08
1712.54
1703.97
1647.83
1579.64
1528.1
1493.33
1468.32
1447.23
1425.04
1396.27
1350.39
1285.42
1265.36
1321.18
1623.59
1642.6
1664.11
1666.02
1676.44
1710.01
1733.49
1743.03
1666.89
1495.66
1464.53
1441.74
1424.82
1411.43
1398.26
1380.52
1346.24
1290.32
1278.98
1346.49
1635.75
1660.38
1679.86
1675.46
1450.81
1400.22
1408.7
1408.54
1403.24
1391.52
1377.01
1359.76
1327.21
1281.66
1281.4
1376.46
1641.92
1672.27
1698.54
1707.55
1387.47
1388.29
1398.62
1404.15
1401.53
1392.19
1376.61
1354.46
1313.43
1274.08
1278.32
1395.65
1643.72
1680.33
1711.94
1732.87
1387.29
1387.79
1392.73
1396.46
1395.06
1387.67
1371.51
1342.17
1286.26
1253.43
1262.22
1408.85
1640.69
1674.5
1704.02
1742.79
1382.33
1378.94
1380.7
1383.87
1383.02
1375.38
1353.4
1305.42
1240.65
1235.03
1256.07
1452.87
1626.87
1642.67
1649.44
1668.93
1451.66
1384.57
1382.81
1378.49
1339.57
1340.09
1348.51
1350.88
1349.24
1337.68
1304.87
1251.74
1233.56
1240.33
1280.23
1556.99
1603.11
1597.75
1582.3
1499.15
1403.03
1387.5
1384.73
1375.37
1339.89
1304.34
1282.93
1280.15
1276.05
1268.35
1259.48
1250.05
1250.23
1269.2
1364.69
1808.3
1574.64
1550.73
1530.94
1467.66
1410.37
1397.94
1390.13
1377.52
1346.92
1283.46
1219.07
1217.88
1229.43
1252.06
1265.86
1276.27
1298.97
1368.55
1611.89
2414.48
1544.14
1511.24
1495.69
1443.95
1409.45
1403.27
1394.57
1381.1
1348.85
1279.87
1218.58
1221.65
1242.19
1286.19
1337.75
1389.96
1470.69
1672.85
2228.24
4022.02
1512.77
1479.9
1470.17
1426.33
1403.19
1400.54
1393.37
1380.42
1346.87
1274.86
1230.19
1243.11
1325.66
1496.85
1649.86
1769.58
1958.22
2445.97
3902.16
7258.32
1480.13
1452.62
1448.75
1412.63
1391.07
1391.2
1386.34
1372.97
1334.54
1266.53
1252.48
1288.33
1502.27
2004.56
2613.31
2945.13
3423.23
4880.14
7082.67
2045.45
1445.32
1424.12
1426.4
1399.4
1376.82
1375.91
1370.56
1351.2
1301.12
1257.93
1265.86
1341.92
1662.9
2654.77
5288.76
6953.91
7483.88
6265.75
1282.9
350.152
1402.68
1387.65
1397.67
1381.78
1360.13
1354.3
1341.58
1303.29
1248.85
1248.44
1276.52
1395.35
1785.52
3009.33
7127.1
8547.36
4176.95
579.992
348.562
348.189
1339.22
1331.28
1352.1
1347.91
1328.37
1313.83
1285.67
1238.59
1231.5
1248.75
1299.35
1475.83
1973.5
3487.93
7573.2
4049.4
390.795
348.208
348.189
348.189
1270.51
1252.52
1286.98
1291.78
1282.34
1273.63
1251.66
1232.9
1238.31
1267.5
1367.99
1675.55
2459.26
4936.75
6112.83
547.337
348.203
348.189
348.189
348.189
1267.46
1227.71
1265.82
1279.36
1281.46
1277.46
1260.13
1253.6
1277.14
1360.45
1607.37
2226.43
3910.14
6995.69
1183.4
348.478
348.189
348.189
348.189
348.189
1374.69
1292.19
1320.16
1345.25
1374.38
1392.67
1404.39
1446.74
1548.41
1796.95
2400.29
4003.44
7202.22
1926.05
349.798
348.189
348.189
348.189
348.189
348.189
1594.19
1597.3
1615.6
1624.27
1636.52
1642.35
1643.99
1640.74
1626.17
1602.09
1573.36
1542.76
1511.37
1478.75
1443.94
1401.15
1337.36
1269.47
1267.14
1376.7
1597.07
1604.42
1629.72
1643.91
1662.06
1673.25
1680.93
1674.47
1641.36
1595.73
1548.61
1509.38
1478.32
1451.21
1422.74
1386.12
1329.38
1250.88
1227.42
1293.49
1615.18
1629.04
1652.84
1664.78
1682.07
1700.46
1712.86
1703.84
1647.83
1579.96
1528.58
1493.72
1468.54
1447.36
1425.13
1396.38
1350.58
1285.68
1265.57
1321.28
1623.55
1642.5
1664.21
1665.5
1674.53
1711.09
1733.72
1743.4
1666.57
1496.29
1465.82
1442.71
1425.25
1411.57
1398.29
1380.57
1346.43
1290.57
1279.09
1346.38
1635.67
1660.23
1679.56
1675.36
1449.04
1399.21
1408.61
1408.43
1403.16
1391.47
1376.96
1359.74
1327.36
1281.7
1281.31
1375.89
1641.84
1672.1
1698.17
1706.02
1379.59
1384.46
1395.97
1402.86
1400.54
1391.58
1376.25
1354.28
1313.5
1273.93
1278.08
1395.15
1643.65
1680.19
1711.74
1732.32
1381.33
1384.5
1390.16
1394.84
1393.68
1386.66
1370.78
1341.74
1286.16
1253.16
1261.93
1408.66
1640.62
1674.41
1703.97
1743.1
1385.69
1376.72
1378.61
1382.15
1381.41
1373.95
1352.16
1304.38
1239.92
1234.45
1255.7
1453.26
1626.8
1642.73
1649.73
1670.91
1448.42
1383.85
1382.2
1382.84
1349.55
1339.61
1347.26
1349.47
1347.7
1335.88
1302.82
1250.01
1232.69
1239.68
1280.15
1558.26
1602.99
1597.7
1582.5
1498.37
1401
1387.01
1384.88
1375.53
1339.21
1303.54
1282.32
1278.98
1274.31
1266.42
1257.77
1248.77
1249.3
1268.87
1365.62
1811.16
1574.5
1550.64
1530.97
1467.72
1410.51
1397.97
1390.25
1377.5
1346.25
1282.26
1217.84
1216.68
1228.24
1250.9
1264.66
1275.42
1298.67
1369.51
1614.81
2420.27
1544.01
1511.19
1495.74
1444.42
1410.07
1403.75
1394.59
1380.9
1348.14
1278.43
1216.93
1220.27
1241.02
1285.05
1337.05
1390.11
1472.24
1676.2
2234.25
4034.53
1512.66
1479.9
1470.25
1426.86
1404.26
1401.14
1393.44
1380.21
1346.13
1273.34
1228.52
1241.57
1323.8
1494.4
1649.13
1771.49
1962.59
2453.33
3916.19
7251.13
1480.04
1452.66
1448.84
1413.11
1392.13
1391.91
1386.54
1372.8
1333.92
1265.36
1251.21
1286.8
1498.87
1997.35
2610.34
2950.57
3434.77
4900.54
7069.04
1997.91
1445.24
1424.15
1426.5
1399.82
1377.56
1376.63
1370.93
1351.21
1300.88
1257.41
1265.23
1340.58
1659.29
2644.32
5277.68
6968.49
7502
6242.05
1254.32
350.005
1402.55
1387.61
1397.77
1382.2
1360.61
1354.98
1342.16
1303.74
1249.3
1248.88
1276.49
1394.42
1783.56
3004.46
7118.02
8539.9
4156.43
572.952
348.536
348.189
1339
1331.12
1352.19
1348.43
1328.73
1314.55
1286.59
1239.58
1232.54
1249.42
1299.65
1475.79
1973.85
3490.02
7571.92
4043.99
390.273
348.207
348.189
348.189
1270.32
1252.29
1287.11
1292.31
1282.66
1274.3
1252.63
1233.96
1239.32
1268.39
1368.83
1676.96
2462.84
4949.35
6112.1
547.94
348.203
348.189
348.189
348.189
1267.35
1227.59
1265.94
1279.71
1281.8
1278.09
1261.06
1254.63
1278.31
1361.9
1609.41
2230.1
3921.39
7001.63
1184.71
348.48
348.189
348.189
348.189
348.189
1374.78
1292.25
1320.33
1345.52
1374.69
1393.18
1405.26
1447.92
1550.06
1799.47
2404.87
4014.64
7209.91
1924.72
349.797
348.189
348.189
348.189
348.189
348.189
1596.66
1600.71
1617.81
1626.99
1639.06
1644.43
1645.46
1641.85
1627.07
1602.26
1572.97
1541.14
1507.59
1472.17
1434.32
1387.97
1319.92
1254.92
1256.1
1379.07
1600.38
1607.83
1631.53
1646.39
1664.04
1674.82
1682.02
1675.34
1642.39
1597.47
1550.77
1510.65
1477.17
1446.51
1413.87
1372.87
1311.27
1231.55
1214.24
1289.42
1617.22
1630.74
1654.55
1667.56
1684.49
1702.08
1714.1
1704.97
1649.03
1582.7
1532.51
1496.79
1468.8
1443.62
1416.8
1383.3
1332.03
1264.18
1249.09
1313.87
1626.02
1644.64
1666.65
1666.67
1677.57
1712.8
1734.95
1744.03
1666.8
1497.6
1469.18
1446.1
1426.01
1407.99
1389.71
1366.55
1325.6
1266.62
1259.83
1337.46
1638.03
1661.86
1681.33
1676.74
1445.07
1400.51
1410.69
1409.89
1402.27
1386.81
1367.78
1345.41
1306.15
1260.08
1262.62
1370.21
1643.77
1673.41
1699.45
1706.75
1383.18
1385.83
1396.83
1400.16
1396.31
1384.08
1364.63
1337.93
1291.09
1252.68
1259.55
1390.76
1644.94
1681.02
1712.62
1733.06
1383.02
1379.91
1385.22
1386.89
1384.51
1374.89
1355.73
1322.52
1262.36
1232.52
1244.14
1406.29
1641.8
1675.13
1704.56
1742.88
1376.19
1360.65
1363.82
1366.47
1364.94
1356.06
1332.26
1281.37
1216.92
1214.06
1239.41
1453.73
1627.6
1643.3
1650.24
1669.31
1446.33
1384.9
1384.5
1378.37
1322.96
1313.46
1323.28
1325.77
1323.87
1311.65
1277.61
1225.28
1210.88
1219.85
1266.67
1564.04
1602.89
1598.69
1584.46
1500.55
1402.56
1387.22
1381.19
1362.56
1315.49
1276.22
1251.24
1247.87
1243.85
1238.14
1232.35
1225.89
1228.37
1252.57
1360.03
1828.3
1573.54
1551.73
1533.84
1470.7
1411.74
1397.66
1386.15
1365.19
1325.19
1253.47
1186.66
1186.95
1201.72
1226.21
1241.41
1255.45
1282.93
1361.77
1627.01
2464.33
1541.61
1511.23
1497.5
1446.82
1410.59
1400.71
1387.49
1367.3
1327.02
1250.2
1187.84
1193
1216.87
1264.26
1320.16
1377.75
1467.24
1687.46
2278.76
4168.36
1508.06
1477.57
1469.17
1426.44
1402.51
1396.75
1385.06
1365.68
1324.92
1245.72
1203.05
1218.06
1305.83
1483.04
1643.28
1772.74
1979.67
2505.18
4066.33
6950.48
1472.69
1446.88
1443.87
1408.38
1386.85
1384.42
1375.42
1356.64
1312.3
1239.27
1227.64
1266.93
1487.88
1998.71
2626.58
2989.47
3507.91
5066.52
6603.66
1359.03
1434.93
1414.39
1417.16
1390.22
1368.01
1365.08
1356.35
1332.68
1278
1233.44
1243.04
1324.34
1653.79
2658.82
5308.01
7008.55
7356.47
5424.66
851.073
348.731
1388.79
1373.69
1383.95
1367.33
1346.08
1338.71
1323.2
1281.5
1225.98
1226.95
1257.4
1382.78
1785.45
3037.98
7123.77
7952.95
3140.46
452.965
348.285
348.189
1321.02
1312.48
1333.15
1326.88
1307.34
1292.16
1262.77
1217.04
1211.51
1229.37
1284.79
1471.6
1990.6
3553.28
7395.68
3076.82
363.465
348.193
348.189
348.189
1255.3
1232.4
1265.18
1267.66
1260.9
1253.26
1232.34
1214.15
1220.24
1252.98
1362.04
1688.27
2510.6
5092.09
5352.49
446.052
348.193
348.189
348.189
348.189
1256.07
1214.19
1249.35
1260.31
1263.15
1259.87
1243.72
1239
1265.68
1357.46
1622.2
2272.14
4056.81
6568.08
833.841
348.279
348.189
348.189
348.189
348.189
1377.26
1288.18
1313.01
1336.71
1369.52
1389.45
1403.84
1449.79
1557.7
1818.41
2448.72
4138.85
6934.33
1351
348.718
348.189
348.189
348.189
348.189
348.189
1597.87
1603.37
1620.05
1629.95
1642.45
1647.77
1648.08
1644.27
1629.49
1603.54
1573.14
1539.72
1503.87
1465.39
1423.69
1371.45
1296.43
1239.12
1245.53
1395.95
1602.99
1611.34
1633.53
1649.26
1667.29
1678.07
1684.55
1678.06
1645.79
1600.5
1553.02
1511.83
1476.57
1442.95
1405.85
1358.23
1287.76
1209.53
1201.71
1294.81
1619.36
1632.66
1656.58
1671.61
1688.9
1705.7
1717.1
1708.26
1653.26
1586.74
1534.74
1497.02
1467.5
1440.61
1411.12
1372.5
1312.52
1243.21
1235.37
1315.22
1628.82
1647.26
1670.32
1674.64
1685.98
1718.03
1739.1
1748.72
1673.73
1506.03
1472.25
1445.5
1423.47
1403.96
1383.55
1355.44
1304.59
1245.04
1244
1341.19
1641.35
1664.99
1685.62
1684.56
1452.89
1405.23
1410.89
1407.81
1397.06
1379.68
1359.63
1333.2
1284.7
1242.58
1248.86
1382.92
1647.1
1676.63
1703.07
1711.74
1382.38
1381.54
1392.39
1393.99
1389.2
1375.45
1354.07
1322.29
1267.13
1236.21
1246.72
1409.56
1647.67
1683.68
1715.71
1736.98
1375.03
1372.29
1378.08
1379.27
1376.21
1364.66
1342.2
1302.42
1236.4
1217.04
1232.42
1432.02
1644.23
1677.99
1708.31
1747.79
1363.87
1349.98
1353.15
1354.96
1352.72
1341.74
1313.64
1254.65
1195.68
1198.15
1231.64
1490.45
1630.2
1647.17
1655.25
1678.67
1456.31
1385.36
1376.21
1363.03
1304.62
1296.57
1305.93
1307.08
1304.01
1289.01
1250.7
1201.26
1194.55
1206.01
1268.04
1623.34
1604.47
1602.02
1588.93
1508.05
1405.64
1382.88
1372.46
1349.06
1296.55
1253.98
1224.44
1218.95
1214.52
1211.54
1210.86
1208.02
1213.52
1246.29
1388.55
1938.36
1574.06
1554.23
1536.04
1472.94
1410.8
1393.32
1378.65
1353.74
1308.23
1228.53
1159.98
1162.28
1180.05
1205.74
1223.54
1243.02
1278.96
1384
1718.78
2687.65
1540.49
1512.63
1497.55
1445.54
1407.64
1394.48
1380
1355.89
1309.54
1224.7
1164.21
1170.67
1198.99
1255.59
1321.61
1389.68
1502.37
1778.16
2479.08
4717.89
1504.45
1477.03
1467.63
1423.39
1396.87
1389.52
1376.95
1353.77
1306.35
1220
1183.31
1201.37
1313.73
1525.39
1701.23
1848.32
2101.2
2730.89
4637.06
5993.65
1465.82
1443.21
1440.66
1404.1
1379.59
1375.66
1365.44
1342.62
1290.89
1216.02
1209.87
1260.47
1531.36
2143.22
2855.24
3244.75
3852.68
5613
5333.67
640.277
1424.11
1406.15
1411.21
1384.07
1359.73
1354.49
1343.08
1314.07
1252.02
1214.46
1227.69
1328.22
1713.74
2888.94
5803.57
7302.68
6919.48
3646.61
467.181
348.225
1372.04
1358.81
1372.83
1356.55
1333.77
1323.2
1303.22
1254.42
1202.84
1210.7
1247.05
1397.29
1864.06
3293.04
7387.55
6604.72
1531.15
364.858
348.195
348.189
1297.15
1288.62
1313.21
1306.44
1285.94
1268.38
1236.71
1195.92
1195.87
1215.82
1282.77
1509.91
2116.27
3901.52
6942
1515.54
349.661
348.19
348.189
348.189
1239.22
1209.74
1243.61
1246.32
1243.41
1236.97
1216.9
1198.48
1207.01
1247.93
1386.76
1783.21
2741.53
5642.29
3628.04
364.466
348.19
348.189
348.189
348.189
1245.41
1201.49
1235.39
1244.84
1249.5
1247.24
1232.09
1231.54
1267.95
1388.05
1717.93
2478.51
4638.45
5344.29
467.524
348.195
348.189
348.189
348.189
348.189
1394.8
1293.86
1314.53
1340.62
1382.5
1408.54
1430.16
1487.82
1619.57
1932.98
2679.49
4702.58
6025.87
646.828
348.226
348.189
348.189
348.189
348.189
348.189
1599.82
1605.96
1622.64
1632.65
1645.13
1650.29
1649.86
1646.5
1633.01
1606.93
1575.97
1541.66
1504.69
1464.41
1419.38
1360.79
1280.4
1235.78
1247.74
1433.51
1605.59
1613.04
1634.59
1650.48
1668.87
1679.75
1685.35
1679.9
1650.25
1605.23
1556.9
1514.24
1477.26
1441.51
1401.22
1347.45
1268.36
1199.21
1199.25
1319.01
1622.03
1633.83
1657.15
1673.04
1691.03
1707.34
1717.98
1710.04
1658.61
1592.17
1538.14
1498.27
1467.17
1438.64
1406.07
1361.27
1291.68
1226.14
1226.03
1333.59
1631.64
1648.65
1671.62
1677.73
1691.24
1721.68
1741.4
1750.99
1682.84
1513.56
1476.09
1446.77
1423.29
1402.54
1379.16
1343.77
1280.47
1225.46
1230.8
1364.77
1644.26
1666.97
1688.26
1689.88
1465.7
1411.9
1412.38
1406.28
1391.71
1372.9
1351.95
1320.12
1261.72
1230.19
1242.35
1425.97
1649.85
1678.74
1705.43
1716.18
1384.89
1385.79
1392.51
1390.99
1382.43
1365.82
1342.72
1305.58
1245.28
1227.72
1244.8
1469.75
1649.63
1684.77
1716.98
1739.64
1372.73
1374.72
1377.96
1377.18
1371.09
1355.9
1329.79
1281.86
1215.82
1209.39
1235.44
1513.35
1646.61
1679.87
1709.81
1750.47
1361.27
1352.43
1354.07
1353.78
1349.02
1333.09
1297.01
1227.15
1186.41
1195.2
1249.47
1604.33
1633.37
1650.53
1658.71
1680.53
1467.09
1385.97
1372.39
1361.73
1305.79
1300.24
1305.43
1304.75
1298.79
1278.1
1234.35
1194.7
1193.57
1212.17
1317.8
1801.2
1607.42
1605.65
1592.17
1513.76
1412.77
1387.24
1376.8
1355.52
1304.73
1252.86
1219.75
1216.09
1213.62
1216.73
1216.76
1212.47
1222.46
1279.06
1513.09
2251.87
1576.49
1557.22
1537.82
1475.29
1412.65
1393.45
1379.88
1357.15
1310.54
1226.26
1169.71
1175.74
1196.06
1220.9
1241.63
1268.51
1324.39
1498.33
1988.44
3301.11
1542.12
1514.33
1497.61
1445.5
1405.78
1391.6
1378.86
1356.74
1309.55
1222.92
1177.3
1187.7
1234.45
1318.78
1400.71
1487.13
1651.87
2050.07
3007.46
5966.77
1505.01
1477.04
1466.3
1422
1390.65
1382.58
1372.36
1351.53
1302.69
1218.96
1199.13
1235.97
1436.44
1743.67
1942.33
2113.45
2449.46
3325.13
5907.31
3905.64
1464.64
1441.23
1437.87
1401.62
1371.87
1365.76
1356.87
1334.86
1280.57
1220.23
1224.2
1320.62
1743.01
2693.24
3591.55
3972.75
4758.95
6326.91
3143.84
378.843
1419.61
1401.24
1405.66
1378.77
1351.4
1342.81
1330.55
1297.84
1235.31
1218.94
1244.1
1403.08
1944.38
3601.11
7121.98
7688.13
5776.5
1586.97
358.139
348.19
1361.15
1347.97
1361.41
1344.05
1320.4
1306.21
1282.46
1227.31
1195.29
1213.84
1270.61
1490.63
2119.47
3996.13
7720.68
4391.4
589.521
349.093
348.189
348.189
1280.82
1269.19
1292.32
1281.49
1262.81
1246.18
1216.11
1186.77
1194.2
1223.75
1326.71
1656.45
2459.21
4798.11
5823.02
595.945
348.237
348.189
348.189
348.189
1235.98
1199.66
1226.69
1226.19
1230.84
1228.09
1209.4
1195.55
1212.86
1280.19
1500.47
2054.64
3341.75
6376.02
1623.55
349.155
348.189
348.189
348.189
348.189
1247.89
1199.57
1226.48
1231.35
1242.85
1244.97
1235.24
1249.35
1317.67
1512.62
1988.54
3013.42
5937.92
3213.73
358.916
348.189
348.189
348.189
348.189
348.189
1433.75
1319.17
1333.75
1364.83
1425.84
1468.7
1511.65
1602.06
1798.29
2248.54
3299.97
5984.87
3994.24
381.454
348.19
348.189
348.189
348.189
348.189
348.189
1600.85
1609.67
1627.42
1637.97
1649.97
1655.54
1654.55
1651.37
1640.17
1615.58
1584.78
1549.59
1510.7
1467.87
1418.8
1353.94
1269.58
1233.21
1250.03
1463.93
1609.44
1619.62
1641.06
1656.66
1674.6
1685.72
1690.39
1686.09
1660.66
1617.77
1571.01
1527.9
1488.72
1449.75
1404.85
1344.09
1258.07
1193.92
1197.72
1340.93
1627.06
1640.56
1663.71
1679.36
1697.77
1713.09
1722.58
1715.79
1670.09
1607.09
1554.18
1513.67
1480.6
1448.94
1412.19
1361.76
1286.19
1225.35
1228.52
1355.32
1637.33
1655.28
1677.94
1679.14
1696.31
1723.85
1741.5
1750.32
1689.71
1528.68
1491.29
1462.05
1438.09
1415.47
1388.58
1347.5
1277.39
1227.92
1237.11
1396.58
1649.35
1673.04
1695.24
1694.35
1477.36
1426.83
1426.81
1418.9
1402.14
1381.59
1358.45
1322.61
1260.11
1234.16
1250.88
1471.32
1655.33
1685.05
1711.8
1719.84
1395.52
1397.92
1404.45
1401.41
1389.92
1371.04
1346.63
1306.27
1244.75
1232.95
1257.35
1530.65
1654.54
1690.11
1721.97
1740.3
1378.13
1382.14
1387.29
1385.91
1378.01
1360.83
1332.02
1276.7
1215.17
1214.92
1256.62
1594.16
1651.7
1686.08
1715.31
1750.38
1365.48
1360.51
1363.88
1363.33
1356.81
1336.92
1292.48
1218.54
1196.47
1210
1289.33
1713.34
1639.98
1659.27
1667.57
1685.5
1477.11
1397.9
1381.77
1371.25
1310.82
1310.2
1314.79
1313.62
1305.35
1280.04
1237.47
1207.53
1209.15
1239.09
1391.33
1968.6
1614.9
1616.15
1603.78
1523.63
1428.29
1402.29
1387.69
1366.42
1316.9
1257.12
1226.36
1226.01
1229.19
1240.55
1238.07
1234.6
1252.37
1339.69
1651.43
2560.58
1583.99
1569.06
1551.13
1487.55
1427.58
1407.56
1391.39
1368.72
1321.51
1235.31
1195.54
1203.43
1225.51
1254.85
1284.16
1321.32
1400.8
1634.47
2243.44
4038.83
1548.75
1525.96
1511.14
1459.14
1418.87
1403.86
1389.54
1367.69
1320.04
1235.11
1204.95
1220.3
1299.33
1421.29
1516.68
1615.6
1815.03
2308.68
3654.76
6753
1509.93
1487.13
1478.6
1435.76
1401.76
1391.45
1380.91
1360.44
1311.2
1236.32
1229.38
1298.42
1613.69
2040.19
2233.05
2393.89
2789.88
4067.26
6587.33
2198.2
1467.18
1448.55
1447.43
1413.56
1381.08
1371.8
1362.89
1339.96
1284.92
1244.43
1257.92
1415.55
2017.98
3466.48
4495.12
4821.91
5688.77