/*--------------------------------*- C++ -*----------------------------------*\
  =========                 |
  \\      /  F ield         | OpenFOAM: The Open Source CFD Toolbox
   \\    /   O peration     | Website:  https://openfoam.org
    \\  /    A nd           | Version:  9
     \\/     M anipulation  |
\*---------------------------------------------------------------------------*/
FoamFile
{
    format      ascii;
    class       volVectorField;
    location    "0.0015";
    object      U;
}
// * * * * * * * * * * * * * * * * * * * * * * * * * * * * * * * * * * * * * //

dimensions      [0 1 -1 0 0 0 0];

internalField   nonuniform List<vector> 
9720
(
(-1580.65 -1580.5 -215.87)
(-1096.72 -1591.17 -266.834)
(-802.514 -1634.16 -296.971)
(-490.184 -1641.71 -330.701)
(-157.418 -1696.77 -326.796)
(190.019 -1710.57 -363.16)
(534.613 -1735.51 -374.537)
(865.333 -1734.68 -390.83)
(1222.21 -1750.57 -400.346)
(1598.35 -1700.97 -397.613)
(1960.26 -1622.08 -388.427)
(2303.38 -1544.42 -376.339)
(2634.03 -1482.27 -361.995)
(2955.75 -1432.63 -345.012)
(3265.4 -1391.4 -325.546)
(3532.87 -1372.83 -309.339)
(3743.08 -1385.11 -303.082)
(4009.36 -1387.3 -280.829)
(4275.3 -1244.81 -219.796)
(4238.23 -1042.76 -184.573)
(-1590.94 -1095.63 -267.313)
(-1130.38 -1129.18 -333.067)
(-855.154 -1187.31 -367.707)
(-553.292 -1231.63 -398.372)
(-219.214 -1336.56 -393.802)
(156.173 -1391.93 -418.266)
(515.005 -1425.73 -438.367)
(862.277 -1442.25 -457.325)
(1293.03 -1397.67 -473.609)
(1699.63 -1221.76 -476.715)
(2058.09 -1049.77 -467.019)
(2383.05 -917.37 -450.505)
(2688.93 -830.958 -430.396)
(2985.98 -773.61 -406.15)
(3275.6 -728.732 -377.299)
(3537.09 -695.408 -351.453)
(3742.22 -684.932 -345.965)
(3970.89 -690.52 -345.587)
(4306.13 -630.454 -276.594)
(4396.5 -557.157 -212.355)
(-1633.38 -800.864 -297.611)
(-1187.46 -853.228 -367.619)
(-923.901 -923.53 -387.799)
(-641.343 -994.399 -393.42)
(-301.59 -1147.59 -407.033)
(107.389 -1223.01 -417.329)
(503.266 -1253.96 -444.038)
(875.353 -1269.31 -463.489)
(1414.54 -1143.1 -472.589)
(1864.6 -842.186 -471.469)
(2196.89 -604.834 -468.256)
(2487.02 -471.072 -456.004)
(2763.35 -399.8 -436.353)
(3038.02 -354.608 -409.458)
(3313.01 -313.617 -377.926)
(3570.77 -281.419 -348.852)
(3777.98 -276.456 -333.144)
(3990.92 -279.473 -322.537)
(4274.56 -226.297 -260.484)
(4354.05 -173.816 -208.095)
(-1639.49 -488.381 -331.103)
(-1228.07 -550.624 -396.027)
(-989.373 -639.139 -385.444)
(-832.037 -831.114 -374.46)
(-517.713 -957.893 -402.433)
(-47.6706 -1075.4 -403.612)
(385.847 -1110.78 -425.631)
(763.676 -1068.91 -439.903)
(1352.79 -985.833 -463.185)
(2141.3 -193.293 -394.024)
(2357.12 6.65533 -404.724)
(2594.1 91.1773 -439.848)
(2846.78 136.732 -469.214)
(3110.45 167.271 -480.419)
(3377.18 189.467 -477.466)
(3618.76 198.781 -475.438)
(3800.49 194.645 -489.534)
(4007.33 201.382 -484.174)
(4239.61 197.625 -380.385)
(4245.96 183.293 -332.181)
(-1694.32 -157.654 -327.991)
(-1332.13 -218.915 -391.843)
(-1141.25 -301.12 -396.278)
(-961.64 -511.477 -371.63)
(2049.4 37.8741 -492.518)
(2298.08 546.611 -396.204)
(2368.37 593.694 -413.381)
(2509.2 607.545 -437.024)
(2723.02 606.911 -458.346)
(2986.84 609.086 -467.861)
(3272.48 615.812 -468.736)
(3527.35 623.336 -489.242)
(3732.44 633.067 -521.913)
(3986.56 622.309 -487.384)
(4133.72 538.537 -371.045)
(4077.77 495.664 -333.21)
(-1708.62 188.762 -365.436)
(-1389.76 154.275 -421.246)
(-1221.46 104.667 -420.343)
(-1077.56 -51.6323 -405.133)
(2514.09 828.335 -415.649)
(2629 953.465 -388.578)
(2631.79 971.63 -390.607)
(2678.27 987.269 -397.507)
(2797.7 997.361 -410.922)
(2990.36 1004.2 -426.611)
(3228.85 1002.77 -445.03)
(3452 998.811 -483.945)
(3668.55 998.821 -517.384)
(3969.17 943.831 -459.889)
(4090.11 823.996 -341.304)
(4008.64 774.73 -307.61)
(-1733.11 533.175 -377.405)
(-1422.89 513.269 -441.627)
(-1252.27 500.684 -447.521)
(-1111.95 381.776 -430.829)
(2713.34 1239.8 -401.176)
(2824.79 1364.55 -352.208)
(2803.46 1392.2 -355.897)
(2817.67 1403.04 -358.175)
(2881.14 1417.21 -372.415)
(3021.73 1423.13 -398.105)
(3228.13 1397.63 -432.327)
(3443.16 1359.4 -482.81)
(3712.01 1325.22 -500.102)
(4033.84 1216.17 -407.595)
(4090.67 1102.46 -314.843)
(3958.77 1044.69 -287.615)
(-1735.3 863.647 -391.339)
(-1443.44 861.271 -458.242)
(-1270.42 876.016 -465.823)
(-1072.28 758.2 -444.32)
(2842.97 1664.51 -336.495)
(3059.27 1764.55 -343.696)
(3047.38 1769.47 -340.955)
(3032.19 1785.01 -362.174)
(3061.73 1798 -390.11)
(3169.21 1777.52 -415.087)
(3353.58 1716.17 -443.98)
(3575.31 1678.88 -472.393)
(3894.8 1635.15 -440.026)
(4091.21 1488.2 -343.737)
(4037.81 1366.25 -295.275)
(3801.43 1270.56 -278.957)
(-1749.6 1223.59 -401.641)
(-1392.46 1296.82 -477.314)
(-1134.92 1421.55 -479.067)
(-965.292 1377.65 -468.023)
(57.5238 2083.93 -436.37)
(799.284 2540.83 -400.705)
(1228.59 2740.17 -371.636)
(1670.42 2868.04 -300.403)
(2671.79 2787.9 -303.146)
(3113.77 2349.44 -298.448)
(3190.27 2229.43 -331.123)
(3249.43 2183.25 -371.687)
(3331.43 2136.69 -388.856)
(3456.53 2080.84 -396.931)
(3620.49 2057.06 -406.824)
(3830.03 2053.22 -390.888)
(4008.77 1948.96 -339.149)
(3996.31 1745.14 -290.711)
(3830.81 1593.53 -285.344)
(3562.78 1538.29 -295.214)
(-1698.1 1600.02 -400.265)
(-1214.07 1702.12 -483.293)
(-830.231 1867.88 -483.065)
(-177.656 2138.02 -419.684)
(536.293 2317.77 -416.853)
(947.744 2638.95 -375.682)
(1370.07 2840.62 -315.007)
(1777.73 3050.17 -298.07)
(2341.2 3165.31 -250.553)
(2802.82 2853.6 -291.543)
(3167.93 2685.76 -387.759)
(3393.18 2599.3 -370.994)
(3536 2542.43 -334.3)
(3642.45 2515.71 -318.559)
(3738.3 2477.2 -307.802)
(3841.52 2347.77 -295.824)
(3863.71 2109.18 -278.75)
(3717.05 1915.14 -279.919)
(3545.89 1900.74 -319.756)
(3279.11 1866.35 -328.729)
(-1618.36 1961.34 -392.607)
(-1042.64 2059.4 -475.9)
(-597.16 2197.7 -482.476)
(11.5005 2350.42 -429.37)
(585.881 2382.46 -431.1)
(969.631 2642.32 -384.091)
(1386.69 2826.55 -332.002)
(1780.67 3033.03 -304.012)
(2229.35 3209.46 -274.674)
(2660.59 3214.91 -345.377)
(3145.32 3191.32 -366.488)
(3408.92 3095.22 -276.986)
(3437.04 2961.84 -225.891)
(3508.93 2793.12 -236.996)
(3615.23 2589.81 -262.994)
(3642.18 2394.86 -274.242)
(3545.89 2259.23 -289.843)
(3387.01 2245.63 -333.536)
(3237.88 2286.71 -371.446)
(2811.06 2074.24 -323.041)
(-1540.93 2304.04 -381.657)
(-911.707 2383.31 -459.984)
(-466.964 2486.59 -470.376)
(91.17 2587.36 -460.396)
(601.992 2519.28 -450.481)
(985.055 2690.69 -394.168)
(1396.12 2842.26 -340.413)
(1796.4 3020.44 -332.343)
(2184.53 3249.66 -326.6)
(2583.34 3410.42 -317.016)
(3062.24 3432.71 -250.262)
(3244.99 3258.52 -150.585)
(3185.69 2979.27 -157.761)
(3230.25 2698.77 -228.868)
(3273.74 2586.05 -286.107)
(3241.67 2568.24 -313.826)
(3125.79 2609.38 -362.305)
(2988.71 2637.91 -396.518)
(2817.42 2481.93 -359.004)
(1788.66 1676.89 -219.22)
(-1479.55 2634.42 -368.187)
(-826.864 2688.89 -439.95)
(-397.221 2762.4 -449.549)
(135.381 2841.06 -485.757)
(602.67 2730.27 -470.008)
(993.242 2810.94 -409.795)
(1409.18 2903.5 -358.237)
(1806.63 3055.89 -361.235)
(2139.51 3324.92 -350.745)
(2538.51 3543.53 -296.955)
(2952.54 3456.61 -205.537)
(2983.6 3205.95 -149.092)
(2691.28 2691.17 -216.904)
(2676.32 2525.28 -315.772)
(2744.1 2632.18 -358.175)
(2703.55 2812.66 -397.359)
(2609.81 2869.61 -408.535)
(2440.49 2682.8 -360.72)
(1739.75 1792.53 -222.102)
(367.73 400.391 -36.6243)
(-1430.89 2955.9 -351.791)
(-770.931 2986.06 -415.826)
(-352.714 3037 -421.327)
(166.018 3105.63 -493.639)
(605.396 2992.12 -478.76)
(998.636 3002.62 -426.342)
(1415.99 3038.16 -386.49)
(1782.51 3168.27 -388.742)
(2084.09 3448.47 -366.42)
(2519.99 3644.27 -296.391)
(2807.49 3520.71 -223.225)
(2725.1 3251.31 -219.669)
(2554.58 2688.98 -306.104)
(2407.42 2390.15 -387.107)
(2365.97 2517.94 -403.424)
(2232.11 2673.73 -381.576)
(1926.2 2457.84 -316.263)
(1266.3 1586.1 -181.46)
(229.437 306.448 -24.4769)
(0.960708 1.43755 -0.0618809)
(-1390.4 3265.27 -332.472)
(-727.144 3275.65 -386.483)
(-311.96 3312.31 -388.255)
(188.737 3373.22 -487.618)
(612.435 3276.1 -479.027)
(996.889 3238.19 -445.659)
(1393.03 3238.26 -424.087)
(1718.19 3354.69 -423.044)
(2058.37 3612.99 -385.756)
(2490.02 3739.78 -297.791)
(2613.19 3621.31 -258.484)
(2607.81 3288.22 -282.16)
(2661.02 2756.03 -345.722)
(2542.47 2364.85 -390.664)
(2184.77 2174.66 -340.836)
(1546.26 1847.13 -237.17)
(652.608 987.85 -99.8579)
(58.125 114.108 -7.40459)
(0.214594 0.468176 -0.0169437)
(7.75531e-06 1.44449e-05 -3.18037e-07)
(-1371.97 3532.74 -315.959)
(-694.223 3536.88 -359.674)
(-279.825 3570.44 -357.597)
(198.456 3615.63 -484.349)
(620.152 3529.55 -499.423)
(993.427 3457.87 -484.354)
(1356.87 3448.28 -475.18)
(1677.7 3574.83 -455.588)
(2055.65 3825.83 -381.311)
(2365.23 3842.5 -296.306)
(2411.06 3648.22 -278.788)
(2581.2 3251.56 -310.651)
(2829.87 2715.55 -372.823)
(2694.46 2242.93 -353.399)
(1863.96 1551.31 -221.396)
(440.427 435.724 -43.1877)
(5.97695 14.5622 -0.763623)
(0.0106563 0.0429348 -0.00125164)
(5.68933e-07 1.95296e-06 -3.23814e-08)
(6.67518e-12 2.25256e-11 -2.0904e-13)
(-1384.34 3743.06 -309.446)
(-683.852 3741.81 -354.042)
(-275.029 3777.75 -341.506)
(194.289 3798.18 -498.65)
(629.871 3733.64 -531.197)
(994.49 3669.83 -516.556)
(1324.03 3710.32 -493.743)
(1634.13 3892.03 -431.589)
(1953.59 4009.24 -340.88)
(2120.38 3866.68 -287.502)
(2265.12 3548.33 -296.465)
(2615.83 3134.41 -349.806)
(2880.72 2624.06 -375.677)
(2474.06 1941.99 -284.994)
(1004.19 665.044 -88.5724)
(15.3533 6.24618 -0.692997)
(0.000938688 0.000874535 -3.32911e-05)
(1.28789e-08 1.10687e-07 -1.26154e-09)
(4.9419e-13 3.51717e-12 -2.40562e-14)
(0 1.67022e-16 0)
(-1386.34 4009.5 -286.881)
(-689.654 3970.86 -354.017)
(-278.341 3990.68 -331.143)
(200.947 4006.36 -493.525)
(619.836 3986.78 -495.294)
(941.944 3967.99 -461.268)
(1216.06 4030.97 -408.093)
(1488.62 4091.6 -346.879)
(1750.46 3999.56 -300.296)
(1917.89 3718.48 -290.576)
(2249.1 3388.88 -332.911)
(2643.26 2996.96 -374.244)
(2689.92 2450.47 -329.002)
(1596.28 1277.6 -161.341)
(117.351 60.2253 -6.57889)
(0.0457248 0.0115005 -0.0011354)
(1.1905e-07 1.37605e-08 -1.14961e-09)
(2.19943e-13 2.05381e-13 -2.32267e-15)
(1.65471e-16 5.99893e-22 0)
(0 5.06383e-36 0)
(-1243.73 4274.72 -225.167)
(-629.96 4305.92 -284.168)
(-225.988 4274.07 -268.382)
(197.243 4239.02 -388.408)
(537.59 4134.55 -376.112)
(823.883 4091.14 -345.526)
(1103.05 4090.87 -320.845)
(1369 4041.24 -304.245)
(1595.16 3834.4 -295.283)
(1902.32 3548.17 -323.163)
(2290.92 3242.71 -360.048)
(2486.9 2823.29 -335.482)
(1797.77 1745.51 -201.46)
(310.552 233.092 -21.8045)
(0.486394 0.224252 -0.0152455)
(2.07027e-06 6.14557e-07 -2.97493e-08)
(3.74497e-12 5.34782e-13 -2.17335e-14)
(1.25595e-21 1.65471e-16 0)
(0 0 0)
(0 0 0)
(-1041.94 4237.33 -189.525)
(-557.197 4395.56 -218.997)
(-174.064 4353.35 -215.271)
(182.814 4245.87 -338.829)
(495.328 4079.65 -337.746)
(775.571 4011.65 -313.04)
(1046.62 3963.26 -295.453)
(1272.2 3806.17 -287.628)
(1539.12 3566.43 -300.594)
(1869.26 3284.65 -325.635)
(2079.9 2817.63 -309.627)
(1682.58 1793.9 -203.767)
(404.477 371.319 -33.2421)
(1.48095 0.990953 -0.0562706)
(1.52842e-05 8.21273e-06 -2.93415e-07)
(2.39089e-11 7.11648e-12 -1.92781e-13)
(4.99995e-16 0 0)
(0 0 0)
(0 0 0)
(0 0 0)
(-1588.14 -1588.39 -208.981)
(-1106.98 -1604.76 -247.677)
(-818.646 -1651.99 -266.774)
(-510.357 -1664.33 -296.842)
(-175.933 -1724.48 -299.326)
(174.728 -1747.38 -327.727)
(518.144 -1769.06 -337.383)
(848.769 -1778.53 -357.505)
(1217.88 -1793.2 -363.047)
(1597.12 -1736.19 -357.647)
(1955.76 -1646.67 -347.948)
(2293.97 -1561.46 -339.311)
(2618.8 -1493.87 -332.995)
(2937.23 -1440.82 -328.245)
(3249.71 -1397.73 -322.663)
(3527.05 -1378.73 -312.867)
(3745 -1389.28 -305.394)
(4007.83 -1398.78 -288.755)
(4302.47 -1270.89 -219.217)
(4289.03 -1071.69 -170.048)
(-1604.08 -1106.64 -248.135)
(-1148.85 -1148.43 -297.764)
(-880.007 -1214.75 -317.386)
(-580.927 -1272.67 -344.554)
(-243.435 -1386.66 -347.856)
(135.648 -1446.86 -368.089)
(497.352 -1478.19 -384.572)
(849.363 -1504.32 -406.398)
(1300.76 -1447.54 -410.196)
(1711.41 -1258.69 -406.089)
(2066.81 -1068.04 -396.807)
(2381.97 -923.388 -383.875)
(2677.32 -832.182 -372.021)
(2966.43 -775.297 -362.632)
(3254.63 -734.079 -352.958)
(3524.85 -704.576 -339.836)
(3742.47 -696.81 -332.934)
(3968.57 -705.008 -337.845)
(4311.87 -653.89 -284.166)
(4443.72 -573.847 -202.647)
(-1651.17 -817.803 -267.742)
(-1213.93 -878.92 -318.033)
(-958.052 -959.504 -326.436)
(-678.379 -1055.51 -338.641)
(-330.118 -1215.24 -353.794)
(84.9173 -1291.81 -370.016)
(485.263 -1323.3 -393.535)
(866.978 -1339.13 -413.73)
(1440.22 -1200.83 -403.865)
(1894.36 -873.768 -386.827)
(2221.14 -623.187 -379.231)
(2504.44 -481.972 -373.026)
(2773.52 -406.991 -363.832)
(3040.98 -363.451 -353.124)
(3310.12 -329.323 -339.172)
(3566.77 -302.093 -322.652)
(3777.45 -297.266 -310.271)
(3986.79 -302.916 -306.763)
(4279.77 -254.462 -267.419)
(4394.96 -189.92 -211.071)
(-1662.9 -509.135 -298.153)
(-1266.77 -579.346 -345.4)
(-1045.13 -679.057 -338.915)
(-885.674 -891.507 -341.167)
(-548.319 -1048.13 -356.447)
(-69.1419 -1150.31 -378.428)
(363.636 -1185.5 -397.969)
(744.509 -1141 -408.201)
(1381.17 -1045.84 -400.641)
(2188.79 -218.612 -326.522)
(2388.86 -14.0767 -346.345)
(2615.25 71.8837 -373.036)
(2857.46 118.798 -390.083)
(3111.79 151.13 -396.705)
(3373.02 175.396 -394.09)
(3617.85 188.317 -383.165)
(3806.36 187.962 -380.481)
(4005.72 193.784 -381.423)
(4267.69 194.944 -312.814)
(4301.93 181.44 -267.139)
(-1722.4 -176.55 -300.488)
(-1379.6 -244.318 -348.276)
(-1204.21 -334.439 -354.46)
(-1046.65 -569.19 -352.862)
(2114.63 -8.02142 -378.018)
(2370.91 508.177 -347.086)
(2431.53 565.424 -360.628)
(2552.84 584.284 -371.606)
(2741.89 582.309 -382.935)
(2986.52 579.835 -391.594)
(3263.68 584.224 -392.24)
(3525.38 594.931 -393.962)
(3733.76 613.152 -407.603)
(3988.28 613.939 -392.386)
(4177.07 532.466 -296.869)
(4143.62 491.02 -262.438)
(-1745.25 173.21 -329.461)
(-1444.74 132.954 -370.58)
(-1291.13 79.793 -374.3)
(-1153.91 -82.1406 -384.415)
(2611.45 763.614 -361.044)
(2747.99 891.978 -340.993)
(2748.82 915.368 -342.534)
(2786.39 935.02 -343.77)
(2881.33 947.542 -350.337)
(3041.76 956.288 -363.893)
(3255.19 959.365 -380.053)
(3471.92 963.075 -397.022)
(3672.22 974.034 -414.196)
(3967.04 941.099 -388.725)
(4142.88 822.932 -276.704)
(4092.76 777.938 -239.836)
(-1769.37 516.766 -340.599)
(-1477.85 495.796 -387.97)
(-1323.22 483.2 -397.353)
(-1186.8 360.17 -403.078)
(2876.89 1169.87 -344.37)
(2992.6 1305.57 -307.337)
(2958.37 1327.39 -319.299)
(2962.42 1343.07 -324.497)
(3001.48 1355.5 -333.194)
(3103.23 1366.86 -355.042)
(3275.7 1356.71 -383.682)
(3472.68 1329.94 -405.638)
(3704.03 1306.24 -418.093)
(4036.22 1224.21 -361.623)
(4149.86 1105.57 -247.299)
(4064.85 1055.18 -213.708)
(-1777.28 847.586 -357.566)
(-1503.44 847.148 -406.597)
(-1339.6 864.459 -414.903)
(-1141.41 741.875 -411.913)
(3079.9 1595.04 -313.101)
(3217.82 1717.09 -310.198)
(3203.29 1717.34 -316.448)
(3175.01 1729.7 -338.164)
(3182.86 1744.36 -358.35)
(3249.08 1741.95 -377.754)
(3399.05 1697.01 -396.156)
(3591.88 1652.21 -404.008)
(3874.49 1620.98 -390.913)
(4137.91 1504.23 -295.023)
(4134.72 1385.67 -209.478)
(3942.9 1290.41 -199.341)
(-1793.17 1216.36 -365.62)
(-1447.32 1299.23 -418.725)
(-1199.89 1440.31 -421.794)
(-1019.23 1389.75 -426.19)
(30.8104 2120.09 -368.222)
(790.816 2593.16 -370.65)
(1180.57 2863.95 -316.292)
(1602.6 3069.63 -272.973)
(2696.73 2885.12 -286.411)
(3230.39 2337.24 -298.798)
(3311.47 2202.07 -333.356)
(3357.13 2152.9 -359.842)
(3412.83 2116.36 -371.569)
(3511.39 2063.91 -377.443)
(3658.17 2022.54 -377.621)
(3846.2 2021.25 -362.036)
(4065.22 1960.99 -305.782)
(4111.72 1802.46 -218.525)
(3986.17 1637.12 -169.589)
(3720.1 1544.58 -234.133)
(-1737.01 1595.94 -362.721)
(-1259.24 1710.72 -418.14)
(-871.968 1895.86 -410.729)
(-205.026 2186.84 -362.302)
(527.985 2355.15 -358.601)
(907.417 2727.65 -329.851)
(1312.03 2978.71 -293.642)
(1721.85 3202.25 -295.012)
(2324.57 3285.31 -281.205)
(2832.14 2886.4 -300.553)
(3208.34 2665.04 -393.394)
(3432.59 2570.83 -382.247)
(3594.89 2518.22 -351.605)
(3720.64 2493.92 -334.999)
(3829.72 2483.55 -313.428)
(3934.56 2409.46 -276.198)
(3992.19 2213.59 -218.414)
(3880.68 1988.88 -154.889)
(3712.95 1905.5 -214.275)
(3427.26 1860.95 -343.356)
(-1647.77 1954.82 -354.911)
(-1068.27 2066.7 -409.254)
(-621.478 2222.63 -398.957)
(-8.24159 2389.43 -369.775)
(575.726 2418.54 -359.03)
(924.592 2731.46 -328.868)
(1331.83 2954.43 -302.252)
(1723.51 3183.79 -299.695)
(2202.12 3334.25 -295.373)
(2643.62 3257.14 -355.995)
(3119.33 3165.8 -396.512)
(3473.32 3086.53 -337.066)
(3558.61 2996.65 -268.617)
(3617.98 2881.52 -246.786)
(3719.03 2708.66 -234.155)
(3776.17 2505.06 -203.733)
(3708.05 2328.97 -171.939)
(3554.87 2251.27 -211.162)
(3386.64 2269.17 -378.879)
(3000.64 2110.97 -468.059)
(-1562.78 2293.37 -347.555)
(-923.49 2381.8 -396.078)
(-480.51 2505.47 -388.384)
(74.1587 2615.55 -392.9)
(589.014 2543.37 -373.023)
(940.743 2772.33 -332.293)
(1342.83 2961.26 -306.852)
(1739.1 3157.51 -318.953)
(2151.15 3361.19 -324.287)
(2557.19 3462.9 -339.206)
(3052.31 3514.45 -309.588)
(3336.4 3380.09 -191.566)
(3317.92 3138.15 -145.695)
(3375.08 2851.54 -174.22)
(3430.99 2678.36 -203.44)
(3407.94 2607.86 -214.265)
(3312.56 2599.35 -270.962)
(3156.79 2620.71 -418.672)
(2974.81 2523.96 -526.663)
(2106.37 1906.67 -469.44)
(-1495.21 2618.49 -342.257)
(-832.559 2676.69 -384.495)
(-405.819 2774 -377.51)
(119.931 2857.41 -407.14)
(583.789 2737.5 -387.178)
(950.093 2872.67 -342.046)
(1354.32 3001.48 -318.06)
(1752.65 3167.85 -333.121)
(2114.12 3411.98 -337.17)
(2509.09 3616.31 -322.621)
(2976.18 3587.59 -251.131)
(3112.56 3349.43 -142.997)
(2886.16 2899.2 -135.094)
(2865.55 2643.91 -223.716)
(2923.96 2681.24 -285.612)
(2900.38 2816.5 -387.74)
(2781.69 2874.37 -496.635)
(2632.14 2778.16 -558.216)
(2073.43 2099.48 -495.97)
(720.056 760.879 -189.632)
(-1442.03 2937.3 -338.122)
(-775.925 2965.44 -375.543)
(-362.652 3040.81 -366.037)
(152.386 3111.38 -409.982)
(580.043 2985.41 -397.944)
(956.635 3037.55 -359.236)
(1365.88 3103.41 -340.153)
(1748.23 3238.61 -349.458)
(2061.67 3510.37 -346.113)
(2491.36 3732.44 -313.183)
(2871.21 3631.81 -243.156)
(2839.33 3381.95 -178.69)
(2642.52 2842.98 -228.734)
(2501.77 2493.17 -400.94)
(2490.42 2594.71 -481.558)
(2386.58 2753.7 -555.174)
(2149.64 2668.47 -566.556)
(1609.38 1953.16 -457.517)
(542.17 658.695 -150.392)
(7.99667 11.1351 -1.75199)
(-1398.57 3250.15 -332.14)
(-734.749 3254 -366.046)
(-329.3 3309.54 -352.262)
(177.033 3372.44 -403.562)
(584.255 3263.51 -399.251)
(958.619 3253.21 -376.225)
(1356.41 3274.95 -366.338)
(1698.76 3393.85 -366.855)
(2021.83 3658.1 -351.613)
(2486.24 3833.26 -300.039)
(2701.48 3719.75 -241.457)
(2669.03 3420.08 -212.002)
(2679.52 2896.95 -287.608)
(2588.03 2469.3 -471.723)
(2288.5 2296.05 -560.835)
(1776.57 2091.19 -529.779)
(1020.73 1412.33 -338.281)
(197.875 329.968 -65.5288)
(2.16866 4.31234 -0.573206)
(0.000308721 0.000570641 -4.93015e-05)
(-1379.16 3527.73 -321.13)
(-705.637 3525.33 -352.183)
(-302.805 3566.53 -336.176)
(189.891 3617.91 -390.429)
(595.048 3524.79 -400.547)
(961.891 3470.36 -392.46)
(1329.62 3471.1 -390.444)
(1651.9 3590.62 -381.019)
(2024.52 3848.81 -344.746)
(2414.37 3930.32 -275.139)
(2496.39 3770.11 -216.65)
(2600.68 3390.91 -221.341)
(2813.41 2872.34 -375.746)
(2736.1 2366.98 -524.198)
(2059.74 1772.95 -504.472)
(806.244 821.042 -218.93)
(35.7614 72.4653 -12.2798)
(0.154466 0.516062 -0.0549276)
(2.53362e-05 7.93649e-05 -5.76724e-06)
(2.89204e-10 9.59951e-10 -4.32817e-11)
(-1389.75 3745.94 -312.912)
(-698.209 3744.04 -343.875)
(-298.124 3778.23 -323.967)
(188.989 3807.63 -387.146)
(612.987 3732.92 -414.61)
(972.983 3670.48 -410.543)
(1305.86 3702.26 -407.731)
(1620.51 3876.73 -377.133)
(1966.06 4068.07 -301.194)
(2212.21 3987.91 -227.004)
(2318.25 3696.64 -184.482)
(2596.96 3292.33 -272.336)
(2872.52 2757.22 -468.864)
(2637.89 2125.05 -522.87)
(1369.75 992.651 -302.957)
(63.7111 32.7265 -10.075)
(0.0171224 0.0203952 -0.00260731)
(3.53893e-07 2.2351e-06 -1.29135e-07)
(1.97271e-11 1.21387e-10 -4.81024e-12)
(3.3181e-16 1.50007e-15 0)
(-1399.31 4008.62 -295.869)
(-706.096 3970.22 -348.324)
(-303.401 3988.45 -320.733)
(194.495 4007.8 -388.31)
(614.109 3987.91 -398.994)
(940.781 3966.01 -387.349)
(1223.55 4036.09 -357.986)
(1503.93 4142.05 -292.223)
(1805.41 4113.37 -223.171)
(1980.94 3874.54 -165.769)
(2244.93 3541.92 -220.297)
(2623.01 3137.33 -406.946)
(2772.38 2607.55 -520.796)
(1914.21 1571.91 -414.85)
(299.749 176.101 -53.5544)
(0.400967 0.117486 -0.0380186)
(1.58073e-06 2.55715e-07 -7.77654e-08)
(3.47147e-12 4.63386e-12 -2.18331e-13)
(7.47697e-20 1.66647e-16 0)
(0 2.31556e-29 0)
(-1271.86 4303.09 -224.406)
(-655.196 4312.82 -292.896)
(-255.152 4281.17 -278.519)
(195.397 4270.86 -319.29)
(532.719 4178.97 -299.704)
(822.821 4145.82 -277.425)
(1105.19 4152.73 -248.967)
(1386.8 4139.35 -212.89)
(1633.64 3985.6 -176.493)
(1899.97 3705.46 -222.759)
(2269.7 3375.17 -375.889)
(2526.85 2959.51 -502.126)
(2074.16 2038.35 -459.96)
(621.137 503.992 -130.024)
(3.51267 1.73253 -0.420912)
(5.48011e-05 1.71059e-05 -3.53293e-06)
(8.35138e-11 1.33478e-11 -2.8826e-12)
(7.86689e-19 3.6188e-20 0)
(0 0 0)
(0 0 0)
(-1072.78 4289.73 -174.038)
(-575.182 4444.81 -208.301)
(-191.017 4396.58 -217.544)
(181.397 4305.97 -271.775)
(491.147 4146.87 -263.761)
(778.006 4096.47 -240.924)
(1055.43 4068.82 -216.65)
(1289.2 3944.29 -203.58)
(1540.78 3715.6 -239.806)
(1859.82 3420.76 -343.622)
(2113.88 2989.73 -454.851)
(1897.27 2080.13 -444.281)
(732.11 687.29 -169.941)
(9.50343 6.6872 -1.36181)
(0.000418218 0.000221933 -3.25198e-05)
(6.91864e-10 2.03137e-10 -2.77131e-11)
(1.49306e-15 1.65905e-16 0)
(0 0 0)
(0 0 0)
(0 0 0)
(-1606.4 -1606.31 -179.68)
(-1127.85 -1632.27 -206.323)
(-842.485 -1686.39 -216.537)
(-531.162 -1704.9 -240.898)
(-196.045 -1771.57 -247.807)
(159.008 -1800.5 -268.75)
(503.806 -1821.64 -278.508)
(839.789 -1838.58 -295.177)
(1219.48 -1848.26 -297.88)
(1601.39 -1781.19 -292.152)
(1959.34 -1684.38 -284.594)
(2295.69 -1593.26 -279.512)
(2618.95 -1523.19 -279.063)
(2935.35 -1470.02 -281.252)
(3247.16 -1426.51 -280.651)
(3533.76 -1400.59 -270.482)
(3762.56 -1405.72 -256.105)
(4014.06 -1423.73 -236.213)
(4334.41 -1317.64 -183.712)
(4364.7 -1117.23 -147.363)
(-1632.26 -1127.61 -206.872)
(-1180.25 -1179.64 -240.618)
(-911.924 -1251.92 -249.577)
(-607.383 -1315.66 -271.732)
(-268.297 -1439.64 -278.127)
(114.208 -1501.77 -294.617)
(480.602 -1530.72 -309.022)
(841.051 -1563.49 -327.671)
(1310.4 -1494.73 -328.667)
(1724.91 -1293 -323.482)
(2076.78 -1090.05 -313.749)
(2389.92 -943.759 -306.553)
(2683.85 -856.986 -305.125)
(2971.6 -806.386 -307.454)
(3259.68 -769.839 -306.325)
(3536.25 -741.056 -293.11)
(3766.76 -729.552 -274.923)
(3984.39 -737.318 -268.635)
(4316.69 -699.509 -234.369)
(4512.09 -608.357 -169.384)
(-1686.25 -842.441 -218.204)
(-1251.51 -911.148 -251.324)
(-994.012 -994.223 -254.226)
(-707.514 -1097.14 -264.4)
(-357.617 -1266.24 -276.353)
(62.3469 -1345.53 -294.124)
(467.218 -1372.64 -311.489)
(857.146 -1390.28 -329.577)
(1454.84 -1240.22 -322.702)
(1914.82 -896.683 -309.317)
(2235.67 -635.953 -295.761)
(2513.32 -495.624 -290.285)
(2777.28 -429.537 -293.517)
(3041.04 -397.376 -302.578)
(3310.76 -368.97 -310.635)
(3577.55 -340.401 -307.786)
(3806.51 -333.961 -296.343)
(4016.02 -341.214 -291.323)
(4301.25 -303.034 -259.235)
(4471.07 -232.068 -193.553)
(-1704.32 -532.508 -244.694)
(-1311.38 -609.193 -278.34)
(-1091.23 -710.903 -274.585)
(-922.856 -929.689 -290.605)
(-580.24 -1105.1 -296.942)
(-87.0385 -1203.83 -320.458)
(349.634 -1234.17 -337.72)
(730.301 -1196.16 -351.619)
(1402.14 -1083.52 -335.026)
(2220.59 -229.458 -277.363)
(2398.53 -19.0567 -287.554)
(2608.48 61.3259 -299.658)
(2840.35 96.6103 -313.015)
(3092.43 116.228 -328.472)
(3360.87 129.701 -343.006)
(3627.31 135.446 -345.097)
(3846.4 129.152 -338.755)
(4047.98 126.833 -341.174)
(4323.04 141.651 -295.189)
(4413.44 140.668 -235.106)
(-1770.11 -198.157 -251.479)
(-1435.17 -271.612 -284.782)
(-1261.69 -364.4 -290.147)
(-1104.15 -602.544 -318.826)
(2154.44 -50.4644 -336.968)
(2448.2 472.366 -288.532)
(2498.7 538.412 -287.739)
(2600.92 560.282 -292.162)
(2766.33 554.282 -305.574)
(2992.65 541.494 -325.259)
(3263.47 538.156 -343.937)
(3541.3 545.571 -347.204)
(3770.46 561.012 -346.539)
(4018.35 574.395 -343.483)
(4270.12 518.194 -270.703)
(4275.43 478.205 -234.89)
(-1798.78 157.905 -269.977)
(-1499.83 111.739 -296.41)
(-1344.91 57.2796 -297.513)
(-1206.11 -97.5866 -327.621)
(2705.51 711.821 -318.717)
(2860.08 862.015 -268.03)
(2854.63 879.325 -270.236)
(2879.25 895.504 -278.249)
(2950.49 905.057 -291.85)
(3083.67 910.667 -312.484)
(3277.01 916.029 -332.408)
(3496.04 922.76 -335.905)
(3694.65 938.632 -334.548)
(3967.93 938.588 -332.254)
(4238.17 832.2 -259.196)
(4237.56 780.285 -225.902)
(-1824.78 503.628 -281.136)
(-1532.95 480.284 -311.77)
(-1373.17 466.371 -313.857)
(-1234.74 346.858 -341.07)
(3001.76 1134.91 -294.017)
(3097.96 1279.21 -253.981)
(3059.81 1288.96 -255.787)
(3052 1303.28 -272.161)
(3075.85 1312.68 -286.813)
(3152.13 1324.3 -308.44)
(3298.45 1324.75 -325.768)
(3488.15 1309.35 -327.925)
(3694.95 1302.01 -333.049)
(4022.81 1261.33 -324.005)
(4250.84 1121.62 -237.774)
(4226.82 1072.29 -212.89)
(-1835.06 838.738 -294.655)
(-1558.99 836.776 -326.507)
(-1386.74 849.251 -328.965)
(-1194.88 733.331 -354.797)
(3172.5 1557.64 -289.87)
(3273.95 1686.89 -272.529)
(3263.57 1686.28 -268.341)
(3235.16 1696.4 -277.484)
(3231.14 1713.62 -295.922)
(3272.22 1722.1 -312.874)
(3392.65 1695.05 -323.882)
(3573.31 1651.74 -323.743)
(3825.41 1636.31 -328.227)
(4162.17 1550.41 -282.993)
(4252.74 1405.88 -210.565)
(4149.57 1335.44 -199.788)
(-1848.8 1214.12 -298.467)
(-1501.03 1301.01 -330.418)
(-1252.96 1441.18 -328.375)
(-1092.13 1385.27 -359.233)
(-30.771 2127.85 -386)
(715.668 2664.44 -313.388)
(1125.43 2974.78 -282.486)
(1553.62 3148.39 -286.434)
(2802.19 2761.25 -286.789)
(3274 2304.12 -290.068)
(3363.87 2175.29 -282.652)
(3394.51 2128.24 -286.468)
(3426.21 2100.23 -295.561)
(3501.24 2055.05 -305.345)
(3635.49 2000.97 -312.513)
(3812.54 1992.2 -310.926)
(4069.12 1975.73 -287.465)
(4213.68 1844.47 -220.041)
(4169.45 1702.86 -184.388)
(3960.3 1604.52 -207.58)
(-1786.49 1597.08 -295.795)
(-1305.25 1719.69 -329.183)
(-913.415 1909.02 -319.132)
(-255.594 2218.54 -300.666)
(458.967 2407.21 -314.839)
(837.744 2842.63 -272.332)
(1262.9 3081.36 -254.64)
(1676.21 3267.86 -270.906)
(2300.27 3292.95 -287.73)
(2852.08 2868.75 -288.781)
(3222.84 2631.21 -308.428)
(3435.51 2540.09 -296.457)
(3603.9 2489.81 -286.352)
(3743.65 2457.03 -283.576)
(3865.84 2449.55 -279.159)
(3992.24 2423.26 -257.124)
(4090.06 2295.25 -216.667)
(4065.51 2090.03 -169.819)
(3934.25 1975.35 -192.051)
(3676.32 1914.76 -262.805)
(-1691.76 1957.38 -290.499)
(-1102.03 2075.49 -323.249)
(-647.508 2235.09 -308.467)
(-33.12 2402.65 -303.809)
(526.021 2465.04 -305.999)
(860.374 2831.54 -272.429)
(1271.86 3046.94 -257.043)
(1672.81 3254.61 -270.046)
(2169.15 3375.43 -283.971)
(2626.59 3243.24 -310.478)
(3084.14 3105.97 -316.243)
(3490.02 3041.61 -295.564)
(3641.19 2989.95 -261.395)
(3705.03 2929.26 -249.184)
(3790.63 2810.69 -234.915)
(3877.55 2633.1 -207.77)
(3878.44 2443.66 -179.748)
(3771.51 2333.93 -187.229)
(3617.5 2319.38 -276.015)
(3285.66 2203.11 -367.536)
(-1600.12 2295.4 -286.212)
(-951.901 2390.98 -316.963)
(-500.519 2515.31 -302.654)
(56.6704 2616.51 -310.86)
(552.358 2574.52 -302.511)
(879.094 2854.82 -278.379)
(1286.7 3039.95 -271.876)
(1686 3223.32 -280.963)
(2116.55 3404.61 -293.394)
(2534.49 3462.75 -298.378)
(3021.47 3530.45 -291.699)
(3399.62 3454.81 -216.672)
(3419.17 3273.13 -200.091)
(3470.06 3018.16 -214.783)
(3553.91 2834.29 -218.107)
(3574.46 2723.69 -209.265)
(3523.06 2680.67 -221.6)
(3396.32 2681.12 -298.168)
(3218.83 2616.53 -410.657)
(2553.97 2183.48 -421.39)
(-1528.46 2619.45 -285.397)
(-861.202 2685.88 -314.218)
(-430.28 2780.77 -303.97)
(97.1129 2850.14 -321.17)
(549.134 2746.1 -314.438)
(892.619 2927.51 -292.624)
(1298.88 3063.74 -286.57)
(1703.73 3222.39 -296.621)
(2086.87 3442.52 -298.165)
(2481.91 3639.15 -284.553)
(2972.55 3680.97 -255.991)
(3239.3 3459.26 -196.113)
(3095.72 3129.86 -184.919)
(3059.19 2844.97 -239.578)
(3113.3 2827.93 -259.604)
(3118.4 2899.16 -296.396)
(3038.02 2950.13 -367.008)
(2905.31 2898.58 -442.956)
(2521.04 2475.01 -450.938)
(1230.11 1273.43 -276.003)
(-1473.92 2936.04 -286.951)
(-808.389 2973.38 -314.745)
(-396.537 3044.7 -311.722)
(119.577 3102.03 -336.409)
(538.824 2977.35 -334.571)
(902.687 3063.8 -315.002)
(1313.72 3140.28 -308.255)
(1709.41 3270.99 -310.793)
(2040.55 3525.41 -303.749)
(2454.62 3775.77 -285.267)
(2911.9 3728.75 -246.356)
(2990.12 3481.5 -207.999)
(2821.37 3030.77 -239.925)
(2677.74 2680.84 -342.084)
(2693.51 2749.95 -389.568)
(2639.95 2890.01 -450.624)
(2471.39 2897.87 -479.008)
(2047.76 2410.44 -443.999)
(1064.59 1200.17 -245.947)
(63.3001 82.0662 -13.4762)
(-1429.74 3247.93 -286.102)
(-771.161 3260.74 -312.403)
(-369.124 3313.5 -318.735)
(134.375 3369.22 -351.719)
(537.814 3251.77 -352.493)
(911.143 3259.91 -335.418)
(1315.39 3289.64 -325.372)
(1677.03 3404.57 -319.633)
(1990.75 3665.7 -309.537)
(2450.53 3888.04 -282.286)
(2789.07 3799.14 -233.448)
(2804.75 3541.58 -211.321)
(2805.34 3075.37 -257.983)
(2722.23 2666.52 -392.044)
(2492.47 2508.44 -494.529)
(2107.63 2397.18 -498.998)
(1483.75 1897.23 -385.978)
(567.14 807.83 -155.12)
(22.8632 39.8905 -5.56859)
(0.0159581 0.029713 -0.00261671)
(-1404.15 3534.85 -275.769)
(-742.208 3537.15 -298.647)
(-341.587 3579.23 -314.884)
(139.939 3634.47 -353.501)
(547.073 3531.94 -354.557)
(920.091 3481.22 -339.192)
(1300.65 3484.99 -327.826)
(1635.44 3593.13 -319.99)
(1987.19 3843.01 -307.963)
(2419.48 4001.2 -259.872)
(2607.44 3874.04 -205.847)
(2699.92 3551.5 -203.28)
(2880.42 3079.19 -293.768)
(2851.32 2606.98 -447.503)
(2339.28 2100.6 -493.736)
(1308.38 1338.41 -324.607)
(188.404 300.219 -53.2484)
(2.61487 7.15046 -0.823354)
(0.00170875 0.00523363 -0.000395805)
(2.06327e-08 6.90946e-08 -3.16838e-09)
(-1408.9 3763.97 -260.604)
(-730.9 3768.11 -279.858)
(-335.243 3807.97 -302.396)
(132.436 3853.46 -346.972)
(564.173 3763.29 -353.59)
(938.312 3683.69 -338.407)