/*--------------------------------*- C++ -*----------------------------------*\
  =========                 |
  \\      /  F ield         | OpenFOAM: The Open Source CFD Toolbox
   \\    /   O peration     | Website:  https://openfoam.org
    \\  /    A nd           | Version:  9
     \\/     M anipulation  |
\*---------------------------------------------------------------------------*/
FoamFile
{
    format      ascii;
    class       volScalarField;
    location    "0.0025";
    object      alpha.C4;
}
// * * * * * * * * * * * * * * * * * * * * * * * * * * * * * * * * * * * * * //

dimensions      [0 0 0 0 0 0 0];

internalField   nonuniform List<scalar> 
9720
(
0.988798
0.993995
0.994869
0.995743
0.996413
0.996835
0.997157
0.997415
0.997482
0.997323
0.996897
0.996169
0.995109
0.993615
0.991528
0.988553
0.984463
0.978297
0.971072
0.947345
0.993944
0.997736
0.998245
0.998737
0.999018
0.999162
0.999292
0.999405
0.999449
0.999421
0.999337
0.999166
0.998861
0.998364
0.997584
0.996315
0.99435
0.990973
0.986576
0.969343
0.994795
0.998207
0.998652
0.999087
0.999317
0.999406
0.999504
0.999594
0.999606
0.999566
0.999479
0.999338
0.999128
0.998809
0.998304
0.997456
0.996045
0.993477
0.990009
0.975229
0.995691
0.998687
0.999042
0.99868
0.999038
0.999114
0.999247
0.999398
0.999489
0.99965
0.999555
0.999412
0.999205
0.998903
0.998442
0.997687
0.996449
0.994191
0.99113
0.977688
0.996413
0.999023
0.999323
0.999025
0.999361
0.999505
0.999381
0.999213
0.998974
0.998627
0.998099
0.997251
0.995893
0.993454
0.99022
0.976384
0.996882
0.999206
0.999441
0.999161
0.998667
0.998586
0.99837
0.998106
0.997775
0.997338
0.996705
0.995705
0.994129
0.991343
0.987742
0.973058
0.997217
0.99934
0.999539
0.9993
0.997143
0.995546
0.995189
0.99476
0.994289
0.99373
0.992964
0.99177
0.989914
0.986711
0.982649
0.966788
0.997466
0.999442
0.999621
0.999435
0.99267
0.988574
0.988244
0.98775
0.987143
0.986432
0.985511
0.984125
0.982011
0.97837
0.973807
0.956665
0.997511
0.999477
0.999631
0.999526
0.999394
0.998647
0.996922
0.991973
0.976226
0.973563
0.973735
0.973944
0.973779
0.973306
0.972459
0.971067
0.968882
0.965036
0.960152
0.941986
0.997347
0.999447
0.999592
0.999677
0.999548
0.99872
0.995938
0.9889
0.973392
0.962714
0.957261
0.955066
0.954301
0.953655
0.952692
0.951235
0.949107
0.945353
0.940436
0.92187
0.996915
0.999363
0.999505
0.999581
0.999429
0.998511
0.995562
0.988667
0.973718
0.956958
0.943599
0.935102
0.93057
0.92801
0.926005
0.924023
0.921807
0.91812
0.913298
0.895193
0.996185
0.999193
0.999366
0.999438
0.999263
0.998255
0.995087
0.988178
0.974107
0.954913
0.934952
0.918066
0.90568
0.897377
0.892209
0.888865
0.886118
0.882102
0.877494
0.860846
0.995128
0.998889
0.999158
0.999233
0.999026
0.997935
0.994558
0.987517
0.973948
0.954094
0.930125
0.90527
0.882307
0.863642
0.85142
0.84496
0.841066
0.836614
0.832623
0.817135
0.99364
0.998398
0.998845
0.998935
0.998681
0.997502
0.993951
0.98674
0.973468
0.953344
0.927096
0.896154
0.862749
0.831096
0.807507
0.794565
0.788333
0.783322
0.779416
0.759294
0.991563
0.997627
0.998351
0.998485
0.998162
0.996867
0.993157
0.985758
0.972599
0.952304
0.924752
0.890213
0.849415
0.806201
0.769425
0.746157
0.733794
0.723673
0.713166
0.669466
0.988607
0.996374
0.997522
0.99775
0.997331
0.995863
0.991957
0.984321
0.97117
0.950835
0.922696
0.886583
0.842262
0.792127
0.744524
0.70808
0.67859
0.642115
0.600282
0.509433
0.984549
0.994437
0.996141
0.996544
0.996006
0.994285
0.990131
0.982175
0.968937
0.948728
0.920564
0.883853
0.838109
0.785097
0.73057
0.676538
0.605862
0.495311
0.389157
0.281302
0.978434
0.991106
0.99362
0.994337
0.993619
0.991517
0.986953
0.978536
0.965037
0.944966
0.916962
0.879934
0.833614
0.779627
0.719398
0.638987
0.495253
0.287538
0.152932
0.0918455
0.971267
0.986761
0.990204
0.991331
0.990442
0.987952
0.982895
0.973997
0.960129
0.940021
0.912191
0.875468
0.829724
0.775532
0.708623
0.597807
0.391481
0.155186
0.0403775
0.0138715
0.947689
0.969669
0.975565
0.978034
0.976756
0.973387
0.967103
0.956875
0.94193
0.921382
0.89412
0.85907
0.814462
0.75559
0.665981
0.509029
0.283404
0.0918886
0.0132969
0.000816488
0.992813
0.996696
0.9972
0.997708
0.998096
0.99833
0.998498
0.998626
0.998634
0.998521
0.998226
0.997714
0.996961
0.995877
0.994326
0.992047
0.988877
0.983979
0.978131
0.958183
0.996678
0.999231
0.999449
0.99965
0.999747
0.999791
0.999829
0.999857
0.999866
0.999851
0.999811
0.999732
0.999571
0.999281
0.998788
0.997922
0.996524
0.994011
0.99062
0.97655
0.997169
0.999436
0.999643
0.999837
0.999895
0.999913
0.99993
0.999942
0.99994
0.999916
0.99987
0.999796
0.999682
0.999495
0.999177
0.998598
0.997591
0.995665
0.992978
0.980887
0.997678
0.999633
0.999827
0.999975
0.999998
0.999999
0.999999
0.999999
0.999998
0.999967
0.999908
0.999825
0.999703
0.999515
0.999211
0.998679
0.997772
0.996044
0.993632
0.982546
0.998085
0.999745
0.999894
0.999998
0.999987
0.999782
0.999675
0.999537
0.999365
0.999125
0.998752
0.998126
0.997097
0.995178
0.992576
0.981058
0.998344
0.999802
0.999919
0.999999
0.99947
0.998243
0.998136
0.997971
0.997756
0.997444
0.996953
0.99613
0.99484
0.992577
0.989634
0.97734
0.99852
0.999841
0.999935
0.999999
0.996632
0.993291
0.993256
0.993126
0.992911
0.992583
0.992056
0.991138
0.989665
0.98704
0.983678
0.970396
0.998645
0.999868
0.999947
0.999999
0.989207
0.982736
0.983266
0.983369
0.983272
0.983005
0.982504
0.981585
0.98004
0.977219
0.973549
0.959334
0.998651
0.999875
0.999945
0.999999
0.999991
0.999675
0.997871
0.99243
0.970565
0.965452
0.96589
0.966584
0.967172
0.967106
0.966774
0.965998
0.964591
0.961864
0.958151
0.943444
0.998541
0.999863
0.999926
0.999973
0.999862
0.998835
0.995181
0.987008
0.968201
0.95556
0.949403
0.946472
0.945839
0.945439
0.944868
0.94394
0.942565
0.940056
0.936551
0.921905
0.998252
0.999827
0.999885
0.999923
0.999766
0.998688
0.994995
0.986967
0.969634
0.950992
0.936645
0.927039
0.921931
0.919278
0.917421
0.915654
0.913906
0.911354
0.907964
0.893709
0.997749
0.999754
0.999818
0.999849
0.999635
0.998475
0.994703
0.986737
0.970892
0.949981
0.928884
0.911324
0.898698
0.890278
0.884765
0.880995
0.878317
0.87513
0.871588
0.858133
0.997009
0.999604
0.999716
0.99974
0.999471
0.998206
0.994332
0.986314
0.971336
0.950025
0.925111
0.900294
0.878093
0.859838
0.846883
0.839127
0.834812
0.830612
0.82713
0.814577
0.995942
0.99933
0.999548
0.999574
0.999247
0.997851
0.993858
0.985707
0.971087
0.949791
0.922998
0.892741
0.860904
0.83028
0.805862
0.791046
0.783983
0.778805
0.775423
0.760333
0.994415
0.998863
0.999259
0.999303
0.998904
0.997336
0.993191
0.984884
0.970433
0.949098
0.921223
0.887525
0.848445
0.806563
0.769115
0.743908
0.730883
0.721784
0.714309
0.682733
0.992173
0.998034
0.998725
0.99882
0.998325
0.996516
0.992152
0.98366
0.96926
0.947873
0.91938
0.883919
0.841042
0.792047
0.744117
0.707028
0.680082
0.651188
0.620484
0.548907
0.989058
0.996691
0.997778
0.99798
0.997362
0.995279
0.990586
0.981854
0.967444
0.946131
0.917486
0.881301
0.836817
0.784746
0.730589
0.679497
0.621134
0.53479
0.447793
0.344533
0.984243
0.99426
0.99594
0.996347
0.995539
0.993097
0.987923
0.978793
0.964296
0.943174
0.914633
0.877977
0.832461
0.779195
0.720975
0.650024
0.534529
0.360563
0.225892
0.141976
0.978488
0.990963
0.993349
0.994037
0.993035
0.990232
0.984597
0.974982
0.960279
0.939283
0.910911
0.874214
0.828764
0.775608
0.713281
0.619259
0.44764
0.225142
0.084282
0.0313023
0.958798
0.97716
0.981533
0.983243
0.98178
0.978106
0.971371
0.960612
0.945125
0.923992
0.896017
0.860266
0.815957
0.760502
0.681652
0.547018
0.34109
0.136663
0.0286429
0.00279747
0.995608
0.998322
0.998586
0.998848
0.999051
0.999158
0.999223
0.999267
0.999257
0.999169
0.998957
0.998583
0.998022
0.997197
0.99599
0.99419
0.99161
0.987565
0.982697
0.96548
0.998333
0.999917
0.999955
0.999978
0.999986
0.999989
0.999991
0.999992
0.999993
0.99999
0.999981
0.999955
0.999874
0.999693
0.999352
0.998717
0.99763
0.995612
0.992853
0.980868
0.998591
0.999954
0.999982
0.999995
0.999998
0.999998
0.999999
0.999999
0.999999
0.999996
0.999988
0.999968
0.999918
0.999808
0.999581
0.999132
0.998311
0.996715
0.994469
0.984011
0.998844
0.999977
0.999995
1
1
1
1
1
1
0.999991
0.999975
0.999945
0.999886
0.99977
0.999544
0.999112
0.998336
0.996841
0.994752
0.984938
0.999045
0.999986
0.999998
1
0.999985
0.999731
0.999639
0.999539
0.999423
0.999252
0.998961
0.998441
0.997537
0.995846
0.993562
0.983272
0.999157
0.99999
0.999998
1
0.999058
0.997786
0.997632
0.997446
0.997264
0.99703
0.99666
0.996007
0.99492
0.992943
0.990334
0.979291
0.999225
0.999992
0.999999
1
0.995355
0.991993
0.991829
0.991586
0.991334
0.991067
0.990696
0.990029
0.988889
0.986751
0.98387
0.971992
0.999268
0.999993
0.999999
1
0.986213
0.980417
0.98065
0.980598
0.980441
0.980189
0.979833
0.979206
0.978106
0.975958
0.972961
0.960466
0.999259
0.999993
0.999999
1
0.999991
0.999314
0.996265
0.988567
0.963972
0.961488
0.961973
0.96265
0.963266
0.963231
0.963017
0.962507
0.96156
0.959591
0.956684
0.944019
0.999174
0.999991
0.999997
0.999995
0.999794
0.998165
0.993057
0.982803
0.96314
0.950972
0.945013
0.942249
0.941616
0.941171
0.940612
0.939811
0.938788
0.936977
0.93432
0.921958
0.998967
0.999984
0.99999
0.999984
0.999719
0.998031
0.992935
0.983161
0.964592
0.946387
0.932663
0.923473
0.918337
0.915378
0.913271
0.911396
0.909851
0.907901
0.905362
0.893356
0.998601
0.999961
0.999973
0.999962
0.999635
0.997855
0.992739
0.983119
0.965929
0.945121
0.925108
0.908537
0.896264
0.887606
0.881567
0.877363
0.874751
0.872089
0.869236
0.857585
0.99805
0.999888
0.999931
0.999915
0.999535
0.997666
0.992508
0.982935
0.966887
0.945395
0.921444
0.898045
0.877179
0.859619
0.84614
0.837375
0.832782
0.828766
0.825524
0.81462
0.997238
0.999722
0.999837
0.999819
0.999387
0.997431
0.992236
0.982611
0.966842
0.945325
0.919421
0.890911
0.861503
0.832935
0.808539
0.79214
0.784083
0.778402
0.77509
0.76369
0.996049
0.999405
0.999637
0.999625
0.999134
0.997081
0.99185
0.982159
0.966555
0.944931
0.917811
0.885865
0.849542
0.810443
0.773838
0.747127
0.732823
0.723875
0.718712
0.698689
0.994273
0.998802
0.999234
0.999243
0.998664
0.996477
0.991176
0.981441
0.965921
0.94413
0.916156
0.882139
0.841664
0.795369
0.748735
0.710888
0.685644
0.664717
0.646658
0.598677
0.991728
0.99776
0.998473
0.99853
0.997825
0.995461
0.990041
0.980268
0.964839
0.943009
0.914628
0.879653
0.837346
0.787772
0.73509
0.68644
0.641156
0.585103
0.527168
0.435651
0.987741
0.99581
0.996956
0.99712
0.996215
0.993566
0.987931
0.978044
0.962719
0.941044
0.912582
0.876942
0.833336
0.782175
0.7263
0.66556
0.584894
0.461429
0.341315
0.228304
0.98294
0.993124
0.994791
0.99512
0.994012
0.991024
0.985078
0.974969
0.959659
0.938202
0.909867
0.873962
0.830056
0.778896
0.721095
0.646996
0.525214
0.338133
0.172077
0.0698971
0.965925
0.981353
0.984567
0.985566
0.983935
0.980092
0.973202
0.962276
0.946599
0.925353
0.897438
0.862073
0.8191
0.76739
0.700407
0.596767
0.428903
0.219179
0.0652392
0.00878154
0.996272
0.998618
0.998829
0.999043
0.999212
0.999297
0.999344
0.999374
0.999363
0.999281
0.999087
0.998741
0.998218
0.997444
0.996308
0.994612
0.992157
0.988297
0.983643
0.967106
0.998634
0.999978
0.999992
0.999996
0.999997
0.999998
0.999998
0.999998
0.999998
0.999997
0.999992
0.999972
0.999901
0.999736
0.999417
0.998818
0.997782
0.995851
0.993206
0.981669
0.998839
0.999992
0.999999
1
1
1
1
1
1
0.999999
0.999995
0.99998
0.999939
0.999839
0.999623
0.99919
0.998391
0.996847
0.994686
0.984603
0.999043
0.999996
1
1
1
1
1
1
1
0.999989
0.999971
0.999941
0.999887
0.999777
0.999559
0.999136
0.998373
0.996916
0.994893
0.98539
0.999209
0.999998
1
1
0.999987
0.999622
0.999506
0.999394
0.999276
0.999109
0.998829
0.998331
0.997473
0.995858
0.993663
0.983702
0.999296
0.999998
1
1
0.998797
0.997067
0.996917
0.99673
0.996552
0.996347
0.996038
0.995484
0.994536
0.992742
0.990305
0.97967
0.999345
0.999998
1
1
0.994228
0.99057
0.990418
0.990191
0.989943
0.989702
0.989415
0.988908
0.988002
0.986191
0.983607
0.972264
0.999375
0.999998
1
1
0.984929
0.979579
0.979555
0.97939
0.9791
0.97872
0.978309
0.977765
0.976889
0.975119
0.972489
0.960642
0.999364
0.999998
1
1
0.999989
0.99901
0.994813
0.985684
0.962258
0.960942
0.961625
0.962294
0.962525
0.962334
0.96191
0.9613
0.960421
0.958718
0.95614
0.944144
0.999283
0.999997
0.999999
0.999992
0.999694
0.997434
0.99119
0.979846
0.960776
0.950194
0.944926
0.942699
0.94189
0.941184
0.940305
0.939222
0.938069
0.936333
0.933892
0.922174
0.999092
0.999992
0.999995
0.999978
0.9996
0.997307
0.991134
0.980445
0.961917
0.945203
0.932538
0.924402
0.919773
0.916589
0.913938
0.911523
0.909669
0.907664
0.905276
0.893929
0.998749
0.999974
0.999982
0.999956
0.999507
0.997144
0.990999
0.980502
0.963152
0.943168
0.924693
0.909973
0.898976
0.890258
0.883343
0.878247
0.875243
0.872529
0.869817
0.858794
0.998232
0.999908
0.999946
0.999911
0.999407
0.996987
0.990829
0.980406
0.96412
0.943242
0.920727
0.89951
0.880487
0.863344
0.849062
0.83927
0.834251
0.8302
0.827115
0.816966
0.997468
0.999753
0.999856
0.999816
0.999262
0.996805
0.990658
0.980203
0.964119
0.943076
0.918293
0.891658
0.864304
0.83696
0.812457
0.795145
0.78668
0.781095
0.778136
0.768309
0.996345
0.999452
0.999661
0.999623
0.999015
0.996531
0.990437
0.97995
0.963966
0.942622
0.916351
0.885741
0.85123
0.813788
0.777767
0.750743
0.736621
0.728386
0.724225
0.708596
0.994667
0.99888
0.999263
0.999239
0.998561
0.996028
0.990002
0.979548
0.963647
0.941986
0.914604
0.881535
0.842452
0.797584
0.751887
0.714674
0.690935
0.673744
0.660754
0.622981
0.992235
0.997878
0.998516
0.998532
0.997755
0.995131
0.989173
0.978803
0.963038
0.941259
0.91331
0.879136
0.838034
0.789728
0.738328
0.691394
0.651613
0.608811
0.565596
0.483571
0.988413
0.995996
0.99704
0.997148
0.996208
0.993397
0.98744
0.977151
0.961577
0.939914
0.911778
0.876881
0.834399
0.784516
0.730337
0.674125
0.608284
0.511387
0.407201
0.283676
0.983806
0.993404
0.99494
0.995195
0.99408
0.991012
0.984904
0.974585
0.959126
0.937691
0.909647
0.874416
0.831526
0.781712
0.726219
0.660699
0.563478
0.404312
0.235517
0.101772
0.967416
0.982025
0.985026
0.985882
0.984293
0.980472
0.973601
0.962694
0.947027
0.92588
0.898292
0.863492
0.821495
0.771935
0.710413
0.621896
0.478853
0.276837
0.0977876
0.0151963
0.99636
0.998653
0.998858
0.999065
0.999229
0.999312
0.999359
0.999387
0.999375
0.999294
0.999102
0.998756
0.998231
0.997452
0.996312
0.994613
0.992158
0.988302
0.98366
0.9672
0.998657
0.999979
0.999992
0.999996
0.999998
0.999998
0.999998
0.999998
0.999998
0.999997
0.999992
0.999972
0.999899
0.99973
0.999403
0.998794
0.997747
0.995803
0.993152
0.981641
0.998856
0.999992
0.999999
1
1
1
1
1
1
0.999999
0.999995
0.999981
0.999939
0.999837
0.999616
0.999173
0.998359
0.996797
0.994622
0.98454
0.999062
0.999996
1
1
1
1
1
1
1
0.999988
0.999965
0.999931
0.999873
0.999758
0.999533
0.999101
0.998325
0.996853
0.99482
0.985314
0.999227
0.999998
1
1
0.999986
0.999534
0.999394
0.999261
0.999129
0.998955
0.998675
0.998182
0.997338
0.995743
0.993558
0.983613
0.999314
0.999998
1
1
0.998429
0.996334
0.996233
0.996092
0.995948
0.995779
0.995518
0.995021
0.994146
0.992451
0.990093
0.97955
0.999361
0.999998
1
1
0.993019
0.98881
0.988796
0.988731
0.98863
0.988519
0.988369
0.988022
0.987295
0.985687
0.983267
0.972144
0.999389
0.999998
1
1
0.982998
0.976955
0.97735
0.977357
0.977282
0.977101
0.976876
0.976563
0.975958
0.974498
0.97211
0.960589
0.999377
0.999998
1
1
0.999988
0.998729
0.993843
0.98416
0.96067
0.959237
0.959791
0.960423
0.960831
0.960733
0.96045
0.960053
0.959448
0.958092
0.955808
0.944209
0.999296
0.999997
0.999999
0.99999
0.999625
0.996995
0.990361
0.979113
0.95997
0.949336
0.943901
0.941483
0.940715
0.940064
0.939253
0.938283
0.937311
0.935859
0.933697
0.922391
0.999106
0.999992
0.999995
0.999972
0.99951
0.996873
0.990303
0.979626
0.961277
0.944668
0.932005
0.923936
0.919469
0.916339
0.913612
0.911121
0.909328
0.907512
0.905341
0.894404
0.998764
0.999974
0.999982
0.999945
0.999398
0.996716
0.990177
0.97962
0.962508
0.942882
0.924574
0.910259
0.899685
0.890997
0.883749
0.878373
0.875386
0.872821
0.870288
0.859661
0.998245
0.999906
0.999945
0.999895
0.999283
0.996559
0.990017
0.979498
0.963332
0.942747
0.920677
0.900191
0.881778
0.86459
0.849842
0.83979
0.834873
0.831003
0.828092
0.818313
0.997479
0.999748
0.999852
0.999795
0.999129
0.996382
0.989857
0.979259
0.963275
0.942418
0.918083
0.892123
0.865225
0.837816
0.813149
0.795913
0.78771
0.782405
0.779663
0.770265
0.996358
0.99944
0.999651
0.999593
0.998876
0.996119
0.989664
0.978982
0.963033
0.941843
0.91592
0.885701
0.851403
0.814081
0.778344
0.751724
0.738053
0.730241
0.726349
0.711491
0.994685
0.998862
0.999243
0.999198
0.99842
0.995631
0.989276
0.9786
0.962669
0.941134
0.91401
0.881208
0.842349
0.797763
0.75253
0.715926
0.69277
0.676371
0.664267
0.62838
0.992263
0.997855
0.998482
0.998478
0.997621
0.994771
0.988515
0.977917
0.962076
0.94039
0.91269
0.878863
0.83812
0.790175
0.73927
0.692952
0.654179
0.613881
0.573929
0.494459
0.988458
0.995968
0.996992
0.997082
0.996088
0.993099
0.986884
0.976388
0.96072
0.939124
0.911247
0.876766
0.834714
0.785252
0.731634
0.676321
0.613131
0.522283
0.423407
0.298026
0.983876
0.993378
0.994886
0.995123
0.993969
0.990771
0.984462
0.973971
0.958431
0.93706
0.909276
0.874456
0.831985
0.782629
0.72776
0.663795
0.571805
0.421112
0.253372
0.110851
0.967591
0.98205
0.984993
0.985821
0.984212
0.980325
0.973369
0.962394
0.946714
0.925652
0.898295
0.863822
0.822219
0.773289
0.712963
0.627667
0.491435
0.293773
0.108207
0.0172077
0.996362
0.998654
0.998859
0.999066
0.999231
0.999313
0.999359
0.999387
0.999375
0.999294
0.999102
0.998756
0.998229
0.997449
0.996307
0.994605
0.992146
0.988285
0.983635
0.967151
0.998658
0.999979
0.999993
0.999996
0.999997
0.999998
0.999998
0.999998
0.999998
0.999997
0.999992
0.999972
0.999898
0.999726
0.999393
0.998775
0.997718
0.995763
0.993102
0.981572
0.998857
0.999992
0.999999
1
1
1
1
1
1
0.999999
0.999995
0.99998
0.999938
0.999833
0.999606
0.999152
0.998323
0.996742
0.994555
0.984452
0.999061
0.999996
1
1
1
1
1
1
1
0.999986
0.999962
0.999926
0.999864
0.999745
0.999511
0.999068
0.998277
0.996786
0.99474
0.985211
0.999225
0.999998
1
1
0.999985
0.999496
0.999347
0.999207
0.999071
0.998894
0.998609
0.998108
0.997254
0.995646
0.993452
0.983493
0.999313
0.999998
1
1
0.998109
0.996046
0.995957
0.995828
0.995701
0.995553
0.995311
0.994831
0.993967
0.99227
0.989902
0.97936
0.999361
0.999998
1
1
0.991686
0.988046
0.988088
0.98806
0.988009
0.987961
0.987882
0.987607
0.986936
0.985355
0.982937
0.971862
0.999388
0.999998
1
1
0.980808
0.975629
0.976051
0.976203
0.976176
0.976088
0.975985
0.975795
0.975288
0.973897
0.971554
0.96016
0.999377
0.999998
1
1
0.999981
0.998415
0.993247
0.983936
0.960343
0.958034
0.958393
0.958894
0.959295
0.959235
0.959047
0.958794
0.958341
0.957136
0.954969
0.943583
0.999297
0.999997
0.999999
0.999988
0.999569
0.996729
0.989953
0.979023
0.95991
0.948608
0.942686
0.939947
0.938993
0.938261
0.937463
0.936616
0.935819
0.934563
0.932575
0.921538
0.999107
0.999992
0.999995
0.999968
0.999453
0.996637
0.989914
0.979247
0.961128
0.944125
0.931009
0.922608
0.917904
0.914603
0.911782
0.909306
0.907635
0.905989
0.903972
0.893287
0.998766
0.999974
0.999982
0.999939
0.99934
0.996504
0.989809
0.979188
0.962169
0.942464
0.923833
0.909192
0.898349
0.88944
0.882007
0.87654
0.873581
0.87111
0.868679
0.858249
0.998249
0.999906
0.999943
0.999886
0.999225
0.996364
0.989662
0.979013
0.962762
0.942143
0.920012
0.899317
0.880656
0.863222
0.848219
0.837968
0.832971
0.829109
0.826247
0.816603
0.997484
0.999746
0.999848
0.999782
0.999068
0.996198
0.989512
0.978745
0.96265
0.941696
0.917357
0.8913
0.864209
0.836587
0.811659
0.794128
0.785695
0.780294
0.777558
0.768273
0.996363
0.999435
0.999642
0.999574
0.998812
0.995942
0.989329
0.978457
0.962342
0.941021
0.915059
0.884803
0.850403
0.812946
0.776994
0.749998
0.735916
0.727903
0.723997
0.709289
0.994692
0.998852
0.999225
0.999171
0.99835
0.995457
0.988946
0.978064
0.961913
0.940199
0.912992
0.880175
0.841316
0.796715
0.75135
0.71436
0.690693
0.673992
0.661834
0.626172
0.992274
0.997842
0.998453
0.998439
0.997543
0.994596
0.988182
0.977363
0.961261
0.939362
0.911568
0.877743
0.837042
0.78916
0.738252
0.691683
0.652463
0.611827
0.571831
0.492735
0.988474
0.995954
0.996954
0.997031
0.995999
0.992921
0.986542
0.97581
0.959864
0.938048
0.910078
0.875595
0.83359
0.784232
0.730727
0.675381
0.612014
0.521132
0.422453
0.297302
0.983895
0.993367
0.994846
0.995068
0.993874
0.990587
0.984113
0.973392
0.957593
0.936015
0.908127
0.873287
0.830856
0.781624
0.726934
0.66314
0.571386
0.421167
0.253734
0.110869
0.967613
0.982047
0.984965
0.985779
0.984122
0.98016
0.973056
0.961906
0.946043
0.924818
0.897329
0.862767
0.821157
0.772333
0.712226
0.627273
0.491546
0.294362
0.108758
0.0172968
0.996278
0.998625
0.998836
0.999047
0.999215
0.999297
0.999344
0.999375
0.999363
0.99928
0.999085
0.998736
0.998207
0.997425
0.996278
0.994567
0.992092
0.988202
0.983513
0.966875
0.998631
0.999978
0.999992
0.999996
0.999997
0.999998
0.999998
0.999998
0.999998
0.999997
0.999992
0.99997
0.999896
0.999723
0.999388
0.998764
0.997696
0.995724
0.993038
0.981396
0.998835
0.999992
0.999999
1
1
1
1
1
1
0.999999
0.999995
0.99998
0.999936
0.999828
0.999597
0.999137
0.998298
0.996701
0.994493
0.984299
0.999038
0.999996
1
1
1
1
1
1
1
0.999988
0.999967
0.999934
0.999874
0.999753
0.999516
0.999064
0.99826
0.996748
0.994678
0.985062
0.999204
0.999998
1
1
0.999985
0.999563
0.999429
0.999298
0.999169
0.998991
0.998696
0.998173
0.997283
0.995625
0.993387
0.983323
0.999296
0.999998
1
1
0.998229
0.996509
0.996365
0.996185
0.996024
0.995847
0.995567
0.995033
0.994095
0.992289
0.989824
0.979116
0.999345
0.999998
1
1
0.992125
0.98882
0.988764
0.988638
0.988501
0.988394
0.988247
0.987879
0.987088
0.985346
0.982784
0.971477
0.999376
0.999998
1
1
0.981127
0.976095
0.976507
0.976526
0.976456
0.976316
0.976164
0.975886
0.975248
0.973677
0.971169
0.959498
0.999364
0.999998
1
1
0.999987
0.998548
0.993229
0.983086
0.958794
0.95685
0.957449
0.958189
0.958805
0.958779
0.958634
0.958373
0.957855
0.956518
0.954196
0.942517
0.999283
0.999997
0.999999
0.99999
0.999638
0.997001
0.99004
0.977939
0.957915
0.946466
0.940717
0.93819
0.937465
0.936862
0.936166
0.935399
0.934631
0.933325
0.931214
0.919918
0.999089
0.999992
0.999995
0.999974
0.999527
0.996886
0.990024
0.978492
0.959375
0.941928
0.928691
0.920085
0.915193
0.911909
0.909288
0.907058
0.905517
0.903882
0.901799
0.890916
0.998744
0.999972
0.999981
0.999947
0.999423
0.996738
0.989944
0.978714
0.960761
0.940311
0.92122
0.905939
0.894452
0.885406
0.878319
0.873259
0.870458
0.868007
0.865536
0.854942
0.998224
0.999903
0.999942
0.999896
0.999313
0.996598
0.989833
0.978659
0.961804
0.940467
0.917455
0.895631
0.875988
0.858313
0.843701
0.833825
0.828893
0.824988
0.822063
0.812248
0.997456
0.999741
0.999845
0.999791
0.999156
0.996431
0.989723
0.978521
0.96182
0.940324
0.9151
0.887825
0.859725
0.831817
0.806934
0.789379
0.780773
0.775164
0.77228
0.762758
0.99633
0.999428
0.999636
0.999581
0.998891
0.996163
0.989555
0.978341
0.961684
0.93987
0.913153
0.881931
0.846746
0.808885
0.772556
0.745004
0.730265
0.721777
0.717678
0.702395
0.994649
0.99884
0.999216
0.999172
0.998412
0.995649
0.989159
0.978015
0.961391
0.939185
0.911337
0.877752
0.838239
0.793216
0.747304
0.709369
0.684694
0.667018
0.654001
0.616566
0.992218
0.997823
0.998438
0.998431
0.997577
0.994735
0.988344
0.977328
0.960824
0.93843
0.909991
0.875394
0.834046
0.785777
0.734302
0.686787
0.646156
0.602833
0.559713
0.478179
0.988395
0.995924
0.996928
0.997006
0.995995
0.992977
0.986608
0.97572
0.959437
0.937121
0.908458
0.873174
0.830524
0.780748
0.726655
0.670268
0.604155
0.507661
0.404413
0.280878
0.983786
0.99332
0.994804
0.995023
0.993836
0.990572
0.984072
0.973198
0.957081
0.934993
0.906403
0.870788
0.827741
0.778026
0.722724
0.657487
0.561122
0.404078
0.236649
0.101446
0.96738
0.981913
0.98485
0.985656
0.983991
0.980009
0.972809
0.961479
0.945309
0.923608
0.895479
0.86023
0.817999
0.768456
0.707285
0.619763
0.478841
0.279113
0.0998128
0.0154456
0.995618
0.998328
0.998593
0.998855
0.999057
0.999161
0.999225
0.999269
0.999258
0.999168
0.998954
0.998576
0.998007
0.997169
0.995943
0.994115
0.991493
0.987386
0.982448
0.965045
0.998336
0.999918
0.999956
0.999978
0.999986
0.999989
0.999992
0.999993
0.999993
0.99999
0.999981
0.999954
0.999868
0.999678
0.999318
0.99865
0.997518
0.995431
0.992596
0.980404
0.998589
0.999955
0.999982
0.999996
0.999998
0.999998
0.999999
0.999999
0.999999
0.999996
0.999988
0.999967
0.999915
0.999797
0.999552
0.99907
0.9982
0.996533
0.994211
0.983545
0.998837
0.999976
0.999995
1
1
1
1
1
1
0.999992
0.999976
0.999944
0.999881
0.999755
0.999508
0.999041
0.998214
0.996645
0.994478
0.984452
0.999038
0.999985
0.999997
1
0.999988
0.999702
0.999596
0.999481
0.99935
0.999162
0.998848
0.998291
0.997338
0.995574
0.99321
0.982711
0.999155
0.999989
0.999998
1
0.99868
0.997367
0.997214
0.997021
0.996836
0.996606
0.996238
0.995571
0.994449
0.992415
0.989742
0.978509
0.999224
0.999991
0.999999
1
0.993431
0.990524
0.99042
0.990236
0.990046
0.989851
0.989562
0.98897
0.98788
0.985769
0.982877
0.970873
0.999268
0.999993
0.999999
1
0.982508
0.9778
0.978167
0.978217
0.978137
0.977967
0.977721
0.977241
0.976309
0.974329
0.971414
0.958873
0.999259
0.999993
0.999999
1
0.999987
0.9989
0.994259
0.983993
0.958854
0.958006
0.958578
0.959359
0.960089
0.960091
0.959957
0.959592
0.958859
0.95715
0.954407
0.941773
0.999172
0.999991
0.999996
0.999993
0.999747
0.997785
0.991827
0.980307
0.959392
0.94702
0.941129
0.93838
0.937729
0.93727
0.936716
0.935992
0.935139
0.933569
0.931077
0.91883
0.998961
0.999982
0.999989
0.99998
0.999658
0.997635
0.991669
0.980683
0.960969
0.942333
0.928449
0.919093
0.913732
0.910589
0.908389
0.906538
0.905113
0.903342
0.900963
0.889194
0.998588
0.999957
0.99997
0.999953
0.999558
0.997441
0.991433
0.980637
0.962385
0.940902
0.920458
0.903584
0.890971
0.881951
0.875657
0.871393
0.868867
0.866348
0.863654
0.852315
0.998029
0.999878
0.999923
0.999898
0.999443
0.997242
0.991182
0.980445
0.963386
0.94116
0.916501
0.892535
0.871183
0.853142
0.839243
0.830324
0.825787
0.821893
0.818809
0.808241
0.997207
0.999702
0.999817
0.999787
0.999274
0.997
0.990925
0.98014
0.963353
0.941079
0.914379
0.885071
0.855014
0.825884
0.800926
0.784167
0.776063
0.770494
0.767349
0.756282
0.996005
0.999366
0.999597
0.999568
0.99899
0.996636
0.990579
0.979756
0.963114
0.940697
0.912788
0.879982
0.842937
0.80321
0.76601
0.738754
0.72417
0.715257
0.71021
0.690338
0.994213
0.998738
0.999159
0.999148
0.998479
0.995998
0.989956
0.979145
0.962589
0.939971
0.911218
0.876383
0.83524
0.788451
0.741315
0.702797
0.676999
0.655923
0.637884
0.589705
0.991646
0.997662
0.998353
0.998387
0.997591
0.994936
0.988872
0.978108
0.961681
0.939002
0.90981
0.874046
0.831167
0.781284
0.728245
0.678991
0.633214
0.57725
0.51972
0.42772
0.987625
0.995662
0.996777
0.996912
0.995923
0.992993
0.986792
0.976056
0.959795
0.937229
0.907886
0.871475
0.827373
0.775984
0.719874
0.658962
0.578637
0.456959
0.338333
0.223618
0.982786
0.992924
0.994552
0.994844
0.993659
0.990418
0.983966
0.973119
0.956926
0.934538
0.905301
0.868639
0.824245
0.772827
0.71494
0.641311
0.521712
0.338863
0.174141
0.0688046
0.965663
0.981017
0.984173
0.985111
0.98343
0.979402
0.972126
0.960641
0.944218
0.922092
0.893287
0.857131
0.813567
0.761565
0.694901
0.593065
0.429398
0.223383
0.0681239
0.00897607
0.992831
0.996705
0.997215
0.99773
0.998123
0.998351
0.998515
0.998639
0.998641
0.998526
0.998228
0.997711
0.996951
0.995856
0.994286
0.991977
0.988762
0.983795
0.977869
0.957716
0.996696
0.999243
0.999462
0.999661
0.999756
0.999801
0.999837
0.999864
0.999869
0.999854
0.999813
0.999732
0.999567
0.999267
0.998757
0.997861
0.996418
0.993834
0.990362
0.97607
0.997175
0.999443
0.999652
0.999842
0.999899
0.999918
0.999933
0.999946
0.999942
0.999918
0.999871
0.999796
0.999677
0.999482
0.999147
0.998539
0.997487
0.995491
0.992725
0.98041
0.997664
0.999631
0.999829
0.999999
1
1
1
1
1
0.999967
0.999909
0.999824
0.999697
0.999501
0.999179
0.998617
0.997662
0.995862
0.993368
0.982051
0.998059
0.999736
0.999891
1
0.99999
0.999801
0.999682
0.999535
0.999344
0.999081
0.99868
0.998015
0.99693
0.994928
0.992234
0.980482
0.998322
0.999792
0.999914
1
0.999185
0.998318
0.998139
0.997913
0.997653
0.997302
0.99677
0.995899
0.994526
0.992151
0.989094
0.976543
0.998503
0.999832
0.999931
1
0.995265
0.993246
0.993077
0.992809
0.992499
0.992113
0.991544
0.990582
0.989043
0.986331
0.982848
0.969266
0.998632
0.999861
0.999944
1
0.985598
0.982363
0.982689
0.982641
0.982443
0.982068
0.981478
0.980497
0.978907
0.976027
0.972266
0.957754
0.998642
0.99987
0.999942
1
0.999993
0.999314
0.996089
0.988058
0.963701
0.963426
0.96405
0.964912
0.965563
0.965465
0.965062
0.964209
0.962751
0.959979
0.956208
0.941259
0.998532
0.999857
0.999922
0.99997
0.999824
0.998537
0.994121
0.984615
0.964835
0.952259
0.946374
0.943581
0.94316
0.942835
0.942258
0.941263
0.939818
0.937272
0.933761
0.918986
0.998241
0.99982
0.999879
0.999916
0.999709
0.998355
0.99388
0.98457
0.966088
0.947292
0.932924
0.923275
0.918277
0.915696
0.913821
0.911976
0.910162
0.907592
0.904213
0.889923
0.997733
0.999744
0.999808
0.999836
0.999561
0.998114
0.993545
0.984353
0.967251
0.945597
0.924361
0.90682
0.894332
0.885957
0.880311
0.876357
0.873559
0.870313
0.866762
0.853398
0.996985
0.999588
0.999698
0.999718
0.999383
0.997831
0.993164
0.983979
0.967899
0.945676
0.920262
0.89536
0.873325
0.855177
0.841886
0.833656
0.829063
0.824749
0.821287
0.808997
0.995907
0.999303
0.999517
0.999536
0.999141
0.997467
0.992709
0.983462
0.967739
0.945511
0.918175
0.887791
0.856101
0.825456
0.800575
0.785101
0.777591
0.772275
0.76896
0.754006
0.994363
0.998818
0.999207
0.999241
0.99877
0.996939
0.992081
0.982749
0.967224
0.944974
0.916558
0.88274
0.843688
0.801468
0.763425
0.737702
0.72433
0.715069
0.707492
0.675565
0.992094
0.99796
0.998639
0.99872
0.998149
0.99609
0.991086
0.981647
0.966218
0.943943
0.914885
0.879235
0.836288
0.786918
0.738452
0.700884
0.673589
0.644572
0.613634
0.541044
0.98894
0.996573
0.997642
0.997824
0.997126
0.994794
0.989558
0.979952
0.964572