/*--------------------------------*- C++ -*----------------------------------*\
  =========                 |
  \\      /  F ield         | OpenFOAM: The Open Source CFD Toolbox
   \\    /   O peration     | Website:  https://openfoam.org
    \\  /    A nd           | Version:  9
     \\/     M anipulation  |
\*---------------------------------------------------------------------------*/
FoamFile
{
    format      ascii;
    class       volScalarField;
    location    "0.0025";
    object      p;
}
// * * * * * * * * * * * * * * * * * * * * * * * * * * * * * * * * * * * * * //

dimensions      [1 -1 -2 0 0 0 0];

internalField   nonuniform List<scalar> 
9720
(
2.57964e+07
3.00288e+07
3.28859e+07
3.5196e+07
3.76573e+07
3.9476e+07
4.08094e+07
3.90532e+07
3.30505e+07
2.74769e+07
2.23921e+07
1.82835e+07
1.52167e+07
1.29158e+07
1.11155e+07
9.681e+06
8.40025e+06
7.32219e+06
6.50135e+06
5.2924e+06
3.0003e+07
3.49021e+07
3.79405e+07
4.00029e+07
4.29841e+07
4.60317e+07
4.80127e+07
4.38318e+07
3.28047e+07
2.34561e+07
1.77191e+07
1.43121e+07
1.20794e+07
1.04381e+07
9.11718e+06
8.0148e+06
7.0309e+06
6.18236e+06
5.51859e+06
4.56004e+06
3.28252e+07
3.78673e+07
4.07773e+07
4.1489e+07
4.44264e+07
4.90842e+07
5.23866e+07
4.60535e+07
2.8616e+07
1.72407e+07
1.33577e+07
1.17107e+07
1.06248e+07
9.68474e+06
8.7743e+06
7.90617e+06
7.04958e+06
6.26463e+06
5.61257e+06
4.66782e+06
3.52044e+07
4.00508e+07
4.15693e+07
4.04896e+07
3.94591e+07
4.85412e+07
5.82208e+07
5.60191e+07
3.06397e+07
8.60899e+06
8.51989e+06
8.56889e+06
8.46562e+06
8.16217e+06
7.68663e+06
7.13743e+06
6.47698e+06
5.83136e+06
5.26949e+06
4.39172e+06
3.768e+07
4.31447e+07
4.47053e+07
3.99842e+07
6.45811e+06
5.11625e+06
6.00416e+06
7.12003e+06
7.77922e+06
7.71905e+06
7.40125e+06
6.84891e+06
6.1502e+06
5.48575e+06
4.93128e+06
4.08563e+06
3.9386e+07
4.5999e+07
4.9117e+07
4.89247e+07
5.42529e+06
5.63554e+06
5.95308e+06
6.49975e+06
7.15726e+06
7.29122e+06
7.15246e+06
6.74375e+06
6.11101e+06
5.42632e+06
4.8331e+06
3.94214e+06
4.05688e+07
4.76207e+07
5.1811e+07
5.77142e+07
6.1739e+06
6.17258e+06
6.23281e+06
6.4583e+06
6.83688e+06
6.9932e+06
6.91975e+06
6.60574e+06
6.03344e+06
5.33076e+06
4.6821e+06
3.74382e+06
3.8731e+07
4.31346e+07
4.48695e+07
5.40827e+07
6.35196e+06
5.94919e+06
6.03645e+06
6.20231e+06
6.53182e+06
6.81387e+06
6.80767e+06
6.62716e+06
6.16273e+06
5.44751e+06
4.72776e+06
3.64688e+06
3.2708e+07
3.21613e+07
2.76809e+07
2.84115e+07
6.00675e+06
5.57539e+06
6.35633e+06
6.59933e+06
1.97668e+06
2.87965e+06
3.8808e+06
4.65793e+06
5.29976e+06
5.88641e+06
6.27606e+06
6.26369e+06
6.02426e+06
5.494e+06
4.82354e+06
3.66268e+06
2.71679e+07
2.30194e+07
1.68276e+07
8.54739e+06
5.27538e+06
5.76956e+06
6.35763e+06
6.1413e+06
3.13061e+06
1.83117e+06
2.12511e+06
2.7965e+06
3.60717e+06
4.41761e+06
5.15199e+06
5.56587e+06
5.54115e+06
5.27896e+06
4.74754e+06
3.64404e+06
2.21476e+07
1.74447e+07
1.31552e+07
8.51024e+06
6.12896e+06
6.10416e+06
6.43152e+06
6.24689e+06
4.18702e+06
2.24692e+06
1.68604e+06
1.79717e+06
2.26971e+06
3.012e+06
3.87578e+06
4.59665e+06
4.82429e+06
4.75127e+06
4.42395e+06
3.47596e+06
1.8108e+07
1.41318e+07
1.15816e+07
8.53527e+06
7.16166e+06
6.62552e+06
6.63597e+06
6.43048e+06
4.96538e+06
3.04557e+06
1.87423e+06
1.74972e+06
1.8343e+06
2.21451e+06
2.9096e+06
3.62693e+06
3.95595e+06
3.92675e+06
3.68068e+06
3.0499e+06
1.50909e+07
1.19512e+07
1.05259e+07
8.41229e+06
7.72851e+06
7.22624e+06
6.95303e+06
6.75063e+06
5.6126e+06
3.91571e+06
2.45521e+06
1.88929e+06
1.86356e+06
1.98165e+06
2.29129e+06
2.66448e+06
2.85381e+06
2.86406e+06
2.82117e+06
2.88029e+06
1.28214e+07
1.03391e+07
9.60263e+06
8.10169e+06
7.65604e+06
7.33082e+06
7.06758e+06
6.94433e+06
6.17899e+06
4.75143e+06
3.28144e+06
2.37359e+06
2.05797e+06
1.93156e+06
1.86422e+06
1.90545e+06
2.09509e+06
2.43086e+06
2.68532e+06
3.17765e+06
1.10419e+07
9.03706e+06
8.70403e+06
7.62775e+06
7.33534e+06
7.18785e+06
6.98814e+06
6.91763e+06
6.4626e+06
5.46058e+06
4.19726e+06
3.16401e+06
2.46501e+06
1.92051e+06
1.73388e+06
1.78581e+06
2.05185e+06
2.49108e+06
2.94722e+06
4.41369e+06
9.6219e+06
7.94806e+06
7.84359e+06
7.07981e+06
6.79151e+06
6.76923e+06
6.66771e+06
6.70267e+06
6.40931e+06
5.77287e+06
4.8725e+06
3.90719e+06
2.91066e+06
2.01911e+06
1.82289e+06
1.91973e+06
2.41821e+06
3.5234e+06
4.96422e+06
7.39467e+06
8.35192e+06
6.97379e+06
6.9926e+06
6.42177e+06
6.10416e+06
6.11953e+06
6.08752e+06
6.20416e+06
6.11341e+06
5.71e+06
5.02805e+06
4.18525e+06
3.10046e+06
2.23495e+06
2.14556e+06
2.46324e+06
3.97173e+06
6.50503e+06
8.81008e+06
1.08236e+07
7.28295e+06
6.13445e+06
6.21489e+06
5.78182e+06
5.44746e+06
5.41749e+06
5.37437e+06
5.46857e+06
5.54649e+06
5.38344e+06
4.9223e+06
4.14015e+06
3.08731e+06
2.59241e+06
2.62078e+06
3.59799e+06
6.53528e+06
9.40922e+06
1.10079e+07
1.2341e+07
6.46948e+06
5.47948e+06
5.57159e+06
5.22838e+06
4.90005e+06
4.81656e+06
4.71973e+06
4.74418e+06
4.84474e+06
4.8128e+06
4.54314e+06
3.857e+06
3.00595e+06
2.84988e+06
3.09177e+06
5.06664e+06
8.9058e+06
1.11163e+07
1.22916e+07
1.5412e+07
5.27063e+06
4.53341e+06
4.64029e+06
4.36481e+06
4.06492e+06
3.92424e+06
3.76887e+06
3.66173e+06
3.674e+06
3.67529e+06
3.53444e+06
3.15212e+06
2.99772e+06
3.30839e+06
4.56175e+06
7.55385e+06
1.10044e+07
1.24675e+07
1.54766e+07
1.8179e+07
2.38628e+07
2.75734e+07
3.01258e+07
3.2168e+07
3.44145e+07
3.59497e+07
3.69832e+07
3.50089e+07
2.93818e+07
2.42892e+07
1.97567e+07
1.61125e+07
1.34072e+07
1.14015e+07
9.84185e+06
8.62167e+06
7.51559e+06
6.59184e+06
5.9065e+06
4.88771e+06
2.75529e+07
3.1835e+07
3.45645e+07
3.62384e+07
3.90342e+07
4.18513e+07
4.34353e+07
3.92108e+07
2.89911e+07
2.05336e+07
1.54782e+07
1.25589e+07
1.06547e+07
9.2513e+06
8.11469e+06
7.1804e+06
6.33207e+06
5.59928e+06
5.04425e+06
4.23835e+06
3.00939e+07
3.45397e+07
3.71255e+07
3.72991e+07
4.02531e+07
4.50722e+07
4.78117e+07
4.15061e+07
2.56265e+07
1.51024e+07
1.16227e+07
1.02646e+07
9.40384e+06
8.64281e+06
7.88209e+06
7.15109e+06
6.41338e+06
5.73357e+06
5.17697e+06
4.36316e+06
3.2185e+07
3.63788e+07
3.75792e+07
3.68242e+07
3.54111e+07
4.52143e+07
5.40221e+07
5.10901e+07
2.81532e+07
7.66e+06
7.39282e+06
7.50905e+06
7.49688e+06
7.30648e+06
6.92494e+06
6.46655e+06
5.89794e+06
5.34248e+06
4.87162e+06
4.11191e+06
3.43611e+07
3.90213e+07
4.01985e+07
3.46045e+07
5.82283e+06
4.77533e+06
5.39232e+06
6.27156e+06
6.98495e+06
6.99658e+06
6.78392e+06
6.3466e+06
5.74288e+06
5.15647e+06
4.66824e+06
3.88864e+06
3.57547e+07
4.15879e+07
4.46859e+07
4.49812e+07
5.00842e+06
5.23441e+06
5.44603e+06
5.84619e+06
6.40203e+06
6.66283e+06
6.58363e+06
6.28163e+06
5.75292e+06
5.15799e+06
4.62921e+06
3.79642e+06
3.66971e+07
4.30442e+07
4.733e+07
5.36425e+07
5.73034e+06
5.74672e+06
5.76816e+06
5.88646e+06
6.14748e+06
6.37947e+06
6.35833e+06
6.16328e+06
5.73083e+06
5.15527e+06
4.57995e+06
3.66952e+06
3.47784e+07
3.87895e+07
4.08444e+07
5.01614e+07
6.04594e+06
5.55113e+06
5.60515e+06
5.70216e+06
5.91219e+06
6.2039e+06
6.25702e+06
6.1636e+06
5.85596e+06
5.31084e+06
4.67592e+06
3.63272e+06
2.91257e+07
2.848e+07
2.49115e+07
2.6995e+07
5.63151e+06
5.02527e+06
5.83049e+06
6.20838e+06
1.83898e+06
2.5941e+06
3.52642e+06
4.23791e+06
4.78938e+06
5.29931e+06
5.72795e+06
5.81051e+06
5.68458e+06
5.32055e+06
4.76918e+06
3.67048e+06
2.40006e+07
2.00887e+07
1.46562e+07
7.51873e+06
4.67798e+06
5.18191e+06
5.79748e+06
5.6797e+06
2.82333e+06
1.60263e+06
1.88024e+06
2.49425e+06
3.22038e+06
3.93565e+06
4.6417e+06
5.15096e+06
5.20858e+06
5.06933e+06
4.66908e+06
3.66104e+06
1.94961e+07
1.51184e+07
1.12645e+07
7.18625e+06
5.28323e+06
5.39301e+06
5.82626e+06
5.72153e+06
3.78309e+06
1.98269e+06
1.46023e+06
1.55145e+06
1.97657e+06
2.66902e+06
3.47953e+06
4.21435e+06
4.54916e+06
4.53715e+06
4.32282e+06
3.48957e+06
1.5906e+07
1.22829e+07
9.97776e+06
7.30163e+06
6.16108e+06
5.81358e+06
5.95212e+06
5.82482e+06
4.48553e+06
2.71079e+06
1.61501e+06
1.51679e+06
1.61631e+06
1.98112e+06
2.61783e+06
3.29311e+06
3.73197e+06
3.77425e+06
3.62297e+06
3.02913e+06
1.32496e+07
1.0445e+07
9.17904e+06
7.31031e+06
6.88185e+06
6.3908e+06
6.20438e+06
6.04895e+06
5.04304e+06
3.49708e+06
2.14114e+06
1.67157e+06
1.67013e+06
1.80105e+06
2.09515e+06
2.4618e+06
2.74584e+06
2.78372e+06
2.68235e+06
2.66325e+06
1.12805e+07
9.09164e+06
8.46903e+06
7.14783e+06
6.89643e+06
6.66039e+06
6.42106e+06
6.32151e+06
5.54659e+06
4.23697e+06
2.9131e+06
2.12884e+06
1.87234e+06
1.78479e+06
1.73496e+06
1.74939e+06
1.88749e+06
2.14346e+06
2.40165e+06
2.83066e+06
9.74769e+06
7.99155e+06
7.74705e+06
6.79892e+06
6.68226e+06
6.57919e+06
6.39676e+06
6.34261e+06
5.91595e+06
4.92595e+06
3.77677e+06
2.86183e+06
2.27298e+06
1.80426e+06
1.56593e+06
1.5673e+06
1.77444e+06
2.15722e+06
2.55192e+06
3.7395e+06
8.54759e+06
7.08411e+06
7.04353e+06
6.3665e+06
6.24911e+06
6.26823e+06
6.19716e+06
6.23026e+06
5.93186e+06
5.35704e+06
4.4917e+06
3.58041e+06
2.71281e+06
1.88759e+06
1.60102e+06
1.64604e+06
2.0015e+06
2.85549e+06
4.00311e+06
6.20404e+06
7.45458e+06
6.2529e+06
6.32305e+06
5.8168e+06
5.65831e+06
5.72367e+06
5.74858e+06
5.88802e+06
5.77193e+06
5.36171e+06
4.74769e+06
3.96408e+06
2.99212e+06
2.04171e+06
1.86646e+06
2.04927e+06
3.12911e+06
5.20681e+06
7.30166e+06
9.53348e+06
6.53798e+06
5.531e+06
5.6556e+06
5.2739e+06
5.08432e+06
5.11762e+06
5.1597e+06
5.31133e+06
5.37252e+06
5.17948e+06
4.707e+06
3.9758e+06
2.99139e+06
2.30503e+06
2.29016e+06
2.94804e+06
5.25474e+06
8.09608e+06
1.01121e+07
1.15683e+07
5.85865e+06
4.98434e+06
5.11032e+06
4.81226e+06
4.60544e+06
4.5845e+06
4.57987e+06
4.66542e+06
4.78977e+06
4.73891e+06
4.44652e+06
3.79738e+06
2.85806e+06
2.56561e+06
2.70261e+06
4.14427e+06
7.43724e+06
1.02012e+07
1.13801e+07
1.37486e+07
4.84857e+06
4.1908e+06
4.31309e+06
4.06723e+06
3.84155e+06
3.75518e+06
3.66558e+06
3.62329e+06
3.67134e+06
3.69484e+06
3.55532e+06
3.13901e+06
2.7942e+06
2.97499e+06
3.91494e+06
6.41898e+06
9.75402e+06
1.16666e+07
1.38422e+07
1.71343e+07
2.2833e+07
2.6413e+07
2.88527e+07
3.07933e+07
3.29679e+07
3.43457e+07
3.51912e+07
3.30668e+07
2.75396e+07
2.26462e+07
1.84107e+07
1.50368e+07
1.25263e+07
1.06678e+07
9.20786e+06
8.07739e+06
7.04108e+06
6.16784e+06
5.51813e+06
4.56451e+06
2.63884e+07
3.05103e+07
3.30612e+07
3.44757e+07
3.71831e+07
3.98997e+07
4.12832e+07
3.69487e+07
2.70661e+07
1.90207e+07
1.43681e+07
1.17805e+07
1.00728e+07
8.78464e+06
7.71338e+06
6.83949e+06
6.04042e+06
5.33741e+06
4.7991e+06
4.02448e+06
2.88001e+07
3.30244e+07
3.52778e+07
3.50308e+07
3.79849e+07
4.29229e+07
4.54109e+07
3.89159e+07
2.38446e+07
1.39223e+07
1.07418e+07
9.58525e+06
8.88688e+06
8.23994e+06
7.55186e+06
6.88545e+06
6.19006e+06
5.52944e+06
4.9833e+06
4.1835e+06
3.07043e+07
3.43868e+07
3.49392e+07
3.3628e+07
3.23339e+07
4.33877e+07
5.17669e+07
4.77912e+07
2.55607e+07
6.97576e+06
6.96593e+06
7.11535e+06
7.12169e+06
6.96175e+06
6.60955e+06
6.18732e+06
5.66172e+06
5.13182e+06
4.68495e+06
3.96482e+06
3.26995e+07
3.66828e+07
3.72499e+07
3.09775e+07
4.93807e+06
4.41707e+06
4.95453e+06
5.77976e+06
6.58725e+06
6.74679e+06
6.59199e+06
6.23528e+06
5.67768e+06
5.08279e+06
4.58559e+06
3.80933e+06
3.39576e+07
3.92456e+07
4.19375e+07
4.21441e+07
4.7361e+06
4.80438e+06
4.96615e+06
5.36139e+06
5.95517e+06
6.41386e+06
6.39474e+06
6.18254e+06
5.71395e+06
5.12249e+06
4.58221e+06
3.75134e+06
3.48182e+07
4.07548e+07
4.47638e+07
5.07895e+07
5.32617e+06
5.24828e+06
5.26219e+06
5.37301e+06
5.65012e+06
6.01798e+06
6.09337e+06
5.98902e+06
5.65691e+06
5.12761e+06
4.55821e+06
3.6465e+06
3.28894e+07
3.67822e+07
3.88333e+07
4.77208e+07
5.63956e+06
5.03007e+06
5.08913e+06
5.2017e+06
5.4075e+06
5.76772e+06
5.96094e+06
5.92005e+06
5.7163e+06
5.27168e+06
4.67289e+06
3.64527e+06
2.74143e+07
2.69232e+07
2.36919e+07
2.51786e+07
4.94923e+06
4.57975e+06
5.2562e+06
5.66868e+06
1.58762e+06
2.29343e+06
3.1475e+06
3.81298e+06
4.33735e+06
4.85216e+06
5.34827e+06
5.56029e+06
5.4944e+06
5.22103e+06
4.74174e+06
3.6934e+06
2.24945e+07
1.87946e+07
1.36621e+07
6.73071e+06
4.2059e+06
4.71458e+06
5.26358e+06
5.09228e+06
2.36435e+06
1.35471e+06
1.63576e+06
2.2195e+06
2.89432e+06
3.57464e+06
4.27609e+06
4.86525e+06
5.00868e+06
4.92409e+06
4.61432e+06
3.68736e+06
1.82433e+07
1.40992e+07
1.04185e+07
6.58694e+06
4.72705e+06
4.87134e+06
5.28262e+06
5.15061e+06
3.2558e+06
1.67594e+06
1.25741e+06
1.34585e+06
1.74156e+06
2.39419e+06
3.16295e+06
3.91378e+06
4.35231e+06
4.39789e+06
4.25698e+06
3.52282e+06
1.48814e+07
1.15273e+07
9.28234e+06
6.75954e+06
5.54713e+06
5.2751e+06
5.39e+06
5.25776e+06
3.93079e+06
2.31699e+06
1.37373e+06
1.29683e+06
1.3957e+06
1.74024e+06
2.3311e+06
3.02266e+06
3.56916e+06
3.70109e+06
3.60534e+06
3.05881e+06
1.23941e+07
9.85907e+06
8.6307e+06
6.85702e+06
6.37858e+06
5.8619e+06
5.64796e+06
5.45974e+06
4.4541e+06
3.02874e+06
1.82581e+06
1.42719e+06
1.44152e+06
1.57918e+06
1.89144e+06
2.31707e+06
2.69714e+06
2.78429e+06
2.65104e+06
2.49595e+06
1.05577e+07
8.61263e+06
8.03195e+06
6.75255e+06
6.59656e+06
6.32903e+06
5.97646e+06
5.80449e+06
4.9659e+06
3.72763e+06
2.52917e+06
1.83512e+06
1.62265e+06
1.60412e+06
1.62851e+06
1.68857e+06
1.79259e+06
1.94753e+06
2.13596e+06
2.48705e+06
9.11727e+06
7.57705e+06
7.38807e+06
6.4601e+06
6.46066e+06
6.31938e+06
6.04408e+06
5.95624e+06
5.44798e+06
4.43303e+06
3.32625e+06
2.48206e+06
1.99918e+06
1.67638e+06
1.4556e+06
1.3916e+06
1.53017e+06
1.85478e+06
2.17337e+06
3.01821e+06
8.00333e+06
6.7299e+06
6.75479e+06
6.07751e+06
6.12877e+06
6.12321e+06
5.94621e+06
5.9092e+06
5.60427e+06
4.98789e+06
4.07296e+06
3.19004e+06
2.46668e+06
1.78556e+06
1.41425e+06
1.4046e+06
1.62345e+06
2.20712e+06
3.00792e+06
4.85927e+06
6.97961e+06
5.95086e+06
6.0817e+06
5.57682e+06
5.59127e+06
5.66713e+06
5.62475e+06
5.69442e+06
5.52161e+06
5.08797e+06
4.47542e+06
3.71778e+06
2.85625e+06
1.90807e+06
1.5784e+06
1.65585e+06
2.28382e+06
3.82274e+06
5.60928e+06
8.04251e+06
6.11481e+06
5.26212e+06
5.43746e+06
5.06341e+06
5.00934e+06
5.07632e+06
5.10726e+06
5.24011e+06
5.23269e+06
4.98665e+06
4.49985e+06
3.82518e+06
2.91369e+06
2.05161e+06
1.94083e+06
2.28265e+06
3.87242e+06
6.48958e+06
8.95526e+06
1.10457e+07
5.47118e+06
4.73398e+06
4.90457e+06
4.62623e+06
4.51854e+06
4.53298e+06
4.55042e+06
4.64861e+06
4.74088e+06
4.65354e+06
4.34016e+06
3.71146e+06
2.76271e+06
2.23955e+06
2.27617e+06
3.13046e+06
5.73585e+06
9.04022e+06
1.12954e+07
1.27068e+07
4.52625e+06
3.97289e+06
4.12204e+06
3.91621e+06
3.75207e+06
3.70224e+06
3.64455e+06
3.63017e+06
3.68177e+06
3.7012e+06
3.5576e+06
3.11714e+06
2.58327e+06
2.59155e+06
3.16167e+06
5.06807e+06
8.28441e+06
1.11739e+07
1.27654e+07
1.53525e+07
2.20258e+07
2.55669e+07
2.79534e+07
2.98532e+07
3.19308e+07
3.32039e+07
3.4003e+07
3.18013e+07
2.62817e+07
2.1484e+07
1.74048e+07
1.41963e+07
1.18328e+07
1.00993e+07
8.72857e+06
7.66065e+06
6.67691e+06
5.8264e+06
5.17825e+06
4.25307e+06
2.5546e+07
2.96136e+07
3.20326e+07
3.32186e+07
3.58179e+07
3.85132e+07
3.9898e+07
3.55363e+07
2.57913e+07
1.79524e+07
1.3538e+07
1.11331e+07
9.56468e+06
8.38891e+06
7.40034e+06
6.58232e+06
5.82064e+06
5.12994e+06
4.57862e+06
3.79817e+06
2.79176e+07
3.20385e+07
3.41539e+07
3.34829e+07
3.6318e+07
4.13649e+07
4.39109e+07
3.74237e+07
2.25149e+07
1.29262e+07
1.00167e+07
9.00894e+06
8.43042e+06
7.88233e+06
7.27683e+06
6.67851e+06
6.01858e+06
5.36288e+06
4.79944e+06
3.97809e+06
2.96857e+07
3.30702e+07
3.33568e+07
3.10876e+07
2.98377e+07
4.17773e+07
4.98819e+07
4.57522e+07
2.36464e+07
6.28754e+06
6.40358e+06
6.71044e+06
6.79337e+06
6.679e+06
6.3761e+06
5.99767e+06
5.49869e+06
4.9754e+06
4.52198e+06
3.79673e+06
3.15292e+07
3.51833e+07
3.55149e+07
2.91382e+07
4.61418e+06
4.11808e+06
4.56514e+06
5.32672e+06
6.15647e+06
6.52433e+06
6.43365e+06
6.15398e+06
5.6434e+06
5.04986e+06
4.52324e+06
3.70264e+06
3.2741e+07
3.77637e+07
4.03311e+07
4.03873e+07
4.39024e+06
4.56838e+06
4.70205e+06
5.06406e+06
5.63094e+06
6.18015e+06
6.22752e+06
6.07464e+06
5.68185e+06
5.11536e+06
4.54777e+06
3.6762e+06
3.3553e+07
3.91981e+07
4.30022e+07
4.859e+07
4.89379e+06
4.97658e+06
4.99318e+06
5.07285e+06
5.31198e+06
5.69278e+06
5.85411e+06
5.78738e+06
5.532e+06
5.05554e+06
4.49941e+06
3.58517e+06
3.16049e+07
3.5275e+07
3.71724e+07
4.54508e+07
5.08525e+06
4.69914e+06
4.7712e+06
4.87017e+06
5.0351e+06
5.36796e+06
5.66206e+06
5.64712e+06
5.50371e+06
5.13259e+06
4.5898e+06
3.60435e+06
2.6262e+07
2.58016e+07
2.26402e+07
2.42514e+07
4.86354e+06
4.326e+06
4.93932e+06
5.19378e+06
1.36276e+06
1.98427e+06
2.79397e+06
3.42784e+06
3.91389e+06
4.40246e+06
4.9293e+06
5.23589e+06
5.21855e+06
5.01564e+06
4.60843e+06
3.65333e+06
2.15112e+07
1.80006e+07
1.30181e+07
6.40035e+06
4.07538e+06
4.52944e+06
5.0065e+06
4.74973e+06
2.13769e+06
1.16453e+06
1.40355e+06
1.91929e+06
2.5265e+06
3.17015e+06
3.84688e+06
4.46713e+06
4.71039e+06
4.66502e+06
4.43768e+06
3.63073e+06
1.74254e+07
1.35117e+07
9.94081e+06
6.29203e+06
4.48973e+06
4.66609e+06
5.02049e+06
4.81651e+06
2.95489e+06
1.46237e+06
1.08485e+06
1.15707e+06
1.48795e+06
2.07698e+06
2.79797e+06
3.53197e+06
4.02948e+06
4.144e+06
4.05868e+06
3.46141e+06
1.42e+07
1.10566e+07
8.86211e+06
6.46841e+06
5.1932e+06
5.02459e+06
5.0913e+06
4.91231e+06
3.56076e+06
2.02916e+06
1.18505e+06
1.10062e+06
1.18828e+06
1.50954e+06
2.06321e+06
2.71512e+06
3.28894e+06
3.51905e+06
3.47339e+06
3.03597e+06
1.1819e+07
9.46721e+06
8.2653e+06
6.55861e+06
5.9744e+06
5.56015e+06
5.30564e+06
5.07748e+06
4.03066e+06
2.65588e+06
1.55977e+06
1.21139e+06
1.23429e+06
1.37661e+06
1.67317e+06
2.10534e+06
2.54248e+06
2.70719e+06
2.60492e+06
2.38061e+06
1.00704e+07
8.2863e+06
7.72216e+06
6.46964e+06
6.329e+06
6.06504e+06
5.63219e+06
5.39865e+06
4.51833e+06
3.30423e+06
2.18724e+06
1.58001e+06
1.40287e+06
1.39975e+06
1.47053e+06
1.59618e+06
1.72706e+06
1.81733e+06
1.93e+06
2.24313e+06
8.68965e+06
7.30116e+06
7.12964e+06
6.20141e+06
6.24744e+06
6.10451e+06
5.76143e+06
5.61916e+06
5.02947e+06
3.98312e+06
2.93048e+06
2.16942e+06
1.73832e+06
1.49739e+06
1.34152e+06
1.26781e+06
1.35294e+06
1.63192e+06
1.91721e+06
2.55194e+06
7.6186e+06
6.48942e+06
6.54428e+06
5.85213e+06
5.98474e+06
5.95672e+06
5.69727e+06
5.58794e+06
5.23805e+06
4.56864e+06
3.66259e+06
2.83817e+06
2.19727e+06
1.64421e+06
1.2808e+06
1.2376e+06
1.39007e+06
1.78569e+06
2.29936e+06
3.72072e+06
6.63313e+06
5.73648e+06
5.89886e+06
5.38165e+06
5.49298e+06
5.5726e+06
5.44801e+06
5.4259e+06
5.19602e+06
4.73677e+06
4.11668e+06
3.39367e+06
2.62841e+06
1.78028e+06
1.3816e+06
1.40891e+06
1.73962e+06
2.68136e+06
3.99163e+06
6.34426e+06
5.78355e+06
5.05557e+06
5.25753e+06
4.88275e+06
4.92048e+06
5.0098e+06
4.98632e+06
5.04284e+06
4.9633e+06
4.67083e+06
4.18858e+06
3.5841e+06
2.76901e+06
1.87388e+06
1.68516e+06
1.83525e+06
2.72617e+06
4.74546e+06
7.15588e+06
9.7455e+06
5.13791e+06
4.51361e+06
4.71031e+06
4.44538e+06
4.40837e+06
4.44875e+06
4.44367e+06
4.50447e+06
4.54085e+06
4.41166e+06
4.08628e+06
3.52736e+06
2.65954e+06
1.99778e+06
1.98756e+06
2.39313e+06
4.11513e+06
7.25494e+06
1.04007e+07
1.18495e+07
4.21948e+06
3.74748e+06
3.91024e+06
3.73598e+06
3.61494e+06
3.59344e+06
3.54268e+06
3.53864e+06
3.58127e+06
3.58167e+06
3.44625e+06
3.05404e+06
2.42544e+06
2.31024e+06
2.65214e+06
3.89532e+06
6.57733e+06
9.91383e+06
1.19106e+07
1.38712e+07
2.16987e+07
2.52356e+07
2.7591e+07
2.94125e+07
3.13937e+07
3.25975e+07
3.33976e+07
3.12199e+07
2.57077e+07
2.09278e+07
1.69216e+07
1.3802e+07
1.15136e+07
9.84027e+06
8.51112e+06
7.46015e+06
6.50018e+06
5.65913e+06
5.00865e+06
4.10573e+06
2.51851e+07
2.91764e+07
3.15129e+07
3.25735e+07
3.51168e+07
3.77668e+07
3.91677e+07
3.49198e+07
2.51841e+07
1.73825e+07
1.30587e+07
1.07607e+07
9.28044e+06
8.17552e+06
7.24215e+06
6.4473e+06
5.70605e+06
5.02342e+06
4.46363e+06
3.68929e+06
2.74896e+07
3.14504e+07
3.34308e+07
3.26783e+07
3.55233e+07
4.0572e+07
4.31397e+07
3.68473e+07
2.1916e+07
1.23662e+07
9.52698e+06
8.60399e+06
8.12275e+06
7.65845e+06
7.12566e+06
6.56529e+06
5.92912e+06
5.28176e+06
4.706e+06
3.87967e+06
2.92428e+07
3.23504e+07
3.24172e+07
2.9736e+07
2.8937e+07
4.08086e+07
4.88218e+07
4.5006e+07
2.30286e+07
5.96019e+06
6.04358e+06
6.37604e+06
6.5523e+06
6.48326e+06
6.23947e+06
5.89818e+06
5.4315e+06
4.92058e+06
4.4569e+06
3.72638e+06
3.10444e+07
3.4517e+07
3.47118e+07
2.7939e+07
4.62296e+06
4.02968e+06
4.36065e+06
5.04003e+06
5.86333e+06
6.36142e+06
6.32341e+06
6.10786e+06
5.64289e+06
5.04882e+06
4.50166e+06
3.66598e+06
3.22246e+07
3.71403e+07
3.97165e+07
3.98701e+07
4.314e+06
4.50146e+06
4.6286e+06
4.97852e+06
5.52884e+06
6.10302e+06
6.19081e+06
6.06145e+06
5.70581e+06
5.14868e+06
4.56214e+06
3.66815e+06
3.29975e+07
3.85383e+07
4.23346e+07
4.77746e+07
4.83301e+06
4.92282e+06
4.93593e+06
5.01178e+06
5.24072e+06
5.64114e+06
5.81147e+06
5.75104e+06
5.51791e+06
5.05747e+06
4.50082e+06
3.58927e+06
3.09992e+07
3.45504e+07
3.63503e+07
4.42203e+07
5.08487e+06
4.65079e+06
4.71093e+06
4.79661e+06
4.94303e+06
5.24776e+06
5.57813e+06
5.57436e+06
5.44917e+06
5.09643e+06
4.5697e+06
3.60872e+06
2.5689e+07
2.51361e+07
2.19043e+07
2.3058e+07
4.55414e+06
4.24055e+06
4.78386e+06
5.0674e+06
1.3294e+06
1.92387e+06
2.72117e+06
3.33601e+06
3.79543e+06
4.2601e+06
4.79567e+06
5.13334e+06
5.13108e+06
4.95819e+06
4.57546e+06
3.66262e+06
2.10169e+07
1.75109e+07
1.25677e+07
6.11094e+06
4.00602e+06
4.44642e+06
4.89679e+06
4.65047e+06
2.08271e+06
1.10541e+06
1.33092e+06
1.83382e+06
2.42427e+06
3.04851e+06
3.70635e+06
4.31302e+06
4.61112e+06
4.58601e+06
4.39082e+06
3.64289e+06
1.70438e+07
1.31977e+07
9.6892e+06
6.17169e+06
4.37848e+06
4.58743e+06
4.91277e+06
4.70736e+06
2.862e+06
1.37841e+06
1.02117e+06
1.09778e+06
1.41395e+06
1.97556e+06
2.66125e+06
3.36932e+06
3.89953e+06
4.05836e+06
3.99464e+06
3.4687e+06
1.39149e+07
1.08572e+07
8.68678e+06
6.42792e+06
5.05787e+06
4.94409e+06
4.98796e+06
4.79578e+06
3.43284e+06
1.9118e+06
1.1141e+06
1.02872e+06
1.10792e+06
1.40019e+06
1.91869e+06
2.55445e+06
3.14656e+06
3.43177e+06
3.41104e+06
3.05278e+06
1.16001e+07
9.33204e+06
8.13743e+06
6.51182e+06
5.84135e+06
5.49173e+06
5.20751e+06
4.9508e+06
3.87655e+06
2.51251e+06
1.45154e+06
1.1136e+06
1.11906e+06
1.2471e+06
1.53691e+06
1.97338e+06
2.43413e+06
2.6571e+06
2.59324e+06
2.39834e+06
9.89235e+06
8.19049e+06
7.63271e+06
6.42201e+06
6.26314e+06
6.03373e+06
5.56934e+06
5.26379e+06
4.34511e+06
3.1402e+06
2.02999e+06
1.42186e+06
1.25465e+06
1.26601e+06
1.36703e+06
1.53536e+06
1.69686e+06
1.79282e+06
1.88446e+06
2.18528e+06
8.53283e+06
7.23007e+06
7.07309e+06
6.16124e+06
6.21048e+06
6.10033e+06
5.71987e+06
5.52982e+06
4.87015e+06
3.79492e+06
2.72793e+06
1.96029e+06
1.56134e+06
1.37879e+06
1.29287e+06
1.23162e+06
1.29677e+06
1.53902e+06
1.8137e+06
2.38822e+06
7.46104e+06
6.41636e+06
6.49682e+06
5.81499e+06
5.98157e+06
5.96591e+06
5.66306e+06
5.50762e+06
5.11926e+06
4.37283e+06
3.44275e+06
2.62088e+06
2.02267e+06
1.56094e+06
1.23777e+06
1.17847e+06
1.30001e+06
1.63707e+06
2.07143e+06
3.32984e+06
6.48585e+06
5.66514e+06
5.85666e+06
5.35476e+06
5.51689e+06
5.6079e+06
5.43576e+06
5.36372e+06
5.09386e+06
4.61032e+06
3.94753e+06
3.21275e+06
2.48799e+06
1.72404e+06
1.30936e+06
1.30876e+06
1.55981e+06
2.33134e+06
3.4485e+06
5.66103e+06
5.63724e+06
4.97945e+06
5.20944e+06
4.85367e+06
4.93591e+06
5.04772e+06
4.98299e+06
4.99899e+06
4.8894e+06
4.56563e+06
4.06687e+06
3.4589e+06
2.68255e+06
1.81509e+06
1.56422e+06
1.66078e+06
2.35936e+06
4.10816e+06
6.40022e+06
9.05154e+06
4.98409e+06
4.42058e+06
4.63922e+06
4.39693e+06
4.40026e+06
4.463e+06
4.43534e+06
4.47429e+06
4.48729e+06
4.33968e+06
3.98795e+06
3.42742e+06
2.60782e+06
1.91251e+06
1.8482e+06
2.1251e+06
3.53537e+06
6.48774e+06
9.76332e+06
1.12225e+07
4.0829e+06
3.65264e+06
3.827e+06
3.6757e+06
3.58747e+06
3.58574e+06
3.53682e+06
3.53317e+06
3.57012e+06
3.56723e+06
3.42139e+06
3.03333e+06
2.40057e+06
2.21056e+06
2.44193e+06
3.44323e+06
5.83328e+06
9.20887e+06
1.12967e+07
1.30098e+07
2.16958e+07
2.52244e+07
2.75714e+07
2.93371e+07
3.12849e+07
3.25034e+07
3.33343e+07
3.1186e+07
2.571e+07
2.09377e+07
1.69254e+07
1.37986e+07
1.15063e+07
9.83007e+06
8.50028e+06
7.451e+06
6.49265e+06
5.65379e+06
5.00503e+06
4.10343e+06
2.51839e+07
2.91699e+07
3.15278e+07
3.24586e+07
3.49246e+07
3.76125e+07
3.9067e+07
3.48781e+07
2.52218e+07
1.74256e+07
1.30753e+07
1.07549e+07
9.26483e+06
8.15658e+06
7.223e+06
6.42986e+06
5.69156e+06
5.01238e+06
4.45532e+06
3.68353e+06
2.74921e+07
3.14327e+07
3.34555e+07
3.25429e+07
3.52853e+07
4.03982e+07
4.30135e+07
3.67975e+07
2.19849e+07
1.24581e+07
9.57116e+06
8.60156e+06
8.0948e+06
7.62423e+06
7.09268e+06
6.53603e+06
5.90503e+06
5.26244e+06
4.69071e+06
3.86909e+06
2.92995e+07
3.24555e+07
3.25679e+07
2.94954e+07
2.89799e+07
4.04898e+07
4.84597e+07
4.47625e+07
2.29761e+07
6.01888e+06
6.10432e+06
6.41348e+06
6.53845e+06
6.45735e+06
6.20404e+06
5.86045e+06
5.39806e+06
4.89406e+06
4.43652e+06
3.71274e+06
3.11362e+07
3.46593e+07
3.48529e+07
2.71553e+07
4.39357e+06
4.02947e+06
4.37128e+06
5.04774e+06
5.85546e+06
6.328e+06
6.28559e+06
6.06685e+06
5.60266e+06
5.01334e+06
4.47251e+06
3.64643e+06
3.22978e+07
3.72471e+07
3.98237e+07
3.98689e+07
4.2839e+06
4.49817e+06
4.63359e+06
4.98908e+06
5.54236e+06
6.10739e+06
6.18211e+06
6.04995e+06
5.69049e+06
5.1284e+06
4.54024e+06
3.65075e+06
3.30257e+07
3.85744e+07
4.23681e+07
4.77081e+07
4.75943e+06
4.93463e+06
4.95929e+06
5.04215e+06
5.27666e+06
5.68071e+06
5.82919e+06
5.76345e+06
5.52038e+06
5.05212e+06
4.4924e+06
3.58152e+06
3.09785e+07
3.45132e+07
3.63063e+07
4.40443e+07
5.08019e+06
4.66062e+06
4.73893e+06
4.83385e+06
4.98502e+06
5.29573e+06
5.61071e+06
5.59813e+06
5.45996e+06
5.09738e+06
4.5652e+06
3.60226e+06
2.566e+07
2.51129e+07
2.19189e+07
2.31666e+07
4.28252e+06
4.23802e+06
4.74659e+06
5.05774e+06
1.28928e+06
1.95854e+06
2.76574e+06
3.37891e+06
3.83753e+06
4.30454e+06
4.84465e+06
5.16339e+06
5.15394e+06
4.969e+06
4.58036e+06
3.66047e+06
2.09813e+07
1.74691e+07
1.25494e+07
6.06464e+06
3.97836e+06
4.46821e+06
4.91846e+06
4.64628e+06
2.04157e+06
1.10679e+06
1.34732e+06
1.85994e+06
2.45091e+06
3.07613e+06
3.73944e+06
4.34877e+06
4.63836e+06
4.60879e+06
4.40531e+06
3.64647e+06
1.7016e+07
1.31725e+07
9.69642e+06
6.18315e+06
4.36958e+06
4.60183e+06
4.93439e+06
4.70374e+06
2.82624e+06
1.37189e+06
1.024e+06
1.10338e+06
1.42105e+06
1.98511e+06
2.6776e+06
3.39637e+06
3.93124e+06
4.08551e+06
4.01839e+06
3.47831e+06
1.39012e+07
1.08556e+07
8.70983e+06
6.48261e+06
5.0797e+06
4.96133e+06
5.00633e+06
4.79096e+06
3.40417e+06
1.89744e+06
1.11246e+06
1.02907e+06
1.10898e+06
1.40376e+06
1.92713e+06
2.57277e+06
3.17497e+06
3.45814e+06
3.43582e+06
3.06804e+06
1.15992e+07
9.34985e+06
8.17312e+06
6.58003e+06
5.89811e+06
5.52679e+06
5.22845e+06
4.94317e+06
3.84972e+06
2.49089e+06
1.44157e+06
1.11282e+06
1.12096e+06
1.25091e+06
1.54375e+06
1.98737e+06
2.45579e+06
2.67861e+06
2.61425e+06
2.41621e+06
9.90129e+06
8.21931e+06
7.67483e+06
6.48712e+06
6.33627e+06
6.08564e+06
5.60561e+06
5.25701e+06
4.31681e+06
3.11432e+06
2.01527e+06
1.41976e+06
1.25742e+06
1.26993e+06
1.3731e+06
1.54636e+06
1.71126e+06
1.80822e+06
1.90149e+06
2.20258e+06
8.54692e+06
7.26229e+06
7.11671e+06
6.21799e+06
6.27935e+06
6.15049e+06
5.7525e+06
5.53855e+06
4.84604e+06
3.77076e+06
2.71436e+06
1.95848e+06
1.56439e+06
1.38204e+06
1.29915e+06
1.23913e+06
1.30571e+06
1.5508e+06
1.82852e+06
2.40696e+06
7.47604e+06
6.44689e+06
6.53766e+06
5.86192e+06
6.04022e+06
6.011e+06
5.69254e+06
5.51968e+06
5.11276e+06
4.35388e+06
3.43012e+06
2.61613e+06
2.02184e+06
1.56264e+06
1.24261e+06
1.18357e+06
1.3072e+06
1.64703e+06
2.08482e+06
3.35119e+06
6.50036e+06
5.69154e+06
5.89138e+06
5.3903e+06
5.56226e+06
5.64282e+06
5.45913e+06
5.37923e+06
5.09221e+06
4.59992e+06
3.93394e+06
3.20306e+06
2.48459e+06
1.7259e+06
1.31184e+06
1.31151e+06
1.56447e+06
2.33841e+06
3.45793e+06
5.67979e+06
5.65017e+06
5.00112e+06
5.23773e+06
4.87908e+06
4.96793e+06
5.07312e+06
4.99865e+06
5.01569e+06
4.89543e+06
4.55925e+06
4.05674e+06
3.45139e+06
2.68085e+06
1.81548e+06
1.56263e+06
1.65987e+06
2.35932e+06
4.10911e+06
6.40395e+06
9.06335e+06
4.99489e+06
4.43764e+06
4.66097e+06
4.41521e+06
4.4238e+06
4.48154e+06
4.4454e+06
4.48902e+06
4.49772e+06
4.34076e+06
3.98083e+06
3.42099e+06
2.60573e+06
1.9081e+06
1.84327e+06
2.12066e+06
3.53171e+06
6.48048e+06
9.7668e+06
1.1227e+07
4.09056e+06
3.66399e+06
3.84063e+06
3.68732e+06
3.60211e+06
3.59779e+06
3.54306e+06
3.54343e+06
3.5821e+06
3.5751e+06
3.42342e+06
3.03117e+06
2.39584e+06
2.20381e+06
2.43458e+06
3.43547e+06
5.82382e+06
9.19944e+06
1.13015e+07
1.30093e+07
2.20211e+07
2.55536e+07
2.79347e+07
2.97256e+07
3.17268e+07
3.30135e+07
3.38717e+07
3.17216e+07
2.62351e+07
2.14555e+07
1.73862e+07
1.41814e+07
1.18173e+07
1.00834e+07
8.71413e+06
7.65002e+06
6.66969e+06
5.82265e+06
5.17664e+06
4.25281e+06
2.55342e+07
2.9585e+07
3.20373e+07
3.30366e+07
3.55126e+07
3.82309e+07
3.97122e+07
3.54418e+07
2.57274e+07
1.79072e+07
1.34946e+07
1.10921e+07
9.52481e+06
8.35052e+06
7.36556e+06
6.55273e+06
5.79709e+06
5.1127e+06
4.56607e+06
3.78989e+06
2.79024e+07
3.19568e+07
3.41022e+07
3.32724e+07
3.5987e+07
4.10733e+07
4.37117e+07
3.73401e+07
2.24027e+07
1.28478e+07
9.93268e+06
8.93413e+06
8.36722e+06
7.82962e+06
7.23244e+06
6.64004e+06
5.98511e+06
5.3346e+06
4.77731e+06
3.96225e+06
2.97858e+07
3.31763e+07
3.3426e+07
3.03074e+07
2.94866e+07
4.09334e+07
4.9071e+07
4.52197e+07
2.31273e+07
6.21992e+06
6.3385e+06
6.64136e+06
6.72369e+06
6.61483e+06
6.31967e+06
5.94788e+06
5.45686e+06
4.94226e+06
4.49609e+06
3.7778e+06
3.17052e+07
3.54233e+07
3.57106e+07
2.76143e+07
4.48722e+06
4.10303e+06
4.52498e+06
5.27343e+06
6.10112e+06
6.46234e+06
6.37148e+06
6.09381e+06
5.58623e+06
4.99839e+06
4.4779e+06
3.66964e+06
3.28774e+07
3.79461e+07
4.05308e+07
4.03122e+07
4.29633e+06
4.55957e+06
4.69658e+06
5.06016e+06
5.62513e+06
6.16744e+06
6.20806e+06
6.05337e+06
5.65631e+06
5.08119e+06
4.51165e+06
3.64592e+06
3.35873e+07
3.92186e+07
4.30161e+07
4.82418e+07
4.87394e+06
5.02116e+06
5.02921e+06
5.09969e+06
5.33263e+06
5.70617e+06
5.85619e+06
5.78755e+06
5.52548e+06
5.04559e+06
4.49003e+06
3.57715e+06
3.15426e+07
3.51059e+07
3.68704e+07
4.45107e+07
5.14787e+06
4.77012e+06
4.82299e+06
4.9096e+06
5.07167e+06
5.40548e+06
5.67663e+06
5.65406e+06
5.49938e+06
5.12047e+06
4.57665e+06
3.59421e+06
2.61656e+07
2.55724e+07
2.22713e+07
2.32533e+07
4.47285e+06
4.27043e+06
4.83166e+06
5.09219e+06
1.30948e+06
2.06022e+06
2.87597e+06
3.49566e+06
3.97179e+06
4.45913e+06
4.98906e+06
5.26273e+06
5.23527e+06
5.01959e+06
4.60878e+06
3.64783e+06