/*--------------------------------*- C++ -*----------------------------------*\
  =========                 |
  \\      /  F ield         | OpenFOAM: The Open Source CFD Toolbox
   \\    /   O peration     | Website:  https://openfoam.org
    \\  /    A nd           | Version:  9
     \\/     M anipulation  |
\*---------------------------------------------------------------------------*/
FoamFile
{
    format      ascii;
    class       surfaceScalarField;
    location    "0.0025";
    object      phi;
}
// * * * * * * * * * * * * * * * * * * * * * * * * * * * * * * * * * * * * * //

dimensions      [0 3 -1 0 0 0 0];

internalField   nonuniform List<scalar> 
28500
(
-246.175
-246.169
-69.4063
-195.458
-260.294
-73.3119
-150.282
-273.667
-69.9303
-101.206
-287.162
-72.5557
-45.3808
-314.38
-73.7184
20.5743
-330.677
-76.1616
91.2617
-341.185
-78.7755
173.018
-346.41
-80.3247
267.461
-337.971
-79.7008
340.908
-291.53
-78.7147
402.491
-238.784
-78.3716
455.087
-199.864
-78.8383
502.437
-176.636
-79.3403
547.324
-162.318
-79.4559
590.683
-154.234
-80.7524
634.291
-147.111
-77.3712
678.841
-146.234
-82.8324
722.407
-143.964
-81.2951
768.723
-140.983
-79.1663
-141.292
-80.1704
-259.644
-195.974
-73.2298
-210.437
-212.236
-73.9636
-168.747
-225.505
-66.1969
-123.186
-245.473
-67.9399
-65.9156
-282.296
-72.9392
7.31288
-304.412
-74.4634
88.9325
-317.018
-78.2481
190.925
-320.295
-78.7036
311.709
-294.03
-77.5619
393.647
-220.564
-76.5396
448.146
-151.27
-76.0719
490.73
-105.281
-78.3216
529.238
-80.1279
-81.3386
566.874
-66.9601
-83.2469
604.781
-60.4537
-86.9144
643.717
-55.5886
-83.1044
684.205
-55.4894
-88.9803
724.982
-55.116
-89.7037
768.289
-53.9846
-86.3534
-55.3009
-85.9177
-272.415
-150.638
-69.5152
-222.804
-170.318
-65.6311
-187.52
-190.525
-54.7549
-144.69
-53.9151
-57.5024
-53.7025
-54.2777
-55.0915
-83.5682
-64.7832
-68.9391
-67.7858
-66.6944
-69.2536
-3.55258
-70.3393
-70.8971
-72.5529
-71.5437
-73.552
86.6612
-71.681
-74.1573
-73.0771
-72.8317
-74.0347
210.455
-73.0745
-73.1832
-73.1636
-74.1671
-74.2122
364.131
-62.9068
-67.4497
-52.5508
-64.2226
-53.6753
443.148
-118.185
-66.1993
481.402
-55.6925
-63.073
512.82
-21.2408
-62.4937
544.712
-4.38652
-65.592
578.543
4.25696
-69.4638
614.615
8.73169
-75.4596
652.454
12.8488
-75.213
692.253
14.5388
-82.2024
732.55
14.5089
-82.485
774.989
16.2376
-81.5142
15.2257
-82.1131
-286.263
-100.806
-71.1115
-243.939
-123.076
-65.6025
-53.0766
-145.691
-54.5159
-53.0776
-53.0818
-54.1694
-48.2851
-48.813
-14.8885
-34.8582
-18.7256
42.9815
-16.2127
-15.8305
-15.8461
-16.1383
23.9298
-12.0284
-19.0957
-16.9585
-16.9816
-17.0564
-16.899
1.27097
9.54223
-19.7808
-17.3186
-16.9679
-17.0265
-17.2426
-21.6611
36.8033
-20.0592
-17.5772
-17.1811
-17.2273
-17.4546
-65.1126
87.9421
-54.8627
-20.2186
490.761
-10.7872
-69.9164
-113.466
-119.145
-113.479
-119.471
505.949
28.5641
-70.6114
526.298
60.3625
-65.7709
552.374
73.6209
-64.1416
583.251
77.4714
-65.9216
618.579
77.3163
-72.0268
656.922
75.3557
-72.0748
698.15
77.0611
-83.6385
739.606
74.6625
-87.3912
783.013
76.9336
-87.1781
79.4759
-90.6882
-313.532
-44.7846
-71.9236
-281.188
-64.8885
-69.9438
-65.0805
-82.7399
-65.2811
-68.1299
-66.0387
-69.7541
-34.3879
-16.5843
44.6104
-16.6247
-16.3678
-16.488
-16.5293
0.39732
29.8211
2.14372
-5.64851
505.108
71.3098
-69.881
-122.953
-129.647
-123.853
-132.49
500.013
79.2541
-69.439
509.547
97.6307
-66.9974
531.242
112.392
-68.4242
558.254
121.035
-71.6667
592.124
124.837
-77.2173
630.951
122.898
-80.1402
673.581
125.672
-93.8634
716.736
122.155
-93.8954
762.488
124.667
-92.7528
130.522
-96.967
-330.216
20.4845
-75.9252
-304.167
7.38623
-74.0585
-70.0226
-3.96866
-70.4502
-72.5419
-70.9949
-73.5557
23.546
-12.0215
-18.4854
-16.9684
-16.8745
-16.9084
-16.9005
-3.7247
33.6728
4.93614
-4.31445
578.502
149.606
-71.9121
-139.474
-146.751
-142.571
-149.993
571.144
149.012
-72.3029
566.399
152.22
-70.9554
573.056
161.032
-71.1659
588.551
168.238
-73.8476
611.982
172.616
-77.8331
642.783
172.099
-81.1357
679.366
175.67
-93.1822
719.004
171.758
-92.5579
762.012
173.136
-93.3398
179.688
-98.952
-340.406
90.939
-79.2584
-316.609
88.7652
-78.6574
-71.885
86.8092
-74.6584
-73.1454
-73.0058
-74.0978
1.43594
9.35596
-19.9303
-17.335
-16.9871
-17.043
-17.2608
-8.4625
37.9535
9.56067
-4.5074
639.247
225.559
-73.4649
-155.994
-160.913
-158.857
-163.989
633.985
219.205
-73.6062
624.513
216.586
-71.6558
621.142
218.994
-71.0269
625.014
222.769
-72.4899
635.986
225.605
-74.3693
656.665
225.565
-76.6832
686.567
228.73
-86.7622
723.266
224.606
-86.8587
764.328
225.971
-89.6505
233.161
-97.3492
-345.182
173.147
-81.2495
-318.833
191.772
-80.5068
-72.8935
212.453
-75.9915
-72.6195
-73.968
-73.802
-21.7745
38.0263
-20.3183
-17.4863
-17.1654
-17.2242
-17.3567
-12.5727
41.0819
13.576
-4.37493
693.391
299.522
-71.6981
-166.661
-170.394
-169.93
-173.613
696.37
292.618
-71.4803
692.01
289.766
-70.2597
682.563
284.544
-68.2717
676.214
282.165
-69.2777
675.451
282.3
-72.7407
682.587
280.296
-74.1602
701.092
280.934
-80.283
730.804
277.106
-80.9548
767.583
279.715
-85.9078
286.546
-95.9692
-336.26
267.459
-81.7904
-291.051
312.034
-81.4771
-61.9459
364.268
-75.0639
-51.2547
-63.2662
-53.2741
-65.3199
-53.7911
88.6894
-21.5367
3.71665
2.65714
30.9246
-8.85334
-3.61645
4.84273
34.1838
-4.46008
-8.41683
9.53118
38.1139
-4.49597
-12.5364
13.4542
40.9876
-4.21935
-15.2723
-20.3473
150.91
158.152
-18.296
-22.1464
-14.5377
-21.0193
-24.6707
-22.5277
-25.8248
684.969
475.272
-69.186
-162.087
-150.606
-165.96
-152.442
706.048
426.417
-69.4097
716.518
403.631
-67.3772
717.461
383.191
-65.4893
714.393
367.409
-66.3314
713.975
354.225
-71.2316
716.791
346.112
-74.5519
727.043
342.656
-78.7103
747.854
336.606
-79.1913
776.493
338.377
-84.7432
343.177
-95.4295
-289.114
340.684
-81.8109
-217.219
393.322
-81.6877
-115.014
441.94
-74.3753
-10.6905
488.162
-79.3123
-113.024
-118.792
-112.983
-119.157
70.6908
504.253
-77.8727
-122.738
-130.673
-123.208
-131.373
149.318
577.256
-73.6883
-140.717
-147.567
-141.381
-148.314
225.803
636.928
-70.7268
-156.044
-161.166
-157.133
-162.849
309.138
691.212
-65.544
-167.549
-171.938
-170.152
-175.307
463.301
690.242
-63.5808
-165.757
-155.438
-170.005
-157.625
592.925
610.425
-53.8471
661.068
528.494
-51.4399
697.358
496.65
-66.7898
714.716
475.579
-70.7592
725.673
455.153
-68.1377
735.972
434.628
-67.2115
744.394
418.391
-70.5981
752.526
412.099
-77.1683
766.997
404.562
-77.2597
788.652
404.712
-83.2115
402.527
-94.9894
-236.521
402.141
-81.8976
-148.744
447.549
-81.5027
-53.7992
480.336
-70.2226
28.4479
504.118
-76.7483
79.2196
500.358
-74.7302
149.12
570.241
-73.558
219.885
632.105
-70.6537
295.753
691.644
-65.6026
424.327
707.33
-60.5627
521.007
672.108
-48.5686
599.428
613.028
-58.6757
660.619
568.21
-78.2401
691.233
544.45
-74.7223
715.336
526.831
-63.4376
737.719
509.706
-56.832
754.078
494.875
-60.9964
765.947
488.834
-70.8898
779.914
477.333
-72.0039
805.07
473.861
-83.8691
462.283
-99.189
-198.485
454.735
-82.2947
-103.819
490.096
-83.1891
-20.5325
512.108
-68.1018
59.2375
525.202
-70.0304
97.1018
510.593
-69.7155
152.349
566.597
-71.1814
217.312
624.334
-69.024
289.189
686.518
-64.8066
401.832
715.421
-57.9608
495.53
703.025
-55.0243
563.336
671.793
-72.2718
622.641
631.615
-80.1702
671.515
600.825
-60.9755
703.522
586.343
-44.7698
725.583
578.798
-43.1386
748.381
571.614
-55.7618
771.619
564.25
-69.7177
798.733
545.29
-76.0538
838.557
544.431
-96.8654
527.599
-106.17
-175.74
502.096
-82.4487
-79.3481
528.676
-85.2822
-4.00611
544.285
-69.7597
72.6752
551.827
-67.3068
111.519
532.311
-69.8581
160.449
573.567
-70.0152
219.44
622.638
-68.6134
283.047
678.033
-63.2424
379.696
715.895
-56.5612
474.712
718.938
-57.9844
545.331
699.906
-62.865
599.637
678.869
-54.3102
653.172
656.259
-36.4265
688.328
639.33
-30.5989
714.152
634.701
-45.5484
747.157
632.184
-70.8888
784.688
628.325
-86.18
823.828
610.357
-92.3435
865.659
613.289
-103.753
581.197
-94.7299
-161.654
546.999
-82.1111
-66.4179
566.427
-86.3261
4.43949
578.281
-72.5391
76.3924
582.904
-68.4592
119.934
559.26
-72.4312
167.149
588.71
-72.2544
222.697
627.172
-69.3558
281.442
674.024
-64.9793
363.123
712.701
-59.2352
452.247
729.312
-57.1098
527.135
722.82
-51.4571
589.531
709.996
-34.5057
640.78
692.978
-25.1782
678.429
681.617
-39.1167
718.288
681.915
-69.1147
761.51
684.919
-95.2922
795.741
685.451
-94.7903
819.905
668.418
-86.9006
842.719
659.944
-79.6344
597.005
-62.5133
-153.654
590.377
-83.0297
-59.9341
604.39
-89.3673
8.84686
614.389
-77.8131
76.0903
618.209
-74.2776
123.423
592.942
-78.0515
171.19
611.589
-76.163
224.928
638.635
-70.8204
281.281
674.484
-67.9908
350.971
712.45
-65.6525
430.464
737.882
-58.8988
507.51
742.895
-46.7673
580.032
731.447
-32.0139
636.273
719.419
-35.1312
681.208
723.173
-61.9424
731.791
732.405
-93.2339
763.896
735.358
-92.7109
771.945
719.344
-69.2539
784.212
686.574
-51.5278
818.625
659.676
-42.5547
560.279
-34.9651
-146.58
634.015
-79.2537
-55.0719
643.375
-84.977
12.9373
652.218
-76.8909
74.1423
656.405
-74.1282
121.336
631.512
-81.1135
170.591
641.808
-79.7543
224.578
659.472
-72.9813
279.662
683.357
-69.5985
344.09
715.862
-69.2823
415.021
744.596
-64.5175
491.689
756.248
-53.1902
570.757
752.895
-45.1988
633.42
752.571
-58.5037
686.766
764.517
-85.3843
737.865
762.96
-87.9408
749.057
747.056
-64.5776
740.495
709.1
-37.4982
747.928
625.197
-20.1985
778.77
562.934
-10.5199
524.057
-19.2235
-145.731
678.59
-84.5914
-54.9363
683.879
-90.64
14.6912
691.977
-83.6934
76.0855
697.473
-85.6247
124.235
673.878
-95.1225
174.106
678.049
-92.4666
227.294
689.15
-83.4686
280.583
702.893
-76.6704
341.139
727.139
-74.2225
409.763
752.325
-71.8859
485.911
766.295
-64.4346
562.217
774.514
-60.4284
628.286
789.72
-74.2797
686.299
799.508
-83.9214
719.524
772.992
-62.0017
709.364
742.086
-34.6599
654.329
656.131
-15.5011
657.986
560.034
-10.1625
690.891
518.737
-10.7496
522.109
-29.5401
-143.539
722.153
-82.9141
-54.6211
724.618
-91.2034
14.6583
732.19
-83.7981
74.0068
738.776
-89.3543
121.168
716.8
-94.9621
170.365
717.642
-92.0477
222.937
725.491
-84.1044
276.638
732.935
-77.8672
335.631
748.782
-75.2861
402.758
766.91
-72.4979
474.775
780.143
-66.0011
543.059
801.173
-67.4745
609.982
828.743
-81.5155
668.466
824.884
-77.3761
687.557
788.047
-45.2027
627.359
752.736
-17.8437
562.988
660.166
-10.1134
573.187
569.837
-26.4867
591.454
523.491
-40.7366
534.726
-53.0493
-140.604
768.445
-80.6899
-53.5272
767.887
-87.7312
16.4353
774.583
-82.5403
76.6546
782.156
-88.9447
123.973
762.341
-93.645
171.638
760.797
-92.8927
223.915
766.096
-87.2579
278.879
769.709
-83.0095
337.787
777.722
-81.0929
403.568
788.561
-78.5521
471.743
805.415
-77.6901
541.95
840.79
-87.9227
612.541
870.929
-93.9802
659.456
847.405
-72.056
660.885
823.25
-39.1979
568.243
782.689
-11.0772
524.505
692.435
-11.7086
528.709
588.883
-41.3649
532.657
528.035
-67.1568
541.485
-77.582
-140.972
-81.631
-54.912
-87.3036
15.4851
-83.1417
79.4541
-92.1297
129.995
-97.9249
178.318
-98.7286
230.991
-95.5308
285.544
-93.4403
342.945
-92.0866
402.11
-90.507
460.838
-93.1929
526.256
-98.704
580.303
-88.4144
597.344
-58.957
562.036
-35.4874
527.658
-21.7984
527.572
-31.1635
539.615
-53.1789
545.448
-78.0179
-89.7486
-248.919
-249.099
-51.2209
-199.062
-264.686
-53.3688
-154.386
-279.559
-50.2951
-105.214
-294.487
-52.5165
-48.4786
-323.55
-53.5834
18.3045
-340.493
-55.9867
90.6172
-351.428
-57.9935
175.105
-355.271
-59.3191
270.05
-346.345
-58.374
343.651
-298.384
-57.0486
404.849
-243.86
-56.4148
456.685
-202.541
-56.5807
503.225
-178.6
-57.0795
547.221
-163.814
-57.4545
589.601
-155.492
-59.5116
632.244
-147.739
-57.3899
675.759
-146.659
-62.8465
718.511
-144.572
-62.6709
763.848
-141.353
-62.9593
-141.857
-66.1643
-263.678
-199.669
-53.4603
-214.949
-217.25
-53.184
-173.975
-231.935
-46.6466
-128.571
-256.394
-47.4334
-69.7001
-295.285
-51.7779
5.25446
-317.369
-54.2886
88.6117
-329.084
-57.374
193.777
-330.65
-57.8595
315.872
-303.323
-56.3583
398.227
-229.118
-54.5259
452.126
-158.036
-53.549
493.851
-110.524
-54.9453
531.346
-84.2423
-57.4355
567.862
-70.4212
-59.2763
604.717
-63.5371
-63.4002
642.625
-57.7386
-61.338
681.868
-57.3023
-67.0088
721.683
-56.7572
-68.8863
763.911
-55.0951
-68.6901
-56.7011
-70.8075
-277.963
-154.537
-50.6562
-228.348
-175.286
-47.1076
-195.531
-197.504
-38.1467
-153.675
-56.3689
-37.9433
-57.6407
-56.0594
-58.0099
-88.209
-70.3643
-48.2872
-72.0638
-71.1252
-72.4709
-5.64123
-73.9199
-51.303
-76.0909
-74.3739
-76.5204
87.4291
-75.1855
-54.3521
-76.3035
-75.4316
-76.5033
214.354
-76.3175
-53.6848
-76.4463
-76.3328
-76.3159
367.903
-65.6022
-47.7407
-55.4761
-66.2272
-54.8052
447.939
-127.669
-45.1931
485.765
-65.0924
-42.3072
516.533
-27.4628
-42.3275
547.774
-9.96034
-45.5236
580.887
-0.950961
-49.0866
616.194
3.27961
-55.1523
653.258
7.71918
-55.4151
692.245
9.84948
-62.5865
731.901
10.395
-64.058
773.535
13.0274
-64.847
12.6958
-68.0982
-292.878
-104.675
-52.4495
-253.806
-127.939
-47.7021
-55.7054
-152.37
-38.9172
-57.2247
-55.6128
-57.9226
12.3331
-52.8277
-52.305
-10.7944
15.8529
-35.8846
-13.7377
47.9571
-17.6677
-17.8613
-17.5495
-18.0076
16.5372
24.7456
-12.7469
-14.6999
-17.7342
-17.7781
-17.6853
-17.8351
17.3792
1.60763
9.60279
-15.6732
-18.0881
-17.7689
-18.0497
-17.7955
17.4166
-22.2921
37.6948
-15.7728
-18.391
-18.05
-18.3871
-18.0696
-65.8733
15.1958
88.9205
-58.3943
-13.776
498.281
-18.0794
-44.2866
-114.46
-119.348
-114.457
-119.427
512.01
17.6738
-43.5172
530.889
51.7694
-42.9203
555.55
67.7267
-45.0805
585.543
73.2467
-48.9
619.872
73.1551
-56.0996
657.112
70.9705
-56.6476
696.913
71.5356
-65.7359
737.207
68.7559
-69.2052
779.488
70.4478
-69.9951
73.5376
-74.0673
-321.141
-48.2429
-53.1068
-292.356
-69.2307
-51.511
-68.5202
-88.5406
-48.7338
-72.3993
-69.0284
-73.1084
14.4033
-36.7694
-13.4152
45.9718
-16.8126
-16.4563
-16.8293
-16.4535
3.62117
1.61446
29.67
1.6321
-2.96739
521.506
65.1845
-53.1824
-124.841
-135.167
-125.461
-137.091
516.46
72.3533
-52.1146
521.981
89.7122
-48.6617
540.795
106.433
-50.2466
565.701
115.534
-54.309
597.121
120.082
-60.4143
633.401
118.109
-62.8938
673.247
118.947
-74.3923
714.09
114.454
-76.0664
757.808
114.748
-76.5816
120.954
-80.4451
-339.652
17.7
-55.7234
-316.721
4.3207
-54.0918
-73.4424
-7.28259
-51.7904
-76.1513
-74.0086
-76.5668
16.3499
25.347
-12.9961
-14.8907
-17.7445
-17.5186
-17.7043
-17.5745
3.75683
-3.34748
35.3103
4.495
-3.53137
603.358
142.532
-55.7325
-146.41
-153.887
-149.277
-156.985
594.913
142.659
-54.5447
586.635
144.957
-52.4894
589.195
154.404
-52.7716
601.938
161.79
-55.9933
622.239
166.648
-60.4351
650.116
166.005
-63.2971
684.083
168.266
-73.744
721.187
164.313
-75.7695
761.994
163.168
-78.0072
169.29
-82.781
-350.684
89.4497
-58.1945
-328.75
87.2545
-57.514
-75.2462
85.7566
-54.7688
-76.3723
-75.3976
-76.5719
17.531
2.02003
9.05505
-15.8014
-18.1071
-17.7894
-18.0709
-17.8139
4.06203
-7.86839
39.5775
8.94402
-3.79544
665.363
217.726
-54.4612
-162.646
-168.085
-165.686
-171.252
660.768
212.353
-54.389
651.696
209.934
-52.7536
645.234
211.247
-51.7393
646.923
214.777
-54.7977
655.28
218.25
-57.7157
672.13
218.21
-60.2217
698.095
220.775
-69.1028
730.745
217.793
-72.2402
768.832
216.618
-76.4319
222.759
-82.577
-354.97
173.727
-59.6712
-330.815
192.502
-58.5646
-76.2028
213.383
-55.1456
-76.077
-76.3708
-76.2218
18.0828
-21.8373
37.8743
-16.5722
-18.3114
-18.0491
-18.2726
-18.0562
3.99258
-11.8076
42.8207
12.7963
-3.76997
723.759
291.995
-54.6411
-174.242
-178.728
-177.563
-181.797
726.671
286.465
-54.6348
722.722
283.312
-54.1154
712.889
278.629
-52.9545
704.269
274.541
-53.7604
702.135
274.886
-58.3692
706.015
273.634
-60.5879
719.257
274.104
-65.7256
743.011
271.342
-68.8143
775.761
271.516
-74.759
277.182
-82.9016
-345.819
269.35
-59.857
-302.262
315.686
-59.1069
-64.2896
368.002
-53.9889
-54.1464
-65.7035
-54.7919
-64.7459
17.475
-56.989
88.5376
-16.6888
3.84715
4.08453
2.26755
31.0083
-6.03636
3.87934
-3.33945
4.46292
34.5316
-3.71038
3.76124
-7.80791
8.8451
38.8344
-3.48976
3.68395
-11.6938
12.6097
42.3335
-3.44062
-13.6556
-20.1661
15.1974
155.846
164.907
-13.3671
-20.6515
-13.7457
-20.6847
-25.3247
-20.6205
-25.3675
713.505
479.031
-49.8307
-169.736
-155.538
-173.475
-158.31
734.106
425.122
-54.5915
745.784
402.487
-55.0595
747.866
381.118
-53.5817
744.031
363.41
-52.6775
740.339
350.439
-56.3664
741.38
341.146
-62.0013
747.888
337.797
-66.3718
763.566
332.339
-68.7534
788.516
331.833
-74.7288
335.232
-83.4552
-297.5
343.365
-59.5999
-227.708
398.458
-58.9737
-123.268
448.123
-53.0198
-13.5121
496.349
-55.6448
-114.008
-118.961
-114.028
-119.216
65.2099
512.332
-59.7455
-123.538
-131.809
-124.453
-133.496
138.949
590.839
-59.0794
-142.49
-150.285
-144.873
-153.489
215.006
657.865
-54.772
-159.783
-166.367
-163.425
-170.287
299.953
720.005
-52.1366
-174.183
-180.043
-177.996
-183.538
465.308
715.995
-47.9328
-173.859
-161.269
-177.812
-162.863
611.548
626.089
-42.4661
684.485
533.299
-41.9346
723.572
498.152
-54.0671
742.405
475.762
-56.1124
752.521
453.706
-53.3743
760.586
433.085
-54.0555
767.323
415.467
-58.5848
774.201
408.181
-66.9048
785.429
400.981
-69.3218
803.598
399.552
-74.5424
397.932
-83.9066
-243.029
404.696
-59.5321
-156.986
452.52
-58.646
-62.0048
486.333
-49.691
22.002
511.214
-52.4338
72.4326
508.884
-57.9485
140.035
584.146
-58.0398
210.189
653.818
-54.7163
286.748
720.693
-52.2262
420.609
733.246
-50.3831
525.067
690.484
-41.2237
611.625
622.605
-47.0468
678.206
570.495
-57.7759
712.857
544.992
-59.9838
736.935
526.839
-54.3465
758.809
509.528
-50.6022
775.537
492.766
-52.6087
787.99
484.9
-63.4149
798.768
474.878
-65.5294
816.8
471.289
-73.9082
460.704
-86.1088
-201.887
456.559
-59.8402
-109.719
494.121
-59.8036
-25.7747
517.028
-48.3744
54.1207
530.756
-49.297
89.3089
516.282
-53.9535
143.089
577.644
-55.8469
207.765
646.179
-53.2726
280.956
716.265
-51.7085
398.54
742.962
-50.7451
495.66
725.128
-49.3688
565.594
685.395
-55.9847
630.768
638.257
-67.1822
682.732
603.489
-56.4823
719.073
587.42
-47.0989
744.832
578.565
-42.8002
767.551
569.069
-47.7324
789.607
562.986
-61.4717
810.547
545.959
-66.4796
841.999
541.472
-82.8071
526.397
-93.0675
-177.934
503.106
-60.2367
-83.1363
531.468
-61.7031
-8.74882
548.093
-50.3211
68.3653
555.723
-49.6913
105.527
536.653
-54.4237
152.462
581.792
-55.5166
209.18
641.045
-52.1793
275.256
706.729
-50.6853
376.523
744.181
-49.7294
474.126
743.029
-50.6453
545.148
716.751
-53.6407
601.937
686.988
-51.9158
658.446
660.303
-45.0352
700.872
642.342
-35.2156
728.058
635.615
-41.4041
758.707
631.625
-59.2294
793.092
629.541
-76.3947
829.657
610.217
-81.3422
870.184
610.651
-95.2604
586.684
-90.6727
-163.076
547.142
-60.3753
-69.0619
567.933
-62.962
0.293193
581.084
-52.8858
73.2697
585.948
-52.2837
114.789
562.693
-57.1471
159.867
595.956
-57.8147
212.9
643.336
-54.3332
271.715
698.955
-51.7251
358.655
740.013
-49.5828
450.608
752.666
-48.3294
526.661
739.737
-47.1953
589.392
721.588
-38.0153
643.75
702.938
-30.1817
685.23
686.75
-40.0798
722.955
681.497
-59.2021
765.522
682.194
-84.7132
802.39
685.166
-90.3044
832.488
669.203
-83.5877
858.775
667.493
-80.7742
611.909
-67.5295
-154.685
589.568
-62.1781
-62.0129
604.772
-66.6194
4.76598
616.299
-58.2409
73.043
620.394
-58.5937
119.421
594.991
-62.4111
164.682
617.169
-61.6147
216.244
652.162
-56.5571
272.661
697.37
-55.8461
346.496
736.367
-53.4742
428.806
759.614
-49.6082
506.849
760.452
-45.4946
578.563
747.036
-34.4873
637.129
730.271
-35.0804
682.094
725.281
-56.504
729.957
729.246
-85.1817
770.725
734.989
-93.1571
786.662
728.808
-75.5018
800.708
695.517
-58.4735
830.05
676.388
-47.6276
585.661
-33.2881
-146.921
632.276
-59.7505
-56.189
642.706
-64.1014
9.46349
653.329
-57.8849
70.6827
657.631
-58.5806
116.897
631.908
-64.5121
164.081
645.667
-64.1375
216.344
669.469
-58.7458
271.668
702.298
-57.7515
338.032
737.74
-58.7118
411.454
765.234
-54.9948
488.876
775.491
-48.7739
567.433
768.909
-43.1324
632.404
760.938
-52.9186
684.804
766.018
-79.2652
737.906
768.186
-90.4216
760.261
757.969
-76.1513
757.164
727.784
-42.0833
763.573
653.168
-19.1647
793.374
591.822
-6.3078
542.054
-6.78412
-145.862
675.827
-64.9535
-55.8417
681.944
-69.3663
11.5721
692.279
-64.6848
71.4666
697.372
-67.3736
117.955
672.245
-76.0737
166.458
680.254
-74.6036
218.835
696.049
-67.7229
272.573
716.725
-63.3016
334.946
745.063
-63.0995
404.746
772.005
-63.3206
481.383
786.874
-59.2139
560.354
790.033
-56.1779
628.986
795.548
-69.5414
686.46
804.239
-82.9003
729.528
786.832
-71.7116
728.25
757.799
-39.2572
681.14
682.324
-13.6543
677.773
580.721
5.8907
708.857
536.772
8.67352
536.987
-9.08078
-143.874
718.527
-64.5488
-55.4373
721.655
-70.9319
12.0493
731.848
-65.8146
68.7764
737.528
-70.6171
113.576
713.37
-77.4017
162.701
717.89
-76.3369
215.661
729.302
-71.0858
269.78
741.345
-66.8111
330.062
761.3
-65.8922
397.951
783.562
-65.7094
471.505
797.665
-61.0294
543.015
811.134
-61.0001
609.199
832.601
-75.6454
669.226
836.104
-77.5635
695.058
803.432
-52.5163
653.498
767.728
-17.1953
583.39
678.947
5.26052
592.396
587.787
-8.62335
619.175
539.91
-12.6883
544.555
-22.6843
-140.744
763.757
-64.665
-53.9566
763.706
-70.4491
14.4971
773.393
-66.3626
70.7168
779.661
-71.2454
114.295
757.255
-77.5619
161.87
759.216
-78.3035
214.743
767.769
-75.449
270.178
774.457
-72.8654
330.097
786.693
-71.9928
397.115
801.812
-70.6846
468.203
816.228
-69.2659
538.555
843.524
-78.4937
609.842
874.494
-89.7202
666.511
862.883
-76.9162
676.198
834.513
-45.0315
594.919
797.043
-7.7489
541.596
709.002
7.00871
545.404
614.233
-13.7984
557.2
553.902
-36.8721
554.35
-43.1891
-141.407
-67.6634
-55.8891
-72.3146
13.7893
-69.4862
74.0364
-75.1887
120.931
-81.3254
168.459
-82.9425
221.29
-81.848
276.201
-81.089
334.126
-80.6483
396.018
-80.0093
458.014
-82.4021
524.247
-89.6836
585.18
-86.0347
609.837
-64.1981
584.571
-32.9921
543.381
-8.66019
540.258
-10.0801
548.004
-23.0286
556.146
-44.1991
-68.6037
-253.334
-252.585
-35.8531
-203.511
-267.745
-37.7431
-159.14
-282.255
-36.1564
-110.203
-298.452
-37.5438
-52.6986
-330.792
-38.3303
15.2353
-349.463
-40.1303
89.2657
-359.544
-41.6584
176.426
-363.244
-43.0462
272.128
-352.802
-42.7216
345.91
-302.961
-41.9895
406.681
-247.121
-41.5395
457.826
-204.45
-41.2637
503.702
-180.357
-41.1228
547.148
-165.611
-40.8943
589.078
-157.684
-42.2757
631.534
-150.137
-40.8848
675.093
-149.345
-44.5501
718.041
-147.916
-44.9466
763.103
-145.319
-46.413
-145.675
-50.0149
-268.56
-202.642
-37.6864
-220.038
-218.982
-37.8539
-179.7
-232.996
-33.7144
-134.394
-262.75
-34.0117
-74.1686
-304.51
-37.1351
2.43288
-327.436
-39.0849
87.6695
-337.616
-41.1976
195.471
-338.871
-42.0525
318.954
-308.666
-41.516
401.466
-232.342
-40.2745
454.5
-161.726
-39.5311
495.081
-114.447
-39.9049
531.691
-87.1647
-40.7563
567.69
-72.5044
-41.3036
604.302
-65.2693
-43.8485
642.188
-59.6535
-42.6926
681.598
-59.7719
-46.2632
721.808
-60.1927
-47.7482
764.004
-59.6768
-49.0785
-61.591
-52.0903
-282.759
-158.205
-36.1575
-233.956
-178.113
-33.7966
-203.111
-201.416
-27.4463
-161.749
-57.336
-26.6568
-60.2383
-56.7141
-60.9287
-93.1575
-73.1551
-34.3225
-74.5387
-73.3987
-74.9142
-8.39155
-75.7128
-36.8221
-78.0995
-75.9183
-78.4124
87.5441
-76.7769
-38.6367
-77.6706
-76.9882
-77.9111
216.87
-77.7839
-38.9543
-77.8902
-77.9683
-77.8053
370.102
-66.7176
-36.8815
-55.9976
-67.0978
-55.0789
450.569
-130.717
-34.3233
488.496
-69.0355
-31.3425
518.46
-31.1753
-30.9549
548.618
-14.1285
-32.9989
580.797
-4.70424
-35.0708
615.241
-0.689554
-39.0229
651.787
2.74261
-38.8546
690.486
3.67278
-43.8188
730.22
3.77535
-45.1876
771.614
6.00142
-46.8475
5.72693
-51.0692
-298.235
-109.919
-37.8047
-262.839
-133.365
-34.5099
-57.4325
-159.721
-28.3654
-60.0216
-57.4202
-60.4409
9.49741
-55.0878
-54.4236
-8.3813
11.8187
-37.329
-9.65876
51.3943
-18.0749
-18.5371
-18.0481
-18.5749
12.9244
25.6282
-13.2541
-11.0748
-18.1757
-18.1235
-18.1044
-18.1912
13.844
1.94676
9.3556
-11.7937
-18.5131
-18.1932
-18.4646
-18.252
14.0598
-22.4015
38.511
-12.0534
-18.8404
-18.3785
-18.7546
-18.502
-66.8761
12.3159
89.2211
-59.8017
-9.60234
500.88
-22.1101
-37.7823
-114.754
-120.56
-114.917
-120.697
514.476
12.5028
-32.68
532.442
45.2442
-30.983
555.929
62.4814
-33.4123
584.611
69.234
-36.7523
617.139
69.3875
-42.2621
652.612
66.9716
-42.6279
691.109
66.0673
-48.1092
731.05
62.9755
-50.4012
773.246
63.2016
-51.7579
64.9619
-55.4728
-328.907
-53.6425
-38.5928
-302.668
-75.3141
-38.0856
-71.1792
-94.9559
-36.864
-73.9018
-72.0939
-74.0394
12.5997
-37.9068
-11.6525
49.039
-17.2486
-16.8914
-17.1766
-16.9237
3.14264
1.71408
30.154
1.27902
-2.15677
533.723
62.342
-44.6956
-126.15
-138.424
-126.124
-137.697
531.968
69.0724
-43.1932
535.319
83.3489
-39.0365
550.848
100.06
-38.3362
573.365
109.104
-40.6721
601.047
114.101
-44.23
633.914
112.819
-44.9682
671.405
112.97
-51.9223
711.289
108.515
-53.78
754.288
105.994
-55.2339
110.542
-59.0378
-348.233
13.9172
-40.1734
-326.887
0.504935
-39.2646
-75.6791
-10.5017
-37.4267
-78.1945
-76.4516
-78.4836
13.5022
26.234
-13.6769
-11.7596
-18.1343
-17.9402
-18.1053
-18.0538
2.91267
-3.05342
36.8633
4.25951
-2.89156
624.409
138.748
-42.7473
-151.716
-159.488
-152.032
-160.759
619.194
137.483
-42.2528
609.922
137.524
-41.2777
608.459
145.381
-41.0748
617.94
153.264
-42.5473
634.49
159.176
-44.8945
658.475
159.231
-45.5421
689.288
160.863
-51.2152
724.479
157.863
-53.1816
763.708
154.711
-55.7435
159.171
-60.2847
-358.864
87.3474
-41.7592
-336.967
84.9922
-41.2162
-76.6983
83.9957
-38.9342
-77.8502
-76.8263
-78.0293
13.9368
2.48062
8.68489
-11.893
-18.4975
-18.1941
-18.4662
-18.2353
2.83133
-7.64328
41.1946
8.65858
-2.61896
689.003
210.902
-39.9291
-168.409
-173.689
-170.553
-176.165
686.575
205.954
-40.2724
680.329
203.295
-40.3205
672.274
203.069
-39.4299
671.381
206.547
-41.5448
676.689
210.791
-43.5332
689.014
211.621
-44.5269
710.065
213.66
-49.0071
738.659
212.099
-51.5429
773.572
209.55
-54.8744
214.197
-59.9612
-362.339
173.336
-42.7789
-338.834
191.251
-41.4423
-77.8882
212.406
-37.8794
-78.0501
-78.1861
-78.3463
14.5078
-21.5111
37.2514
-12.0573
-18.8828
-18.3961
-18.7626
-18.4713
2.89682
-11.4805
44.3055
12.412
-2.64566
745.311
287.038
-39.6918
-180.648
-185
-182.749
-186.675
749.91
280.806
-41.4155
748.755
275.445
-42.2948
741.373
272.197
-42.271
731.224
267.703
-42.4528
726.498
267.942
-45.1762
727.445
268.099
-46.8065
735.703
268.295
-49.1011
754.33
266.511
-51.4176
782.927
265.02
-55.0294
269.723
-60.5451
-353.194
269.914
-42.6092
-310.79
316.223
-41.0062
-67.9764
368.717
-35.9825
-56.4308
-68.3898
-56.9261
-66.0289
15.1528
-60.2229
88.987
-11.2153
3.92378
1.66723
1.45888
30.0631
-3.16468
3.19205
-2.8393
3.96005
36.0354
-3.10782
3.02759
-7.2219
8.27493
40.9522
-2.95871
2.85996
-11.1374
12.0684
44.4781
-2.76686
-18.1283
-14.5052
12.1635
166.736
165.512
-12.0501
-22.9131
-16.357
-22.4632
-22.8936
-15.3369
-22.6946
734.328
472.969
-37.6543
-178.216
-163.303
-177.607
-161.878
753.828
418.919
-42.4054
766.802
396.994
-45.3072
771.337
377.156
-45.2396
768.465
359.495
-42.9103
763.716
346.53
-43.6065
762.832
336.626
-48.4291
765.695
333.36
-51.2817
776.726
328.561
-53.1911
797.577
326.085
-56.4445
328.906
-61.5743
-304.091
344.504
-42.5478
-234.986
400.151
-40.9433
-135.285
450.681
-34.4558
-26.7796
502.666
-38.4967
-114.874
-120.324
-115.065
-120.423
55.6618
525.827
-46.0717
-125.142
-135.891
-125.135
-136.289
132.774
617.821
-45.7962
-148.979
-157.895
-150.471
-159.771
208.845
688.222
-41.9747
-167.986
-174.356
-170.068
-176.242
291.878
746.056
-41.5395
-181.864
-186.927
-183.494
-187.964
473.158
734.277
-38.5385
-176.833
-161.953
-180.178
-164.312
627.957
632.516
-38.6697
699.503
529.101
-40.0185
740.041
493.044
-45.8858
762.506
473.826
-44.7405
772.789
451.782
-41.6586
779.414
431.704
-43.381
785.539
412.886
-47.3537
791.368
404.254
-53.7116
799.921
396.825
-56.1512
814.386
393.963
-58.7489
394.073
-63.0016
-248.163
405.851
-42.8456
-163.662
454.067
-41.6394
-73.4085
488.84
-34.0098
7.73052
515.907
-36.175
61.6714
523.191
-46.1139
131.536
611.438
-45.3184
204.221
684.481
-42.1171
282.033
748.027
-41.9374
420.459
753.148
-43.5085
527.757
702.667
-38.6768
618.489
622.574
-43.1927
689.122
566.61
-40.383
729.021
544.248
-46.7549
751.399
526.714
-46.7905
770.664
509.366
-46.4801
789.596
490.218
-46.9499
803.411
480.269
-54.1785
812.42
470.229
-55.8088
823.884
467.749
-58.7427
460.435
-63.9101
-205.028
457.401
-43.1868
-115.474
495.106
-42.9799
-33.5669
518.624
-35.2559
41.6695
533.388
-36.7591
76.1784
527.353
-43.7455
131.563
600.964
-44.6325
200.542
676.993
-41.8619
275.071
745.186
-41.8636
396.677
764.352
-45.2692
494.043
740.686
-46.2687
566.709
692.859
-41.6987
638.841
641.981
-51.2292
691.645
605.061
-50.3756
726.537
587.198
-47.7613
754.559
576.91
-42.4244
780.18
564.722
-43.8024
801.179
559.501
-52.4756
816.567
545.357
-53.9915
838.455
539.103
-61.2153
523.898
-67.7087
-180.577
503.637
-43.5076
-87.2929
531.961
-44.3309
-15.1704
548.676
-37.6758
59.1162
556.755
-39.5926
92.8992
544.523
-43.9056
139.189
600.018
-45.0338
199.36
668.044
-41.0228
269.715
736.391
-41.5496
374.85
767.337
-44.6347
473.76
761.316
-45.3612
545.438
730.872
-46.4241
604.388
695.32
-49.2668
660.704
662.834
-50.0671
706.393
642.152
-40.039
737.761
633.803
-40.2416
765.612
628.755
-49.065
795.463
628.447
-60.035
829.395
609.034
-62.9022
869.357
606.84
-70.7573
586.679
-73.0378
-165.487
547.365
-43.5388
-71.9547
568.155
-45.0591
-4.92219
580.891
-39.5412
66.3569
585.695
-42.0365
102.752
569.216
-45.6146
146.805
610.601
-46.5325
202.467
666.994
-43.2761
264.091
725.697
-42.1409
355.979
763.592
-42.7896
449.877
770.666
-42.4622
526.707
752.231
-44.6172
588.353
728.978
-43.4014
642.827
708.117
-39.1031
688.682
688.537
-42.3113
724.809
678.666
-51.1256
762.819
677.333
-66.8392
803.539
682.551
-74.2151
840.637
665.635
-72.7659
871.831
666.906
-74.5497
628.168
-66.14
-157.323
589.445
-45.0112
-64.3708
604.873
-47.5657
-0.299456
615.415
-43.1517
67.3406
618.546
-46.4753
109.306
598.246
-48.4342
153.058
628.562
-48.6394
206.548
672.53
-45.2835
264.731
721.435
-45.1642
342.319
758.479
-43.8418
428.361
776.529
-43.2645
507.249
770.52