/*--------------------------------*- C++ -*----------------------------------*\
  =========                 |
  \\      /  F ield         | OpenFOAM: The Open Source CFD Toolbox
   \\    /   O peration     | Website:  https://openfoam.org
    \\  /    A nd           | Version:  9
     \\/     M anipulation  |
\*---------------------------------------------------------------------------*/
FoamFile
{
    format      ascii;
    class       volScalarField;
    location    "0.0025";
    object      rho;
}
// * * * * * * * * * * * * * * * * * * * * * * * * * * * * * * * * * * * * * //

dimensions      [1 -3 0 0 0 0 0];

internalField   nonuniform List<scalar> 
9720
(
38.9522
44.2974
47.5696
50.2938
53.1693
55.2774
56.7792
54.8589
48.0141
41.2963
34.845
29.428
25.2674
22.0666
19.4909
17.3839
15.4509
13.7776
12.5028
10.4552
44.2754
50.1254
53.4777
55.8152
59.2602
62.6448
64.7864
60.2707
47.8974
36.469
29.0027
24.398
21.2858
18.9321
16.9819
15.3009
13.7525
12.3661
11.2709
9.55388
47.514
53.4107
56.5831
57.3709
60.8137
65.9189
69.4203
62.6664
42.6254
27.765
22.4489
20.2364
18.7925
17.5236
16.2539
14.9914
13.687
12.4338
11.3771
9.70824
50.3219
55.8942
57.4873
56.1906
55.2611
65.3214
75.5129
73.1761
44.9596
15.7003
15.5716
15.6732
15.573
15.1907
14.5437
13.7576
12.7568
11.7273
10.8152
9.24399
53.2122
59.4575
61.138
55.8769
12.6427
10.4363
11.8456
13.5213
14.5846
14.5193
14.08
13.2805
12.2233
11.1689
10.2707
8.71988
55.1897
62.6259
65.9686
65.7499
11.0189
11.3256
11.8135
12.6326
13.6403
13.8793
13.6822
13.0817
12.1177
11.0276
10.0664
8.44089
56.5209
64.3751
68.8214
74.9986
12.2033
12.1784
12.2624
12.5995
13.1661
13.4064
13.2936
12.8135
11.9265
10.802
9.74819
8.0472
54.5029
59.5114
61.3884
71.153
12.4362
11.7844
11.9163
12.173
12.6748
13.0959
13.0799
12.7975
12.071
10.9307
9.76619
7.81805
47.6114
47.1564
41.5054
42.2654
11.8314
11.2582
12.5155
12.8504
4.43134
6.15781
8.06894
9.50055
10.6153
11.5727
12.1864
12.1609
11.7818
10.94
9.85711
7.79623
40.9199
35.9269
27.2273
15.5801
10.6747
11.5449
12.4798
12.1045
6.64508
4.08061
4.67494
6.00869
7.5592
9.03069
10.2866
10.9734
10.9298
10.5074
9.64712
7.70959
34.5367
28.6449
22.1785
15.5517
12.0333
12.0596
12.5827
12.261
8.61938
4.91002
3.85376
4.05758
4.99358
6.43102
8.01106
9.27966
9.6861
9.55891
9.0246
7.37093
29.198
24.1546
20.0618
15.6257
13.5939
12.8396
12.883
12.5402
10.0247
6.46823
4.20176
4.0162
4.16695
4.88463
6.17063
7.50481
8.14632
8.09561
7.70296
6.63738
25.0955
21.1073
18.6576
15.5028
14.523
13.7606
13.3499
13.0211
11.1261
8.10069
5.33322
4.26402
4.1951
4.38853
4.95423
5.70663
6.12565
6.21281
6.23545
6.3269
21.9322
18.7895
17.4089
15.109
14.4367
13.9487
13.5237
13.3022
12.0375
9.58744
6.89952
5.16443
4.52436
4.2711
4.18964
4.31902
4.73309
5.41033
5.88663
6.67543
19.3824
16.8626
16.1516
14.4606
13.9907
13.745
13.4013
13.254
12.4821
10.7841
8.54427
6.59956
5.24575
4.25887
3.9765
4.04293
4.53845
5.3512
6.16772
8.24973
17.2949
15.1987
14.8965
13.671
13.199
13.1282
12.9134
12.9183
12.3922
11.3029
9.73008
7.97925
6.12994
4.48927
4.11082
4.22442
5.07039
6.71322
8.523
10.5542
15.3773
13.6633
13.5978
12.669
12.1518
12.1351
12.0165
12.1362
11.9249
11.1993
10.0112
8.51943
6.54115
4.96443
4.70012
5.14336
7.12783
9.12736
9.9883
9.90999
13.7172
12.2902
12.3545
11.6461
11.1046
11.0125
10.8751
10.9615
11.0257
10.675
9.8322
8.44288
6.58332
5.69273
5.56906
6.83257
9.19654
8.80605
7.56509
7.05371
12.4534
11.2083
11.3112
10.7471
10.2163
10.0344
9.80898
9.79013
9.88959
9.75652
9.21753
7.99482
6.55252
6.17321
6.40663
8.7015
10.1757
7.67821
6.06413
6.48067
10.4217
9.51103
9.66347
9.19844
8.68243
8.40421
8.08716
7.84387
7.81523
7.76495
7.4694
6.81489
6.52924
6.89874
8.4912
10.8063
10.122
7.1199
6.48857
6.75366
36.679
41.434
44.4051
46.8657
49.5475
51.3655
52.5544
50.3381
43.7579
37.4651
31.5558
26.6217
22.8607
19.996
17.709
15.875
14.17
12.705
11.6194
9.85139
41.4152
46.6011
49.6702
51.6042
54.9218
58.103
59.8437
55.1849
43.4489
32.8007
26.0163
21.9626
19.2425
17.1862
15.4764
14.0275
12.6721
11.4549
10.524
9.0449
44.3755
49.6531
52.5281
52.7105
56.2664
61.6114
64.561
57.704
39.0184
24.9295
20.0332
18.1651
16.9992
15.9635
14.8954
13.8273
12.6979
11.6026
10.6918
9.22745
46.8922
51.7813
53.0503
52.0929
50.8338
61.8094
71.2202
68.0698
41.9598
14.2252
13.8783
14.0821
14.104
13.8821
13.3644
12.7062
11.841
10.9493
10.1816
8.80023
49.491
54.9078
56.194
49.9012
11.5217
9.82605
10.8453
12.2144
13.3656
13.4122
13.1252
12.4881
11.5672
10.6332
9.84532
8.40981
51.1449
57.8139
61.1916
61.5663
10.3023
10.6576
10.9909
11.6133
12.4735
12.9181
12.8074
12.3589
11.5483
10.5996
9.74019
8.21574
52.2276
59.4123
64.0399
70.8202
11.5034
11.5112
11.5398
11.7181
12.1145
12.4689
12.434
12.1303
11.454
10.5303
9.59154
7.94262
50.0712
54.7052
56.9606
67.0727
11.9747
11.1599
11.2376
11.3898
11.7162
12.162
12.2356
12.0864
11.5965
10.7142
9.68432
7.82079
43.452
42.8356
38.1401
40.5389
11.1415
10.3313
11.6513
12.2085
4.02578
5.57608
7.42534
8.78671
9.78287
10.6434
11.334
11.4591
11.253
10.6682
9.77532
7.83669
37.1049
32.2294
24.3367
14.0077
9.66317
10.5646
11.5595
11.3394
6.01651
3.56634
4.15369
5.42143
6.86432
8.21413
9.46154
10.3155
10.4085
10.1757
9.52313
7.7635
31.2148
25.5254
19.5253
13.5517
10.6623
10.8904
11.6015
11.3991
7.87784
4.3526
3.36253
3.54316
4.41458
5.79657
7.32863
8.64566
9.24301
9.21854
8.86519
7.40959
26.3375
21.5675
17.7419
13.7498
12.0288
11.5456
11.7911
11.5587
9.19595
5.82102
3.66182
3.52684
3.71798
4.43197
5.64649
6.91963
7.77182
7.85408
7.60919
6.5924
22.6324
18.9299
16.6558
13.8013
13.1859
12.4331
12.1727
11.9075
10.1859
7.34946
4.71644
3.82155
3.80313
4.03764
4.58827
5.32434
5.93384
6.05739
5.9636
5.97198
19.813
16.9393
15.6885
13.6176
13.238
12.8918
12.5061
12.3256
11.028
8.7186
6.22569
4.69971
4.16837
3.97422
3.90219
3.99321
4.32523
4.88759
5.41164
6.13171
17.5614
15.28
14.6751
13.1496
12.9493
12.7791
12.4671
12.3518
11.6226
9.92052
7.82653
6.06268
4.89228
4.00453
3.64914
3.64686
4.04269
4.77364
5.5197
7.36244
15.7559
13.8703
13.6475
12.5311
12.3181
12.3197
12.1617
12.1727
11.6414
10.6441
9.10118
7.40925
5.76609
4.21548
3.70478
3.73554
4.36394
5.75721
7.42655
9.79823
14.0703
12.5408
12.5445
11.6957
11.417
11.4876
11.4659
11.6299
11.3816
10.6484
9.56691
8.16452
6.36213
4.58857
4.21239
4.44505
6.03721
8.21256
9.63901
10.2501
12.6158
11.3404
11.4693
10.8247
10.5016
10.5225
10.5265
10.702
10.744
10.3502
9.49483
8.18874
6.41227
5.17363
5.00612
5.90971
8.29185
9.08672
8.51088
7.78469
11.5394
10.4224
10.5769
10.0728
9.72836
9.65611
9.58464
9.65657
9.80111
9.63823
9.06849
7.90459
6.27274
5.70628
5.77988
7.65476
9.82216
8.57074
6.61855
6.33002
9.78538
8.96281
9.1398
8.71783
8.32068
8.13567
7.9298
7.79825
7.83172
7.82233
7.52113
6.78755
6.20887
6.38674
7.6514
10.0825
10.3963
7.73549
6.30148
6.51344
35.4426
40.031
42.8885
45.2467
47.8733
49.5264
50.5054
48.0874
41.5406
35.4042
29.7894
25.153
21.6254
18.9428
16.7826
15.0705
13.4634
12.0673
11.0288
9.35082
40.01
45.0135
47.8985
49.5317
52.8002
55.8896
57.4175
52.5853
41.1051
30.8151
24.4609
20.8173
18.3539
16.456
14.8406
13.4845
12.2079
11.0386
10.1341
8.69909
42.8347
47.8606
50.3784
50.0576
53.686
59.1893
61.8881
54.7512
36.7602
23.2756
18.7429
17.136
16.1848
15.3084
14.3514
13.3886
12.3342
11.2761
10.385
8.93956
45.1448
49.4331
49.9634
48.3788
47.3092
59.7407
68.755
64.4548
38.7539
13.1272
13.2026
13.4558
13.4951
13.3135
12.8442
12.247
11.4558
10.608
9.88169
8.56358
47.5586
52.2164
52.8242
45.6391
10.041
9.20447
10.1109
11.4256
12.7083
13.0166
12.8091
12.2997
11.4558
10.5093
9.71048
8.28581
49.0715
55.1487
58.0961
58.3585
9.84132
9.95086
10.2067
10.8318
11.7524
12.5108
12.4984
12.195
11.4798
10.5409
9.66843
8.1545
50.0683
56.8217
61.1766
67.7135
10.8444
10.7113
10.7299
10.9003
11.3272
11.8949
12.0153
11.8514
11.3337
10.4886
9.56424
7.92099
47.876
52.389
54.648
64.3711
11.3429
10.3285
10.411
10.5895
10.9147
11.4781
11.7741
11.7062
11.3823
10.661
9.68587
7.86305
41.393
40.9284
36.5796
38.333
10.0934
9.56857
10.7076
11.3298
3.43908
5.01799
6.76236
8.06776
9.03773
9.92675
10.7399
11.0764
10.9641
10.5183
9.74128
7.898
35.2191
30.523
22.9381
12.7727
8.84635
9.78821
10.7066
10.4016
5.15148
3.06008
3.67118
4.91066
6.28748
7.60053
8.86561
9.86798
10.1059
9.96113
9.4496
7.83205
29.573
24.0899
18.2737
12.605
9.72233
10.025
10.7331
10.4854
6.95297
3.75209
2.94755
3.13186
3.96347
5.29201
6.77969
8.14937
8.93524
9.01565
8.77713
7.48768
24.9408
20.4511
16.6746
12.8735
11.027
10.6624
10.8933
10.6527
8.26213
5.09575
3.186
3.09098
3.28585
3.97591
5.13274
6.44637
7.499
7.75793
7.59772
6.64703
21.4345
18.0324
15.7832
13.0592
12.3388
11.5667
11.2858
10.9706
9.22137
6.52855
4.1221
3.34483
3.3633
3.62803
4.22232
5.05667
5.85861
6.0653
5.8838
5.68752
18.7764
16.1883
14.9726
12.9522
12.7528
12.3416
11.7892
11.5085
10.0983
7.86018
5.53435
4.1498
3.70893
3.65255
3.69344
3.85692
4.13622
4.52128
4.95354
5.59206
16.6408
14.6223
14.0807
12.5802
12.5721
12.3456
11.898
11.7373
10.8832
9.11819
7.05728
5.397
4.4142
3.77506
3.42048
3.34502
3.62375
4.25611
4.88961
6.33565
14.9513
13.3049
13.1684
12.0495
12.1034
12.0689
11.7478
11.6601
11.1257
10.0554
8.40971
6.73426
5.32517
4.02443
3.37995
3.31889
3.71975
4.76774
6.14214
8.69519
13.3615
12.0582
12.1493
11.2997
11.2945
11.3787
11.2516
11.3193
10.9865
10.2209
9.1339
7.75542
6.14616
4.34271
3.71417
3.77813
4.8218
6.99858
9.04986
10.7304
11.9772
10.9105
11.1174
10.4798
10.3704
10.4462
10.4322
10.585
10.5208
10.0488
9.17568
7.96643
6.2931
4.71422
4.41652
4.90013
7.07605
9.27423
10.0366
9.45476
10.9476
10.0212
10.2469
9.76941
9.5817
9.57241
9.5357
9.62679
9.7247
9.50336
8.90958
7.7792
6.08928
5.14831
5.07897
6.34964
9.20804
10.0653
8.53536
6.84392
9.28313
8.60697
8.82879
8.46974
8.17425
8.05775
7.90839
7.82523
7.86575
7.84991
7.54356
6.75255
5.85506
5.78649
6.58583
8.98236
10.8683
9.34502
6.75924
6.13867
34.4388
38.981
41.7866
44.1046
46.6342
48.1778
49.108
46.5857
39.999
33.9215
28.4516
23.991
20.6354
18.1112
16.0671
14.4381
12.9035
11.5341
10.4889
8.84426
38.9711
43.9198
46.6591
48.0224
51.2006
54.2868
55.826
50.9357
39.5215
29.3879
23.2841
19.8583
17.5767
15.835
14.3399
13.0681
11.8492
10.6979
9.76811
8.31462
41.762
46.6727
49.0415
48.2171
51.7519
57.4148
60.1965
53.026
35.0785
21.8789
17.6687
16.2566
15.4726
14.7347
13.9034
13.0504
12.0549
11.0063
10.0859
8.59688
43.9171
47.8622
48.09
45.3642
44.3097
57.8869
66.6643
62.1698
36.3188
12.0541
12.2871
12.8032
12.9633
12.8391
12.4529
11.9339
11.1902
10.3543
9.61444
8.27962
46.1686
50.4717
50.8301
43.4879
9.42258
8.67143
9.43282
10.6749
11.982
12.6626
12.5503
12.1607
11.3979
10.4573
9.6075
8.10508
47.6363
53.4359
56.262
56.3382
9.27579
9.55689
9.75525
10.3282
11.2097
12.1175
12.2223
12.0128
11.422
10.5251
9.61035
8.03176
48.5828
55.0369
59.196
65.2821
10.1546
10.2622
10.2835
10.402
10.7707
11.3637
11.6269
11.5243
11.128
10.3681
9.46738
7.82412
46.3518
50.6323
52.7376
61.849
10.4212
9.77095
9.88206
10.0435
10.3072
10.8345
11.2963
11.2695
11.041
10.4417
9.55512
7.80507
39.9764
39.5311
35.2403
37.0762
9.82119
9.15022
10.2153
10.584
2.97756
4.41053
6.11161
7.3925
8.3194
9.1861
10.0657
10.5582
10.5247
10.1882
9.52585
7.8428
33.9611
29.4601
22.0296
12.2214
8.59695
9.4803
10.2976
9.85374
4.74948
2.68405
3.21652
4.34382
5.6201
6.89433
8.14399
9.21823
9.62781
9.54666
9.16689
7.74804
28.4847
23.2581
17.5706
12.1371
9.30559
9.68074
10.3156
9.95353
6.44011
3.34341
2.60419
2.76221
3.48235
4.71107
6.13625
7.50245
8.40239
8.60901
8.45981
7.39615
24.0011
19.7583
16.0406
12.4134
10.4493
10.2494
10.4186
10.1065
7.64458
4.56892
2.81992
2.71049
2.89007
3.54611
4.65129
5.91042
7.01745
7.46703
7.38917
6.61623
20.6187
17.4397
15.2238
12.5863
11.6829
11.0819
10.7443
10.3682
8.52633
5.87184
3.62425
2.93291
2.97359
3.25948
3.8378
4.68397
5.59158
5.95412
5.81162
5.47172
18.0706
15.684
14.4892
12.5019
12.3416
11.921
11.2468
10.873
9.37817
7.1396
4.91732
3.67673
3.30797
3.29494
3.42359
3.69879
4.02876
4.28717
4.58296
5.19079
16.0106
14.1884
13.6722
12.1674
12.2423
12.0107
11.4554
11.2115
10.2216
8.3765
6.3703
4.8414
3.95604
3.47132
3.21814
3.13267
3.31289
3.88135
4.45389
5.59908
14.3754
12.9215
12.834
11.6905
11.8768
11.8068
11.3576
11.1584
10.5501
9.38109
7.72379
6.12701
4.85132
3.78494
3.15127
3.03391
3.31731
4.07108
5.04626
7.26497
12.8349
11.7123
11.8577
10.9893
11.1403
11.2279
10.9728
10.8996
10.4772
9.66357
8.5483
7.20432
5.75225
4.12445
3.36702
3.35247
3.93788
5.50118
7.42306
9.75874
11.464
10.5734
10.8292
10.191
10.2308
10.3386
10.2385
10.2789
10.0932
9.55034
8.67983
7.57866
6.06504
4.39379
3.98304
4.16111
5.57307
7.98153
9.72134
9.87133
10.4209
9.65619
9.93221
9.47542
9.40279
9.43529
9.36219
9.39968
9.40513
9.11858
8.50385
7.48326
5.91433
4.71503
4.58637
5.2119
7.5962
9.79127
9.53865
7.28367
8.78529
8.22387
8.47568
8.16698
7.94457
7.8793
7.74379
7.68284
7.70883
7.65945
7.36789
6.65286
5.56531
5.31919
5.78224
7.5353
9.97498
9.86246
7.21886
5.83955
34.0319
38.5734
41.3455
43.5695
45.9906
47.4587
48.3954
45.8941
39.2937
33.2084
27.805
23.4426
20.178
17.7305
15.7405
14.1307
12.6287
11.2699
10.2165
8.60288
38.523
43.3946
46.041
47.254
50.3846
53.4271
54.9926
50.2186
38.7728
28.6355
22.6164
19.3187
17.1507
15.5059
14.09
12.8515
11.6632
10.5228
9.57567
8.12729
41.24
45.9807
48.2009
47.2709
50.8406
56.5183
59.3366
52.366
34.3337
21.1143
16.9697
15.6598
15.01
14.3885
13.6654
12.8727
11.9147
10.8782
9.9343
8.43042
43.382
47.0198
47.0071
43.7903
43.2472
56.7929
65.5094
61.3503
35.5839
11.5292
11.734
12.2786
12.5897
12.5248
12.2286
11.7738
11.0848
10.2687
9.50904
8.15898
45.5927
49.6981
49.899
42.0314
9.4306
8.50085
9.07421
10.2004
11.504
12.4031
12.3754
12.0866
11.3983
10.4593
9.57458
8.04148
47.0285
52.7215
55.5659
55.7478
9.11431
9.42799
9.61348
10.1735
11.0338
11.9833
12.1611
11.9854
11.4557
10.5777
9.63443
8.01916
47.9314
54.2862
58.4526
64.388
10.0335
10.1592
10.1797
10.2939
10.6475
11.2732
11.5525
11.4607
11.1013
10.3697
9.4703
7.83459
45.6334
49.7922
51.8012
60.5007
10.4054
9.67953
9.77341
9.91534
10.1522
10.637
11.1567
11.1482
10.9485
10.3817
9.5234
7.81649
39.2702
38.7088
34.3124
35.5982
9.30612
8.98357
9.94582
10.3742
2.92231
4.2918
5.97085
7.22361
8.11174
8.94457
9.84309
10.3872
10.3802
10.0938
9.47188
7.86285
33.3239
28.8069
21.4014
11.7675
8.4668
9.33049
10.1118
9.68903
4.65096
2.56491
3.07021
4.17519
5.42579
6.67196
7.89761
8.95737
9.46246
9.41608
9.09011
7.77444
27.9724
22.8143
17.2108
11.9431
9.10904
9.54026
10.1359
9.77471
6.27622
3.17881
2.47573
2.64216
3.33523
4.51672
5.8871
7.22054
8.18155
8.46763
8.35533
7.41403
23.604
19.4635
15.7858
12.362
10.2276
10.1108
10.2479
9.91788
7.42568
4.34859
2.67969
2.57146
2.73072
3.33491
4.38659
5.62791
6.768
7.32381
7.28985
6.65083
20.305
17.2332
15.0345
12.5193
11.468
10.9673
10.5839
10.1652
8.26894
5.6125
3.41609
2.74124
2.76295
3.02175
3.59348
4.45098
5.39757
5.88306
5.79996
5.50022
17.8107
15.5336
14.3525
12.4277
12.2421
11.8679
11.1464
10.6604
9.09544
6.85186
4.62594
3.37657
3.03599
3.05327
3.24285
3.59909
3.98317
4.24944
4.50569
5.10644
15.7774
14.0746
13.5846
12.1036
12.189
12.0072
11.3929
11.0735
9.96708
8.05821
6.01203
4.46411
3.6386
3.26383
3.14254
3.07388
3.21754
3.72569
4.28115
5.32937
14.136
12.8039
12.7621
11.635
11.8771
11.8229
11.3077
11.0345
10.3626
9.06035
7.3517
5.74908
4.54216
3.6458
3.08277
2.93924
3.16064
3.8161
4.66322
6.69578
12.608
11.5968
11.7944
10.9518
11.1856
11.288
10.9581
10.8032
10.3172
9.462
8.26781
6.89156
5.50261
4.03341
3.24085
3.1767
3.62713
4.96382
6.7146
9.11211
11.2348
10.4487
10.7552
10.1494
10.2636
10.404
10.2383
10.2135
9.97787
9.38361
8.48424
7.37375
5.92863
4.29048
3.77357
3.85911
5.0096
7.28039
9.24016
9.67862
10.1754
9.50104
9.81802
9.39956
9.39516
9.46253
9.35248
9.35575
9.32125
9.00503
8.34642
7.32126
5.82835
4.56019
4.34531
4.75982
6.84316
9.31796
9.55913
7.24847
8.56291
8.06137
8.33575
8.06504
7.89899
7.86922
7.73759
7.67934
7.69628
7.64165
7.33213
6.62125
5.51273
5.15487
5.43007
6.88318
9.30295
9.72896
7.22381
5.62198
34.0319
38.5637
41.3247
43.4789
45.8619
47.3482
48.3217
45.8539
39.2957
33.2222
27.8123
23.4395
20.168
17.7169
15.7265
14.1192
12.6189
11.2628
10.2116
8.59975
38.5262
43.3924
46.063
47.1175
50.1664
53.2515
54.8785
50.1705
38.8193
28.6937
22.6412
19.3122
17.1299
15.4799
14.0631
12.8263
11.6416
10.5058
9.56255
8.11786
41.2466
45.9659
48.2362
47.1114
50.5735
56.3236
59.1961
52.3094
34.4142
21.2408
17.0352
15.66
14.9727
14.3415
13.6187
12.8295
11.8781
10.8478
9.90951
8.41266
43.4535
47.1538
47.2
43.5327
43.2847
56.438
65.1168
61.082
35.4974
11.6239
11.8292
12.3408
12.5699
12.4896
12.179
11.7179
11.0329
10.2262
9.47561
8.13594
45.7034
49.8588
50.0498
41.0725
9.02623
8.50313
9.09496
10.2168
11.4985
12.3572
12.3213
12.026
11.3371
10.4036
9.52753
8.00871
47.1149
52.8426
55.6849
55.7475
9.05715
9.42742
9.62672
10.1972
11.0637
11.9981
12.1515
11.9704
11.4337
10.5472
9.60038
7.99014
47.9645
54.3274
58.4897
64.3144
9.9145
10.1862
10.2211
10.3458
10.7087
11.3396
11.5814
11.4818
11.1062
10.3614
9.45674
7.82231
45.61
49.75
51.7493
60.2944
10.3992
9.70023
9.8206
9.9767
10.2208
10.7144
11.2071
11.1847
10.9648
10.3818
9.51404
7.80518
39.2359
38.6804
34.3309
35.7566
8.90168
8.99245
9.88446
10.3585
2.84321
4.37071
6.0585
7.30038
8.18276
9.01695
9.92022
10.4324
10.4143
10.1089
9.47866
7.85881
33.28
28.7482
21.3718
11.713
8.42726
9.37532
10.1484
9.68239
4.56117
2.56657
3.10292
4.22598
5.47499
6.71983
7.95161
9.01325
9.50356
9.45084
9.11229
7.78046
27.9359
22.7735
17.2152
11.9499
9.09743
9.56887
10.1718
9.76789
6.20209
3.16208
2.47977
2.65212
3.34809
4.53323
5.9141
7.26429
8.23244
8.51057
8.39326
7.42968
23.5848
19.4551
15.8166
12.4469
10.2649
10.1404
10.2786
9.90923
7.36954
4.31647
2.67468
2.57186
2.73227
3.3407
4.40044
5.65859
6.81617
7.36738
7.33096
6.67775
20.3041
17.2545
15.0851
12.6272
11.5571
11.0223
10.6185
10.1524
8.2194
5.56851
3.39587
2.74074
2.76531
3.02809
3.60509
4.4748
5.43553
5.92013
5.83708
5.53463
17.8241
15.5737
14.4138
12.529
12.3567
11.9491
11.2053
10.65
9.0464
6.80304
4.59826
3.37378
3.0412
3.0597
3.25224
3.61704
4.00784
4.27712
4.53823
5.14037
15.7986
14.1222
13.65
12.1923
12.2974
12.086
11.4463
11.0881
9.92679
8.0148
5.98689
4.46112
3.64442
3.26915
3.15313
3.08665
3.23391
3.74854
4.30971
5.36489
14.1589
12.8508
12.8252
11.7097
11.9707
11.8959
11.3558
11.0542
10.3513
9.02672
7.32769
5.73924
4.5401
3.64926
3.09394
2.94979
3.17423
3.83457
4.68743
6.73264
12.631
11.6389
11.8494
11.0097
11.26
11.3457
10.9964
10.8281
10.3134
9.44317
8.24263
6.87274
5.49571
4.0385
3.24768
3.18309
3.63613
4.97587
6.7305
9.13965
11.256
10.4844
10.8012
10.1916
10.3174
10.4462
10.2645
10.2409
9.9865
9.37128
8.46596
7.35994
5.92561
4.29317
3.77257
3.85917
5.01145
7.28681
9.25549
9.69688
10.1938
9.53007
9.85445
9.43084
9.43518
9.49351
9.36976
9.3804
9.33767
9.0055
8.33344
7.30957
5.82544
4.55355
4.3378
4.75395
6.84306
9.32666
9.58585
7.25945
8.5766
8.08163
8.35957
8.08546
7.92432
7.89041
7.74853
7.69757
7.71771
7.65532
7.33606
6.61779
5.50467
5.14341
5.41746
6.87202
9.30073
9.7429
7.24365
5.62476
34.4425
38.9764
41.7713
43.9514
46.3909
47.9516
48.954
46.4913
39.941
33.8836
28.4259
23.9693
20.6129
18.0882
16.047
14.4241
12.8943
11.5297
10.4875
8.84442
38.97
43.9015
46.6737
47.806
50.8509
53.9617
55.6136
50.8271
39.4468
29.3343
23.231
19.807
17.5253
15.7843
14.2928
13.0269
11.8153
10.6724
9.74896
8.30121
41.7561
46.5956
48.9982
47.971
51.3828
57.0845
59.9727
52.9317
34.9445
21.7806
17.5553
16.1553
15.3872
14.6644
13.844
12.9972
12.0065
10.9634
10.051
8.57045
44.0478
48.0118
48.2094
44.4745
43.8948
56.9327
65.776
61.5825
35.6959
11.9567
12.1882
12.702
12.8624
12.7484
12.3737
11.8625
11.128
10.3031
9.57281
8.24777
46.3838
50.7451
51.0341
41.6137
9.18868
8.64119
9.36586
10.5938
11.9064
12.5767
12.4627
12.0741
11.3129
10.3778
9.53502
8.04998
47.801
53.6464
56.485
56.2484
9.09581
9.54325
9.74821
10.3288
11.2123
12.108
12.199
11.9848
11.3848
10.4733
9.55402
7.98151
48.6274
55.0653
59.2163
64.8954
10.1153
10.3337
10.3442
10.4478
10.8059
11.3857
11.6266
11.5211
11.1146
10.3499
9.45153
7.81301
46.2828
50.4426
52.4007
60.8198
10.5145
9.88557
9.96358
10.1029
10.3615
10.8895
11.311
11.2724
11.0268
10.4149
9.52739
7.78745
39.8593
39.2553
34.784
35.8417
9.1607
9.0436
10.0317
10.4144
2.87924
4.57427
6.26583
7.50753
8.41099
9.27117
10.1515
10.5895
10.5413
10.1865
9.52143
7.83204
33.8658
29.2845
21.7764
12.0614
8.65678
9.48868
10.2503
9.76183
4.53715
2.67241
3.26746
4.42949
5.70525
6.97389
8.2329
9.30044
9.67006
9.58065
9.18498
7.75122
28.4463
23.2309
17.5649
12.2225
9.36116
9.72409
10.2745
9.87227
6.25013
3.27471
2.59656
2.77442
3.51959
4.76418
6.20766
7.58735
8.47495
8.66097
8.50547
7.41438
24.0106
19.8157
16.1522
12.6347
10.5596
10.3122
10.3947
10.0352
7.49881
4.46012
2.78463
2.71017
2.90552
3.58974
4.71328
5.98728
7.0965
7.52578
7.44469
6.65474
20.6596
17.5335
15.375
12.7981
11.8602
11.1833
10.757
10.3071
8.40765
5.75286
3.55697
2.92139
2.98186
3.29438
3.89245
4.7493
5.65458
6.00499
5.86407
5.52923
18.1289
15.7892
14.6454
12.6925
12.5249
12.0568
11.3239
10.8373
9.27425
7.02681
4.83328
3.64879
3.31752
3.31955
3.45831
3.73695
4.06224
4.32318
4.63161
5.25023
16.0742
14.2903
13.817
12.3283
12.4112
12.142
11.5563
11.2515
10.151
8.27912
6.28932
4.80576
3.95425
3.48412
3.23064
3.1436
3.32868
3.91006
4.49584
5.66942
14.4357
13.0133
12.9611
11.8201
12.0209
11.9279
11.4535
11.2125
10.5475
9.31688
7.65313
6.08065
4.83079
3.78558
3.15936
3.03964
3.32886
4.09604
5.09015
7.3522
12.8895
11.7903
11.9636
11.0863
11.2568
11.3264
11.0542
10.9656
10.4923
9.6424
8.50047
7.15877
5.72815
4.12071
3.36382
3.34923
3.941
5.51648
7.45914
9.82782
11.5111
10.6375
10.9144
10.2605
10.3181
10.4118
10.2975
10.351
10.1271
9.54243
8.65394
7.54931
6.04631
4.37792
3.96278
4.14017
5.55651
7.98588
9.76173
9.90663
10.4605
9.70844
10.0001
9.52833
9.4695
9.48906
9.40331
9.46406
9.4493
9.13314
8.48867
7.45884
5.89509
4.68522
4.55463
5.17188
7.55975
9.81009
9.63022
7.31002
8.81475
8.26093
8.5221
8.20327
7.98862
7.91783
7.76884
7.72805
7.75684
7.69064
7.37915
6.64483
5.5444
5.289
5.74423
7.48453
9.95545
9.92772
7.29157
5.84932
35.4592
40.0326
42.8617
45.1286
47.6866
49.3437
50.3932
47.9872
41.4142
35.2871
29.7039
25.1007
21.5945
18.9229
16.7697
15.0637
13.4634
12.073
11.039
9.36468
40.0482
45.03
47.8987
49.3252
52.5097
55.6294
57.2921
52.508
40.9226
30.6238
24.3254
20.7414
18.3133
16.4322
14.8227
13.4684
12.1938
11.0289
10.1304
8.70156
42.8963
47.874
50.3884
49.809
53.3721
58.9259
61.7969
54.7493
36.4754
22.9331
18.4834
16.9989
16.125
15.2893
14.35
13.386
12.3245
11.2639
10.376
8.93686
45.2512
49.5909
50.1289
46.5394
45.7293
58.4361
67.4587
63.2039
37.065
12.8041
12.9086
13.2555
13.3971
13.2612
12.8404
12.2523
11.454
10.6025
9.87715
8.56078
47.7209
52.4507
53.0352
43.5813
9.54192
9.08008
9.95612
11.2847
12.6163
12.986
12.7898
12.2909
11.4442
10.4902
9.68716
8.26393
49.2115
55.3235
58.2876
57.5954
9.24055
9.88372
10.1511
10.7937
11.7259
12.5022
12.4933
12.1971
11.4782
10.5273
9.6499
8.13588
50.0822
56.7616
61.0308
66.446
10.2524
10.654
10.6877
10.86
11.2885
11.8575
11.9771
11.8174
11.3056
10.4731
9.56599
7.93486
47.7655
52.0849
54.1165
62.443
10.5925
10.2336
10.3433
10.5304
10.859
11.4322
11.7336
11.667
11.3495
10.639
9.68154
7.87897
41.2782
40.6572
36.1813
37.2897
9.43113
9.18921
10.2173
10.6229
3.17791
4.8959
6.64704
7.97068
8.9611
9.86874
10.7071
11.0557
10.9482
10.5214
9.76116
7.92616
35.1601
30.4289
22.7986
12.6998
8.95836
9.85834
10.7344
10.4204
5.13614
3.00495
3.59601
4.82665
6.21016
7.54516
8.83964
9.87071
10.1304
9.99033
9.48259
7.86456
29.5802
24.1371
18.3427
12.7724
9.85238
10.1049
10.7624
10.4831
6.90944
3.69462
2.90257
3.08558
3.91454
5.25718
6.77076
8.17315
8.98844
9.07432
8.8323
7.52068
24.9936
20.5652
16.8262
13.0762
11.169
10.7475
10.9252
10.6412
8.19713
5.022
3.13715
3.04825
3.26049
3.97451
5.15534
6.49401
7.57119
7.82603
7.65934
6.68551
21.5077
18.1635
15.9502
13.2353
12.4892
11.6723
11.3295
10.9579
9.15249
6.443
4.05848
3.31255
3.34487
3.64161
4.26335
5.12259
5.94141
6.13133
5.94418
5.74505
18.8532
16.3115
15.1281
13.11
12.8866
12.4537
11.865
11.506
10.032
7.77139
5.4575
4.11139
3.70455
3.66691
3.73041
3.91254
4.19793
4.57319
5.00658
5.6544
16.712
14.7279
14.2123
12.7107
12.6979
12.4498
11.9886
11.7687
10.8312
9.03538
6.98247
5.35151
4.40296
3.78989
3.44253
3.36718
3.65092
4.29139
4.93094
6.41564
15.0132
13.3928
13.2765
12.1511
12.2122
12.158
11.8312
11.696
11.1207
10.0037
8.35293
6.69268
5.3063
4.02669
3.39496
3.33265
3.73425
4.78577
6.18016
8.78452
13.4138
12.1297
12.2365
11.3774
11.3836
11.4491
11.3221
11.3611
10.9926
10.2009
9.09918
7.72187
6.12399
4.33287
3.71376
3.77396
4.81477
6.99534
9.0753
10.7682
12.0221
10.97
11.1897
10.5419
10.4432
10.5035
10.4886
10.6374
10.542
10.0424
9.1528
7.94018
6.26671
4.69212
4.39106
4.86642
7.04818
9.2831
10.0857
9.44074
10.9866
10.0724
10.3088
9.82298
9.64504
9.62464
9.58109
9.67928
9.76309
9.51173
8.89564
7.75741
6.06166
5.1147
5.04017
6.29631
9.18016
10.1372
8.65646
6.84072
9.31506
8.64742
8.8755
8.51107
8.22311
8.10406
7.93992
7.8698
7.90921
7.86843
7.54725
6.74121
5.82802
5.74949
6.54041
8.93437
10.8911
9.47755
6.84151
6.14125
36.6931
41.43
44.3869
46.8403
49.5313
51.3636
52.5547
50.2799
43.6572
37.3579
31.4722
26.5664
22.8264
19.975
17.6977
15.8714
14.1737
12.7154
11.634
9.86818
41.4426
46.6004
49.639
51.5561
54.9369
58.1424
59.8921
55.1418
43.3346
32.6647
25.9278
21.9275
19.2384
17.1938
15.4868
14.0375
12.6827
11.4678
10.5394
9.06158
44.4102
49.6654
52.5025
52.6692
56.36
61.7479
64.6814
57.6762
38.9015
24.7789
19.9351
18.1384
17.0131
15.994
14.9268
13.8515
12.7164
11.6197
10.7108
9.24887
46.9024
51.7699
52.994
50.1339
49.1523
60.8191
70.0388
66.0428
40.1676
14.1393
13.8504
14.0755
14.1247
13.921
13.4115
12.7466
11.8725
10.9754
10.206
8.82374
49.4896
54.8457
56.0225
47.0641
10.3476
9.73667
10.7588
12.161
13.3553
13.42
13.1388
12.507
11.5882
10.6537
9.86461
8.43129
51.1281
57.7377
61.0332
59.9132
9.8149
10.4948
10.8166
11.4756
12.4018
12.9133
12.8164
12.379
11.568
10.6142
9.75252
8.23221
52.1409
59.2054
63.7267
68.9408
10.8487
11.3327
11.3605
11.5609
12.0036
12.4221
12.4033
12.1149
11.4464
10.5308
9.60257
7.96713
49.9278
54.4467
56.6364
64.9551
11.3462
11.0204
11.0839
11.245
11.5972
12.0874
12.1907
12.049
11.5707
10.7007
9.68586
7.84923
43.3315
42.7045
38.1499
39.3125
10.2112
9.85601
11.0998
11.6778
3.6764
5.58393
7.38966
8.71134
9.69858
10.5697
11.2805
11.4276
11.2292
10.6637
9.78975
7.87193
37.0264
32.1692
24.3439
14.0082
9.71436
10.6155
11.5951
11.3105
5.86059
3.51036
4.11584
5.38172
6.81533
8.16559
9.42276
10.3031
10.4183
10.1917
9.54943
7.8038
31.1672
25.5056
19.5558
13.6477
10.7518
10.9432
11.63
11.3807
7.74754
4.26937
3.31888
3.50633
4.38468
5.77435
7.32353
8.67322
9.2913
9.26879
8.91638
7.45405
26.3091
21.572
17.7833
13.8485
12.1361
11.6118
11.8231
11.5581
9.11168
5.7209
3.60094
3.48836
3.69092
4.4278
5.66959
6.9778
7.84593
7.92596
7.67888
6.64827
22.6172
18.9476
16.6994
13.8901
13.2863
12.5173
12.2278
11.9282
10.1412
7.26195
4.6456
3.78029
3.77375
4.03288
4.62358
5.39982
6.02377
6.14141
6.04275
6.04011
19.8064
16.9615
15.7316
13.6958
13.331
12.9798
12.5827
12.3703
11.0147
8.65471
6.16058
4.65116
4.13224
3.98225
3.92941
4.04658
4.38878
4.95594
5.48316
6.20147
17.5609
15.3029
14.7158
13.2137
13.0431
12.8652
12.5453
12.4009
11.6304
9.88449
7.7704
6.00632
4.85236
4.0057
3.67222
3.67455
4.08597
4.82422
5.57998
7.455
15.7584
13.892
13.6849
12.5813
12.4109
12.4046
12.2381
12.2215
11.6599
10.6361
9.06559
7.35622
5.72148
4.20406
3.71479
3.74804
4.38127
5.78393
7.48804
9.88232
14.0766
12.5629
12.5793
11.7371
11.5041
11.5703
11.5394
11.6829
11.4091
10.6523
9.55535
8.138
6.32833
4.56996
4.19967
4.43311
6.02726
8.21609
9.67785
10.2494
12.6272
11.3649
11.503
10.8627
10.5761
10.5973
10.5946
10.7649
10.786
10.3699
9.49366
8.17386
6.38967
5.14511
4.97485
5.86843
8.26615
9.11307
8.55621
7.73094
11.5534
10.4477
10.6075
10.1077
9.78866
9.7199
9.64437
9.72155
9.86015
9.67308
9.08225
7.89684
6.25452
5.6741
5.73811
7.59151
9.80376
8.65441
6.68428
6.30976
9.80249
8.98703
9.16408
8.74493
8.36064
8.18303
7.9756
7.85775
7.8938
7.86537
7.54595
6.79113
6.19756
6.36434
7.60846
10.0346
10.4321
7.84259
6.32981
6.50846
38.9684
44.3081
47.5781
50.3439
53.3039
55.4347
56.8995
54.856
47.9703
41.2325
34.7796
29.3687
25.217
22.0255
19.4596
17.3622
15.4385
13.7736
12.5033
10.4585
44.2921
50.1338
53.4693
55.8287
59.4944
62.9353
64.9853
60.2455
47.8908
36.4581
28.9879
24.3928
21.2884
18.9369
16.9874
15.3074
13.7619
12.3794
11.2864
9.56899
47.5266
53.4382
56.5994
57.342
61.1887
66.3971
69.6733
62.5747
42.7537
27.8604
22.4953
20.271
18.8252
17.5542
16.2808
15.0143
13.7086
12.4559
11.4003
9.73107
50.2609
55.8411
57.4393
54.0315
53.3426
63.7934
73.2496
69.8605
43.441
15.9477
15.7221
15.7763
15.6473
15.2468
14.5894
13.7923
12.7843
11.7525
10.8414
9.27151
53.0662
59.2108
60.749
51.671
11.5966
10.4967
11.9258
13.5915
14.6185
14.5444
14.1011
13.3055
12.2561
11.2049
10.3079
8.75831
55.0276
62.3285
65.5362
62.8837
10.3648
11.2845
11.7781
12.5933
13.6086
13.8809
13.6908
13.1007
12.1453
11.0564
10.0953
8.4738
56.3426
64.0534
68.4131
72.0416
11.5525
12.1117
12.2183
12.5533
13.1049
13.3681
13.2629
12.7979
11.9301
10.8181
9.77328
8.08411
54.3104
59.1349
60.8217
68.2569
11.9972
11.7327
11.8797
12.1311
12.6073
13.03
13.0228
12.7558
12.0487
10.9278
9.77938
7.85353
47.371
46.7047
40.8676
40.3936
11.1599
10.5558
11.7674
12.278
4.25876
6.15473
8.06382
9.47855
10.5671
11.5082
12.1311
12.1153
11.7547
10.9311
9.86214
7.82267
40.6775
35.5532
26.8065
15.3855
10.7825
11.5998
12.445
12.0539
6.62359
4.0804
4.68134
6.00714
7.53949
8.99395
10.2463
10.9501
10.9143
10.5053
9.65964
7.73067
34.33
28.3726
21.9005
15.407
12.1091
12.1168
12.5796
12.2403
8.59429
4.90106
3.85061
4.05371
4.98858
6.42374
8.00316
9.28107
9.69961
9.57556
9.04571
7.38711
29.0362
23.9635
19.8794
15.5115
13.6377
12.8953
12.9088
12.5313
9.99257
6.43835
4.1833
4.00939
4.16168
4.8871
6.18048
7.52701
8.18119
8.12999
7.73428
6.66202
24.9733
20.9754
18.5396
15.4241
14.5568
13.8151
13.3995
13.0199
11.0832
8.0508
5.29563
4.24762
4.18357
4.38439
4.9639
5.73746
6.16936
6.25757
6.28203
6.36383
21.8422
18.7009
17.3385
15.0688
14.4727
14.0057
13.5811
13.3296
11.999
9.52488
6.84639
5.12697
4.4961
4.25751
4.17888
4.32057
4.74775
5.44022
5.92439
6.71998