/*--------------------------------*- C++ -*----------------------------------*\
  =========                 |
  \\      /  F ield         | OpenFOAM: The Open Source CFD Toolbox
   \\    /   O peration     | Website:  https://openfoam.org
    \\  /    A nd           | Version:  9
     \\/     M anipulation  |
\*---------------------------------------------------------------------------*/
FoamFile
{
    format      ascii;
    class       volScalarField;
    location    "0.0025";
    object      rho.C4;
}
// * * * * * * * * * * * * * * * * * * * * * * * * * * * * * * * * * * * * * //

dimensions      [1 -3 0 0 0 0 0];

internalField   nonuniform List<scalar> 
9720
(
39.3932
44.5649
47.8148
50.5087
53.3605
55.4528
56.941
55.0009
48.1353
41.4071
34.9533
29.5411
25.3915
22.2083
19.6573
17.585
15.6946
14.083
12.875
11.0359
44.545
50.239
53.5717
55.8857
59.3184
62.6973
64.8322
60.3066
47.9237
36.4901
29.0219
24.4183
21.31
18.9631
17.023
15.3575
13.8306
12.4786
11.4241
9.85582
47.7624
53.5065
56.6594
57.4233
60.8552
65.958
69.4548
62.6919
42.6422
27.777
22.4606
20.2498
18.8089
17.5445
16.2815
15.0296
13.7413
12.5153
11.4918
9.95464
50.5395
55.9677
57.5424
56.2648
55.3143
65.3792
75.5698
73.2202
44.9826
15.7057
15.5786
15.6824
15.5854
15.2074
14.5664
13.7894
12.8022
11.7958
10.9119
9.45478
53.4036
59.5155
61.1793
55.9314
12.6507
10.4414
11.853
13.5319
14.5996
14.5393
14.1068
13.3171
12.2737
11.2424
10.3721
8.9306
55.3622
62.6757
66.0055
65.8051
11.0336
11.3416
11.8328
12.6565
13.6707
13.9164
13.7274
13.1381
12.1892
11.1239
10.1913
8.67438
56.6785
64.4176
68.8531
75.0511
12.2383
12.2328
12.3216
12.6658
13.2417
13.491
13.3878
12.9198
12.048
10.9474
9.92027
8.3234
54.6413
59.5445
61.4116
71.1932
12.528
11.9206
12.058
12.3239
12.8398
13.276
13.2721
13.0039
12.2921
11.1723
10.0288
8.1719
47.7301
47.181
41.5207
42.2855
11.8386
11.2734
12.5542
12.9543
4.53924
6.32501
8.28657
9.75469
10.9011
11.89
12.5315
12.5231
12.1602
11.3362
10.2661
8.27601
41.0287
35.9468
27.2384
15.5851
10.6795
11.5597
12.5307
12.2404
6.82671
4.23863
4.88364
6.29134
7.92114
9.46948
10.7973
11.5358
11.5157
11.1147
10.258
8.36252
34.6435
28.6631
22.1895
15.5582
12.0402
12.0776
12.6388
12.4015
8.852
5.13083
4.08407
4.33913
5.36608
6.92981
8.65107
10.0425
10.5075
10.4112
9.88111
8.2333
29.3097
24.1741
20.0745
15.6345
13.6039
12.862
12.9466
12.6902
10.2911
6.77359
4.49404
4.37456
4.60082
5.44311
6.91595
8.4429
9.19298
9.17733
8.77806
7.70947
25.2183
21.1308
18.6733
15.5147
14.5371
13.789
13.4229
13.1856
11.4237
8.49039
5.7338
4.71013
4.75457
5.08124
5.81855
6.75344
7.28285
7.42574
7.48851
7.74133
22.0725
18.8197
17.429
15.125
14.4557
13.9836
13.6059
13.4809
12.3656
10.0566
7.44197
5.76275
5.24394
5.13888
5.18804
5.43533
6.00346
6.90634
7.55196
8.78731
19.5472
16.9027
16.1783
14.4825
14.0165
13.7882
13.4936
13.4455
12.8337
11.3241
9.23937
7.41327
6.17547
5.28231
5.16773
5.41781
6.1842
7.39313
8.64544
12.2942
17.4941
15.254
14.9335
13.7018
13.2343
13.1827
13.018
13.124
12.76
11.8872
10.5451
8.99974
7.27763
5.66696
5.52087
5.96516
7.46889
10.4364
14.1384
20.4146
15.6184
13.7396
13.6504
12.7129
12.2005
12.2049
12.1363
12.3564
12.3071
11.8044
10.8748
9.63866
7.80426
6.32283
6.43273
7.59941
11.7298
18.1475
24.6983
32.0527
14.0193
12.4004
12.4337
11.7123
11.1759
11.1067
11.0188
11.2019
11.4251
11.2966
10.7224
9.59456
7.89689
7.30124
7.73987
10.675
18.2959
27.9861
37.5954
44.6511
12.8216
11.3586
11.423
10.841
10.3149
10.1567
9.97963
10.0514
10.3002
10.3789
10.1046
9.13174
7.89677
7.95925
9.03805
14.4985
25.0632
37.885
50.1508
56.8631
10.9965
9.80832
9.90533
9.40487
8.88887
8.63377
8.36201
8.1971
8.29668
8.42704
8.35331
7.93201
8.01514
9.12591
12.7216
20.9339
32.5967
45.0904
56.9752
65.5869
36.9444
41.5713
44.5297
46.9733
49.642
51.4514
52.6334
50.4074
43.8177
37.5206
31.6119
26.6827
22.9303
20.0787
17.81
16.0022
14.3293
12.9118
11.879
10.281
41.5532
46.6369
49.6976
51.6222
54.9357
58.1152
59.8539
55.1927
43.4547
32.8056
26.0212
21.9685
19.2508
17.1986
15.4952
14.0567
12.7163
11.5239
10.6236
9.26196
44.5014
49.6811
52.5468
52.7191
56.2723
61.6168
64.5656
57.7073
39.0207
24.9316
20.0357
18.1688
17.0046
15.9716
14.9077
13.8467
12.7285
11.653
10.7673
9.40713
47.0013
51.8003
53.0595
52.0942
50.8338
61.8095
71.2202
68.0698
41.9599
14.2257
13.8796
14.0845
14.1082
13.8889
13.375
12.723
11.8674
10.9927
10.2468
8.95645
49.5859
54.9218
56.2
49.9013
11.5219
9.82819
10.8488
12.2201
13.3741
13.4239
13.1416
12.5116
11.6009
10.6847
9.91894
8.57207
51.2297
57.8253
61.1966
61.5664
10.3078
10.6764
11.0115
11.6369
12.5016
12.9512
12.8466
12.4069
11.6082
10.6788
9.8422
8.4061
52.305
59.4218
64.044
70.8203
11.5422
11.5889
11.6182
11.7992
12.201
12.562
12.5336
12.2387
11.5736
10.6686
9.75067
8.18477
50.1391
54.7125
56.9636
67.0727
12.1053
11.3559
11.4288
11.5824
11.9155
12.3722
12.4535
12.3132
11.8326
10.964
9.94741
8.15212
43.5107
42.841
38.1422
40.539
11.1416
10.3347
11.6762
12.3016
4.14786
5.7756
7.68754
9.09045
10.1149
11.0054
11.7235
11.8624
11.666
11.0911
10.2022
8.30623
37.1591
32.2338
24.3385
14.0081
9.6645
10.5769
11.6155
11.4886
6.2141
3.73218
4.37503
5.728
7.25733
8.68809
10.0135
10.928
11.0426
10.8244
10.1682
8.42082
31.2694
25.5298
19.5276
13.5527
10.6648
10.9047
11.6599
11.5496
8.12453
4.57688
3.58994
3.82197
4.78835
6.30548
7.98817
9.44189
10.1135
10.115
9.7636
8.29039
26.3969
21.5728
17.7451
13.7519
12.0332
11.5632
11.8538
11.714
9.47162
6.12747
3.94213
3.86996
4.137
4.97807
6.38175
7.85411
8.84825
8.97446
8.72996
7.68166
22.7003
18.9374
16.6606
13.8049
13.1928
12.4554
12.2421
12.0727
10.4865
7.73602
5.09819
4.2447
4.33102
4.69565
5.41762
6.34482
7.10765
7.2923
7.20958
7.33041
19.8937
16.9506
15.6956
13.6234
13.248
12.9195
12.5834
12.5043
11.3563
9.17942
6.74499
5.26424
4.84169
4.78638
4.84197
5.04765
5.51656
6.27523
6.97835
8.06195
17.66
15.2973
14.6859
13.1588
12.9636
12.8132
12.5525
12.5414
11.9767
10.4525
8.49568
6.83083
5.76596
4.96463
4.74422
4.90183
5.53063
6.61266
7.72553
10.7682
15.8801
13.8976
13.6649
12.5459
12.3388
12.3628
12.2579
12.3749
12.0106
11.2294
9.8991
8.38205
6.8556
5.3219
4.97828
5.28276
6.41497
8.83161
11.9387
17.6897
14.2259
12.5824
12.5724
11.7194
11.4472
11.5421
11.5749
11.8448
11.7646
11.2545
10.4271
9.26389
7.60242
5.84677
5.7651
6.53986
9.70248
15.2216
21.0712
28.1785
12.8177
11.4058
11.516
10.8644
10.5486
10.5956
10.6552
10.9338
11.1418
10.9736
10.3808
9.32653
7.7024
6.63917
6.94252
9.08225
15.3797
24.0539
32.9748
40.5023
11.793
10.5174
10.6477
10.1332
9.79657
9.75135
9.73456
9.90432
10.2065
10.2611
9.95521
9.04166
7.56839
7.35656
8.10143
12.3318
21.4957
33.3341
45.8341
53.3672
10.2056
9.17217
9.31165
8.8663
8.47498
8.31765
8.16336
8.11781
8.2862
8.46548
8.39353
7.88947
7.60836
8.39549
11.2091
18.2693
28.8535
41.1726
53.8363
62.8863
35.5989
40.0982
42.9492
45.2989
47.9188
49.5681
50.5446
48.1227
41.5714
35.4336
29.8204
25.1887
21.6682
18.996
16.8501
15.1585
13.5772
12.2191
11.2229
9.68496
40.0768
45.0172
47.9007
49.5328
52.801
55.8902
57.418
52.5857
41.1054
30.8154
24.4613
20.8182
18.3562
16.461
14.8503
13.5018
12.2369
11.0873
10.207
8.86868
42.8951
47.8628
50.3794
50.0578
53.6861
59.1894
61.8882
54.7513
36.7603
23.2757
18.7431
17.1365
16.1861
15.3113
14.3574
13.4002
12.3551
11.3133
10.4427
9.08474
45.197
49.4343
49.9636
48.3788
47.3092
59.7407
68.755
64.4548
38.7539
13.1274
13.2029
13.4565
13.4967
13.3165
12.8501
12.2579
11.4749
10.6416
9.9338
8.69446
47.6041
52.2172
52.8244
45.6391
10.0411
9.20695
10.1146
11.4309
12.7156
13.0263
12.8224
12.3189
11.4841
10.5531
9.77339
8.42669
49.1129
55.1493
58.0962
58.3585
9.8506
9.97294
10.231
10.8595
11.7846
12.5481
12.5402
12.2439
11.5384
10.6158
9.76278
8.32685
50.1071
56.8221
61.1767
67.7135
10.895
10.7978
10.8183
10.9928
11.4262
12.0021
12.1282
11.9708
11.4611
10.6294
9.72102
8.14912
47.911
52.3894
54.648
64.3711
11.5014
10.5348
10.6164
10.799
11.1324
11.7101
12.0164
11.9548
11.6371
10.9236
9.95502
8.18658
41.4237
40.9287
36.5796
38.333
10.0935
9.57514
10.7477
11.4608
3.5676
5.21897
7.02965
8.38075
9.38234
10.3056
11.1523
11.5078
11.4023
10.9611
10.1823
8.36619
35.2482
30.5233
22.9382
12.7727
8.84818
9.8062
10.7814
10.5836
5.34861
3.21783
3.88477
5.2116
6.67728
8.07554
9.42527
10.4998
10.7648
10.631
10.1138
8.49477
29.6035
24.0903
18.2739
12.6052
9.72506
10.0448
10.8095
10.665
7.20817
3.96462
3.16033
3.39136
4.31587
5.78115
7.42341
8.94147
9.82036
9.93
9.6944
8.38117
24.9757
20.4519
16.6751
12.874
11.0311
10.6853
10.973
10.8356
8.55353
5.39161
3.44389
3.4021
3.66609
4.47925
5.82214
7.34723
8.57244
8.89549
8.7404
7.75041
21.4763
18.0344
15.7843
13.0603
12.3445
11.5938
11.371
11.1611
9.53714
6.90558
4.47347
3.7245
3.83413
4.22038
4.9899
6.03845
7.03465
7.31808
7.12696
6.98114
18.8283
16.1928
14.975
12.9546
12.7606
12.3733
11.8815
11.7122
10.4446
8.31474
6.01931
4.65783
4.30505
4.38497
4.56779
4.86866
5.27483
5.80792
6.39038
7.32111
16.7067
14.631
14.0859
12.5849
12.583
12.3817
11.9958
11.9505
11.2597
9.64951
7.68914
6.09221
5.19579
4.65777
4.41982
4.47676
4.9444
5.8789
6.80232
9.06236
15.0374
13.3209
13.1785
12.0586
12.1196
12.1116
11.8524
11.8806
11.5182
10.6503
9.17921
7.63382
6.32671
5.0595
4.5138
4.66812
5.42429
7.16984
9.49062
14.4742
13.4728
12.0853
12.1679
11.3164
11.3192
11.4306
11.3648
11.5471
11.3868
10.8384
9.98629
8.8162
7.33973
5.51225
5.05215
5.50305
7.5162
11.9299
17.059
24.146
12.1258
10.9564
11.1513
10.5101
10.4098
10.5139
10.5596
10.8226
10.9282
10.6783
10.0544
9.08406
7.55133
6.0266
6.08013
7.35966
12.0666
19.831
28.2977
36.8254
11.1375
10.0905
10.3005
9.81731
9.63941
9.6591
9.68013
9.87393
10.1334
10.1292
9.79198
8.90081
7.33563
6.60923
7.04246
9.80629
17.4218
28.6243
41.8363
50.9022
9.61042
8.77042
8.9671
8.59371
8.30764
8.22134
8.12605
8.13187
8.30932
8.48292
8.40534
7.83248
7.14751
7.53917
9.39707
14.9982
24.8092
37.5216
51.465
60.8131
34.5676
39.035
41.8356
44.1468
46.671
48.2117
49.1403
46.6149
40.0245
33.9458
28.4776
24.0212
20.6723
18.1576
16.1266
14.5163
13.0055
11.6706
10.6633
9.14491
39.0243
43.9208
46.6595
48.0226
51.2007
54.2869
55.8261
50.9358
39.5215
29.388
23.2843
19.8589
17.5784
15.8392
14.3483
13.0836
11.8755
10.7424
9.83491
8.4698
41.8105
46.6731
49.0416
48.2172
51.7519
57.4148
60.1966
53.026
35.0785
21.879
17.6688
16.2569
15.4736
14.7371
13.9087
13.061
12.0743
11.0411
10.1398
8.73124
43.9592
47.8624
48.0901
45.3642
44.3097
57.8869
66.6643
62.1698
36.3188
12.0542
12.2874
12.8039
12.9648
12.842
12.4584
11.9442
11.2084
10.3863
9.66379
8.40231
46.2051
50.4718
50.8301
43.4879
9.42271
8.67471
9.43748
10.6814
11.9906
12.6739
12.565
12.181
11.4268
10.5008
9.66876
8.2393
47.6699
53.436
56.262
56.3382
9.28697
9.585
9.78542
10.3621
11.2485
12.162
12.2709
12.0672
11.4848
10.6021
9.70443
8.19835
48.6147
55.037
59.196
65.2821
10.2136
10.3599
10.383
10.505
10.8801
11.4819
11.7513
11.6535
11.2631
10.5133
9.62516
8.04722
46.3808
50.6324
52.7376
61.849
10.5807
9.97463
10.0883
10.2548
10.5272
11.07
11.5467
11.5258
11.3022
10.7081
9.8254
8.12474
40.0018
39.5312
35.2403
37.0762
9.82129
9.15928
10.2685
10.7377
3.09434
4.58978
6.35548
7.68213
8.64327
9.5456
10.4643
10.9832
10.9584
10.6268
9.96277
8.30663
33.9854
29.4602
22.0296
12.2215
8.59958
9.50468
10.3891
10.0564
4.94337
2.82472
3.40397
4.60783
5.96679
7.3251
8.66093
9.81464
10.2633
10.1957
9.81567
8.40171
28.5106
23.2583
17.5707
12.1373
9.30931
9.70688
10.4078
10.152
6.69505
3.53722
2.79256
2.98807
3.78605
5.13972
6.71397
8.23053
9.23658
9.4846
9.34481
8.27344
24.0312
19.7588
16.0408
12.414
10.4545
10.2788
10.5132
10.3075
7.93702
4.8442
3.04954
2.97861
3.21479
3.98315
5.26543
6.72961
8.01746
8.55763
8.4948
7.70367
20.6552
17.4413
15.2246
12.5874
11.6898
11.1154
10.8438
10.5754
8.8436
6.22512
3.93625
3.26051
3.37714
3.7753
4.51988
5.58077
6.7022
7.17154
7.026
6.69704
18.1164
15.6878
14.4913
12.5042
12.3508
11.9592
11.3528
11.0926
9.72715
7.57048
5.35478
4.12339
3.82721
3.93664
4.21365
4.65142
5.12085
5.48823
5.88919
6.75517
16.0693
14.1962
13.6768
12.172
12.2544
12.0525
11.566
11.4408
10.6037
8.88631
6.95172
5.46581
4.64727
4.26541
4.13738
4.17239
4.49695
5.3281
6.14915
7.89886
14.4524
12.936
12.8434
11.6994
11.8939
11.8538
11.4723
11.3913
10.9481
9.95874
8.44482
6.95021
5.75834
4.74521
4.19078
4.2447
4.80054
6.04127
7.63463
11.6423
12.9353
11.7372
11.8754
11.0055
11.1654
11.2829
11.0929
11.1356
10.8792
10.2665
9.35952
8.19453
6.86368
5.22226
4.55987
4.8482
6.04176
9.02764
13.094
19.9831
11.5984
10.6159
10.8613
10.2201
10.2697
10.4074
10.3687
10.5192
10.4965
10.1608
9.51948
8.64249
7.2684
5.60021
5.45311
6.17138
9.1535
15.5268
23.4989
32.6854
10.5923
9.72029
9.98271
9.52117
9.45878
9.52085
9.50568
9.64478
9.8059
9.72441
9.34834
8.55775
7.11227
6.03121
6.31468
7.88586
13.4491
23.8293
37.5306
48.0053
9.08102
8.37432
8.60446
8.28387
8.07129
8.03616
7.95367
7.98045
8.13989
8.27241
8.20182
7.7042
6.77406
6.8898
8.13638
12.0958
20.6156
33.3182
48.4633
58.6517
34.1562
38.6254
41.3928
43.6103
46.0261
47.4914
48.4265
45.9222
39.3183
33.2318
27.83
23.4718
20.2138
17.7758
15.7987
14.2072
12.7285
11.4032
10.3862
8.89446
38.5747
43.3955
46.0413
47.2542
50.3848
53.4272
54.9927
50.2187
38.7728
28.6356
22.6166
19.3192
17.1524
15.5101
14.0984
12.867
11.6895
10.5671
9.64167
8.27921
41.2872
45.9811
48.2009
47.2709
50.8406
56.5183
59.3366
52.366
34.3337
21.1143
16.9697
15.6601
15.0109
14.3908
13.6707
12.8833
11.9343
10.9131
9.988
8.56273
43.4228
47.02
47.0071
43.7903
43.2472
56.7929
65.5094
61.3503
35.5839
11.5293
11.7344
12.2794
12.5913
12.5279
12.2343
11.7844
11.1034
10.3011
9.55854
8.28052
45.628
49.6983
49.899
42.0314
9.43073
8.50482
9.07972
10.2079
11.514
12.416
12.3918
12.1086
11.4288
10.504
9.63665
8.17539
47.0608
52.7216
55.5659
55.7478
9.12864
9.46268
9.64983
10.2135
11.0787
12.034
12.2158
12.0454
11.5232
10.6582
9.73083
8.1865
47.962
54.2863
58.4526
64.388
10.104
10.2741
10.295
10.4113
10.7699
11.4041
11.6884
11.5997
11.2441
10.5203
9.63145
8.059
45.6613
49.7923
51.8012
60.5007
10.5854
9.90784
9.99989
10.145
10.3881
10.8862
11.4207
11.4157
11.2181
10.6534
9.7966
8.13707
39.2946
38.7089
34.3124
35.5982
9.30623
8.995
10.0074
10.5411
3.04194
4.47416
6.22097
7.52125
8.44238
9.31011
10.2484
10.8193
10.8189
10.5352
9.90976
8.32729
33.3473
28.807
21.4014
11.7676
8.46997
9.35862
10.2103
9.89571
4.84488
2.70178
3.25266
4.43466
5.76768
7.09728
8.40831
9.54646
10.0952
10.0613
9.73549
8.42836
27.9974
22.8145
17.2109
11.9434
9.1135
9.57018
10.2351
9.97798
6.52903
3.36498
2.65632
2.85964
3.6273
4.92902
6.44367
7.92476
8.99717
9.3304
9.22874
8.28904
23.6332
19.464
15.7861
12.3627
10.2337
10.1441
10.3496
10.1242
7.7149
4.61199
2.89826
2.82493
3.03514
3.74282
4.96349
6.40702
7.7312
8.39069
8.37608
7.73616
20.3407
17.2348
15.0353
12.5207
11.4762
11.0051
10.6906
10.3779
8.58366
5.95331
3.71036
3.04512
3.13332
3.49491
4.22826
5.29988
6.46483
7.0791
7.00363
6.72086
17.8557
15.5375
14.3546
12.4302
12.2528
11.911
11.2606
10.8862
9.44216
7.27045
5.03863
3.7848
3.5088
3.64418
3.9878
4.52168
5.05629
5.43083
5.77855
6.62858
15.835
14.0825
13.5893
12.1085
12.2027
12.054
11.5118
11.3112
10.3496
8.55571
6.56383
5.04009
4.27349
4.00902
4.0372
4.08874
4.35906
5.10143
5.8934
7.48808
14.2115
12.8185
12.7718
11.6443
11.8959
11.8748
11.4303
11.2757
10.7644
9.62696
8.04321
6.52392
5.39203
4.56975
4.0962
4.10507
4.56173
5.64099
7.01816
10.6407
12.7062
11.6217
11.8124
10.9685
11.2123
11.3473
11.0854
11.0471
10.7238
10.0617
9.05856
7.84122
6.56513
5.1041
4.38341
4.58371
5.54334
8.08014
11.6783
18.2767
11.3659
10.491
10.7876
10.1791
10.3039
10.4763
10.3743
10.4605
10.3858
9.99177
9.31039
8.40992
7.10225
5.46341
5.15717
5.705
8.16458
13.8833
21.5534
30.7977
10.3421
9.56435
9.86847
9.44561
9.45216
9.55067
9.50008
9.60576
9.72548
9.60978
9.17901
8.3721
7.00501
5.82631
5.97013
7.16862
11.9457
21.8495
35.5201
46.2127
8.84956
8.20864
8.46268
8.18098
8.02563
8.02708
7.9492
7.9793
8.12932
8.25523
8.16198
7.66468
6.70417
6.66531
7.61383
10.9507
18.7696
31.3356
46.583
56.762
34.1561
38.6157
41.3719
43.5195
45.8972
47.3807
48.3527
45.882
39.3203
33.2457
27.8373
23.4687
20.2038
17.7622
15.7848
14.1958
12.7187
11.3962
10.3815
8.89167
38.578
43.3933
46.0634
47.1177
50.1665
53.2516
54.8786
50.1706
38.8194
28.6937
22.6414
19.3127
17.1316
15.4842
14.0717
12.842
11.6683
10.5505
9.62895
8.27018
41.2938
45.9663
48.2363
47.1114
50.5735
56.3236
59.1961
52.3094
34.4142
21.2408
17.0353
15.6603
14.9737
14.3439
13.624
12.8404
11.898
10.8833
9.96375
8.54547
43.4944
47.154
47.2
43.5327
43.2847
56.438
65.1168
61.082
35.4974
11.6241
11.8296
12.3417
12.5716
12.4928
12.185
11.7288
11.0519
10.2592
9.52571
8.258
45.7388
49.8589
50.0498
41.0725
9.02637
8.50742
9.10091
10.2249
11.5092
12.3709
12.3385
12.0488
11.3684
10.449
9.59032
8.14306
47.1473
52.8427
55.6849
55.7475
9.07431
9.46485
9.66579
10.2399
11.1114
12.0516
12.2087
12.0326
11.5031
10.6293
9.69831
8.15846
47.9952
54.3275
58.4897
64.3144
9.99762
10.3094
10.3443
10.4708
10.8387
11.4777
11.7235
11.6259
11.2532
10.5154
9.62089
8.04869
45.6379
49.7501
51.7493
60.2944
10.6027
9.94252
10.0615
10.2199
10.4702
10.9769
11.4828
11.4621
11.2426
10.66
9.79257
8.12892
39.2603
38.6805
34.3309
35.7566
8.90185
9.00673
9.95166
10.5276
2.96061
4.56214
6.32149
7.6133
8.52993
9.4001
10.3438
10.8807
10.8669
10.5616
9.92556
8.32854
33.3034
28.7483
21.3718
11.7131
8.43089
9.40608
10.2514
9.88983
4.75165
2.7056
3.29154
4.49594
5.83065
7.16194
8.48196
9.6231
10.1552
10.1124
9.77099
8.44268
27.9609
22.7737
17.2153
11.9503
9.10241
9.60115
10.2755
9.97488
6.4529
3.3492
2.66351
2.87456
3.64749
4.95643
6.48621
7.98868
9.07002
9.39347
9.28467
8.31692
23.6139
19.4556
15.8169
12.4477
10.2717
10.176
10.3844
10.1198
7.65927
4.57995
2.89516
2.82869
3.04137
3.75587
4.98899
6.45542
7.80232
8.45718
8.43891
7.78024
20.3397
17.2561
15.0859
12.6286
11.566
11.0625
10.7294
10.37
8.53728
5.91043
3.69106
3.04752
3.13998
3.50778
4.25003
5.33983
6.52517
7.13999
7.0642
6.77706
17.8691
15.5777
14.416
12.5318
12.3683
11.9947
11.324
10.8813
9.39735
7.22418
5.01244
3.78515
3.51895
3.65721
4.0067
4.55443
5.10066
5.48098
5.83605
6.68991
15.8562
14.1302
13.6549
12.1975
12.3121
12.1352
11.5697
11.3322
10.3152
8.51706
6.54253
5.04182
4.28537
4.02116
4.05783
4.11519
4.39395
5.1492
5.95197
7.56136
14.2344
12.8656
12.8352
11.7194
11.9905
11.9502
11.4827
11.3021
10.7611
9.60077
8.02588
6.52039
5.3962
4.58009
4.11748
4.12883
4.59512
5.6883
7.08053
10.737
12.7293
11.664
11.8678
11.0269
11.2877
11.4073
11.1279
11.0789
10.729
10.0526
9.04208
7.82978
6.56533
5.11711
4.3987
4.60134
5.57169
8.12696
11.749
18.3965
11.3872
10.527
10.8342
10.2219
10.3588
10.5207
10.4045
10.4947
10.404
9.99008
9.30226
8.40538
7.10819
5.47394
5.16219
5.71302
8.18253
13.9267
21.6406
30.938
10.3606
9.59369
9.90548
9.47758
9.49333
9.58371
9.52101
9.63679
9.75114
9.62101
9.17633
8.36992
7.01102
5.8253
5.96658
7.16685
11.9545
21.8706
35.5961
46.3578
8.8635
8.22929
8.48711
8.20205
8.05211
8.05005
7.963
8.0023
8.15774
8.27744
8.17515
7.67003
6.70302
6.65872
7.60401
10.9398
18.7619
31.3337
46.6265
56.8789
34.5711
39.0301
41.8199
43.9933
46.4273
47.9853
48.9861
46.5203
39.9664
33.908
28.4519
23.9997
20.65
18.1349
16.1069
14.5028
12.9971
11.6673
10.6632
9.14726
39.0234
43.9025
46.674
47.8061
50.8511
53.9618
55.6137
50.8272
39.4468
29.3343
23.2312
19.8076
17.5271
15.7887
14.3016
13.043
11.8426
10.7182
9.81729
8.45849
41.8048
46.5959
48.9983
47.971
51.3828
57.0845
59.9727
52.9317
34.9445
21.7807
17.5554
16.1557
15.3882
14.6669
13.8496
13.0084
12.0269
10.9997
10.1066
8.70708
44.0902
48.012
48.2094
44.4745
43.8948
56.9327
65.776
61.5825
35.6959
11.9569
12.1886
12.7028
12.864
12.7516
12.3797
11.8736
11.1474
10.3367
9.62402
8.37278
46.4207
50.7452
51.0341
41.6137
9.18881
8.64496
9.37122
10.6013
11.9163
12.5894
12.479
12.0962
11.3437
10.4234
9.59849
8.18644
47.8347
53.6465
56.485
56.2484
9.11195
9.57669
9.78377
10.3683
11.257
12.1585
12.2533
12.0446
11.4524
10.5547
9.65224
8.15167
48.6593
55.0654
59.2163
64.8954
10.1956
10.4505
10.4618
10.5678
10.9316
11.5194
11.7649
11.6624
11.26
10.5039
9.61708
8.04231
46.3117
50.4427
52.4007
60.8198
10.7167
10.1277
10.2033
10.3458
10.6113
11.1536
11.5871
11.5509
11.3067
10.6964
9.81021
8.11605
39.8847
39.2553
34.784
35.8417
9.16082
9.05676
10.1
10.5936
3.00296
4.78052
6.54426
7.83509
8.77232
9.66971
10.5895
11.0494
11.005
10.6495
9.97843
8.30955
33.8901
29.2846
21.7764
12.0616
8.65992
9.51722
10.3534
9.98202
4.73646
2.82355
3.47335
4.72128
6.08578
7.44381
8.79418
9.94263
10.3463
10.2649
9.86332
8.42576
28.4723
23.2311
17.565
12.2229
9.36558
9.75447
10.378
10.0893
6.51477
3.47658
2.7959
3.01536
3.84568
5.22432
6.82682
8.36463
9.35905
9.58174
9.43146
8.32187
24.0408
19.8162
16.1525
12.6354
10.5657
10.346
10.5003
10.2535
7.80504
4.74321
3.02272
2.99151
3.24831
4.05425
5.3661
6.85604
8.15234
8.66989
8.60095
7.78341
20.6963
17.5352
15.3759
12.7995
11.8684
11.2215
10.8675
10.5318
8.7415
6.11697
3.87694
3.26176
3.4039
3.83808
4.61336
5.69555
6.82151
7.27849
7.13297
6.80672
18.1751
15.7933
14.6476
12.6952
12.5355
12.1
11.4415
11.0752
9.64235
7.47269
5.28163
4.10971
3.85868
3.99055
4.2855
4.73372
5.20246
5.57666
5.99681
6.88222
16.1334
14.2985
13.822
12.3335
12.4249
12.1887
11.6783
11.5005
10.5554
8.80871
6.88738
5.44901
4.66976
4.30708
4.18144
4.21919
4.55769
5.41663
6.26366
8.06863
14.5133
13.0284
12.9713
11.8299
12.04
11.98
11.579
11.4645
10.971
9.92006
8.39754
6.92733
5.76278
4.77214
4.22729
4.2845
4.86114
6.13958
7.78054
11.9044
12.9906
11.816
11.9823
11.1037
11.2842
11.3864
11.1846
11.22
10.92
10.2749
9.34109
8.17751
6.86758
5.24374
4.5805
4.876
6.0976
9.14267
13.2966
20.3513
11.6461
10.681
10.948
10.2913
10.3596
10.4854
10.4373
10.6086
10.5552
10.1826
9.52578
8.64554
7.27975
5.6069
5.45284
6.17566
9.18885
15.652
23.7718
33.1386
10.6328
9.77372
10.0523
9.57598
9.52823
9.57936
9.5555
9.72468
9.87299
9.76803
9.36503
8.56535
7.12154
6.02144
6.3013
7.86357
13.4419
23.906
37.8295
48.5222
9.11182
8.41302
8.65313
8.32258
8.11853
8.07927
7.9859
8.03755
8.20547
8.32652
8.24015
7.72407
6.77744
6.88168
8.11863
12.056
20.5828
33.3515
48.6441
59.0458
35.6152
40.0996
42.9221
45.1803
47.7316
49.3851
50.4323
48.0223
41.445
35.3164
29.735
25.1365
21.6376
18.9766
16.8379
15.1528
13.5789
12.2271
11.2361
9.70368
40.1149
45.0337
47.9008
49.3263
52.5105
55.63
57.2925
52.5084
40.9229
30.6241
24.3258
20.7423
18.3157
16.4374
14.8328
13.4866
12.2241
11.0795
10.2059
8.87539
42.9569
47.8761
50.3893
49.8092
53.3722
58.926
61.797
54.7494
36.4754
22.9332
18.4836
16.9994
16.1263
15.2924
14.3564
13.3984
12.3468
11.3031
10.4364
9.08629
45.3038
49.5921
50.1292
46.5394
45.7293
58.4361
67.4587
63.2039
37.065
12.8042
12.9089
13.2562
13.3987
13.2644
12.8468
12.264
11.4745
10.6381
9.93198
8.69591
47.7668
52.4515
53.0354
43.5813
9.54203
9.08279
9.96015
11.2905
12.6245
12.9968
12.8045
12.312
11.4747
10.5369
9.75338
8.40924
49.2531
55.3241
58.2877
57.5954
9.25276
9.90981
10.1795
10.826
11.7631
12.5448
12.5405
12.2514
11.5422
10.6078
9.74991
8.31448
50.1211
56.7621
61.0309
66.446
10.3202
10.7559
10.791
10.967
11.402
11.979
12.1034
11.9492
11.4443
10.6243
9.73262
8.17281
47.8005
52.0853
54.1165
62.443
10.781
10.4659
10.5742
10.7649
11.1016
11.6898
12.0009
11.9387
11.6249
10.9193
9.96641
8.21678
41.3088
40.6575
36.1814
37.2897
9.43125
9.19933
10.2762
10.7957
3.31427
5.11049
6.93424
8.3083
9.33356
10.2789
11.1537
11.5212
11.4179
10.9923
10.2274
8.41603
35.1893
30.4292
22.7987
12.6999
8.96063
9.88022
10.8228
10.6297
5.35351
3.17304
3.82092
5.14355
6.62249
8.05006
9.43674
10.5456
10.8329
10.7011
10.1844
8.55906
29.611
24.1375
18.3429
12.7727
9.85575
10.1289
10.8528
10.6896
7.19005
3.92069
3.12622
3.35715
4.28406
5.77329
7.45346
9.0156
9.93053
10.045
9.80296
8.45749
25.0289
20.566
16.8267
13.0768
11.1739
10.7751
11.0196
10.8513
8.51749
5.33739
3.4082
3.37345
3.6594
4.50639
5.88724
7.45222
8.71358
9.03304
8.86821
7.84345
21.5502
18.1657
15.9514
13.2367
12.4962
11.7045
11.4302
11.1765
9.50029
6.84576
4.42818
3.71132
3.83935
4.26831
5.07978
6.1691
7.19448
7.4596
7.25913
7.10738
18.906
16.3164
15.1308
13.1128
12.896
12.4911
11.9736
11.7391
10.4135
8.25789
5.96845
4.64515
4.33258
4.43978
4.65735
4.98908
5.40885
5.93489
6.52395
7.47518
16.779
14.7372
14.218
12.7162
12.7107
12.4919
12.1026
12.0119
11.2459
9.60489
7.64949
6.08124
5.22315
4.71816
4.49375
4.55748
5.04097
5.99904
6.94192
9.28754
15.1005
13.4097
13.2877
12.1615
12.2307
12.2068
11.9512
11.9451
11.5528
10.6425
9.16661
7.6365
6.35275
5.10674
4.57921
4.7414
5.51495
7.29346
9.68081
14.844
13.5267
12.1581
12.2567
11.3957
11.4111
11.5074
11.4496
11.6154
11.4305
10.8635
10.001
8.83435
7.36759
5.54542
5.09905
5.55725
7.59943
12.0875
17.3553
24.6733
12.1727
11.0177
11.2259
10.5746
10.486
10.5776
10.629
10.8983
10.9836
10.7148
10.0812
9.1109
7.57384
6.04616
6.09902
7.38224
12.15
20.0561
28.7325
37.4983
11.1789
10.1441
10.3653
9.87388
9.70659
9.71775
9.7372
9.94662
10.2025
10.1779
9.82596
8.93023
7.3538
6.61762
7.04879
9.81031
17.4909
28.8386
42.3353
51.6865
9.64608
8.81465
9.01815
8.63963
8.36159
8.27441
8.16749
8.19211
8.3763
8.53299
8.44851
7.86438
7.16286
7.54821
9.40618
15.0129
24.8616
37.6473
51.7511
61.3854
36.9579
41.5669
44.5108
46.9468
49.6244
51.4484
52.6328
50.3484
43.7165
37.413
31.528
26.6273
22.8962
20.058
17.7994
15.9997
14.3347
12.9247
11.8972
10.3036
41.58
46.6357
49.6657
51.5736
54.9503
58.154
59.9018
55.1493
43.3403
32.6694
25.9326
21.9334
19.2467
17.2064
15.5061
14.0675
12.7282
11.539
10.6419
9.2836
44.5359
49.693
52.5208
52.6775
56.3657
61.7529
64.6857
57.6793
38.9038
24.7809
19.9376
18.1421
17.0186
16.0023
14.9395
13.8718
12.7484
11.6723
10.7893
9.43355
47.0122
51.7889
53.0031
50.134
49.1523
60.8191
70.0388
66.0428
40.1676
14.1397
13.8516
14.078
14.1289
13.9279
13.4225
12.7642
11.9003
11.021
10.2742
8.9849
49.5858
54.8602
56.0286
47.0641
10.3477
9.73861
10.7622
12.1667
13.364
13.4323
13.1562
12.5319
11.6239
10.708
9.94179
8.59902
51.214
57.7497
61.0385
59.9132
9.82291
10.5125
10.8367
11.4996
12.4309
12.9482
12.8579
12.43
11.6316
10.6982
9.86004
8.42982
52.219
59.2154
63.7311
68.9408
10.9003
11.4098
11.4397
11.6446
12.0943
12.5209
12.5091
12.2301
11.5732
10.6768
9.77012
8.2196
49.9962
54.4543
56.6395
64.9551
11.512
11.2182
11.2791
11.4437
11.8044
12.3081
12.4207
12.2886
11.82
10.9635
9.9621
8.19527
43.3904
42.71
38.1521
39.3125
10.2113
9.86278
11.1434
11.8189
3.81486
5.79589
7.6652
9.02809
10.0444
10.9477
11.6888
11.8517
11.6635
11.1082
10.238
8.36294
37.0808
32.1738
24.3458
14.0086
9.71606
10.631
11.6637
11.4872
6.07417
3.68633
4.34903
5.70346
7.226
8.6606
10.0001
10.946
11.0853
10.8736
10.2267
8.49142
31.2221
25.5101
19.5582
13.6488
10.7549
10.9613
11.7016
11.559
8.01947
4.50689
3.55746
3.79767
4.77484
6.30587
8.01405
9.51018
10.2082
10.2123
9.86071
8.37561
26.3689
21.5775
17.7868
13.8508
12.1415
11.6337
11.8999
11.7418
9.42014
6.05
3.89555
3.84674
4.12693
4.99764
6.44027
7.96204
8.98127
9.1067
8.85896
7.78973
22.6855
18.9554
16.7044
13.894
13.2945
12.5445
12.312
12.1224
10.4775
7.67904
5.04806
4.22199
4.32101
4.71568
5.4917
6.47699
7.2654
7.44599
7.35722
7.46515
19.8877
16.9733
15.7392
13.7022
13.3425
13.0128
12.6751
12.5783
11.3818
9.15339
6.70949
5.2389
4.82665
4.82407
4.90793
5.15384
5.64363
6.41676
7.12999
8.22199
17.6604
15.321
14.7275
13.2238
13.0591
12.9047
12.6454
12.6185
12.0245
10.4599
8.47765
6.804
5.75114
4.99766
4.80981
4.98059
5.64039
6.74546
7.88513
11.0186
15.8839
13.9203
13.7035
12.5974
12.4339
12.4533
12.3482
12.45
12.0675
11.2676
9.9088
8.36636
6.84121
5.34207
5.03001
5.34688
6.50254
8.96374
12.1721
18.0963
14.234
12.6061
12.609
11.7627
11.5372
11.6308
11.6612
11.9218
11.8281
11.3035
10.4641
9.28226
7.60464
5.85976
5.78936
6.57669
9.77694
15.3843
21.4176
28.7358
12.8316
11.4327
11.5523
10.9051
10.627
10.6771
10.7353
11.0183
11.2166
11.036
10.4267
9.35707
7.7173
6.64232
6.94556
9.08465
15.4459
24.2864
33.4898
41.2232
11.8103
10.5458
10.6817
10.1717
9.86155
9.82245
9.80624
9.9889
10.2954
10.3351
10.0137
9.07741
7.58674
7.35829
8.09435
12.3058
21.5351
33.5828
46.459
54.2072
10.2282
9.20154
9.34143
8.89922
8.52149
8.37355
8.22106
8.19491
8.37342
8.54094
8.4566
7.93247
7.63659
8.41662
11.2141
18.2634
28.905
41.3778
54.2459
63.5195
39.4082
44.5742
47.8213
50.5562
53.4923
55.6077
57.0592
54.9963
48.0907
41.3427
34.8875
29.4816
25.3411
22.1674
19.6264
17.5641
15.6833
14.0808
12.878
11.0432
44.5603
50.2456
53.5609
55.897
59.5508
62.9857
65.0291
60.2797
47.9167
36.479
29.007
24.4132
21.3128
18.9683
17.0291
15.3648
13.8413
12.4938
11.4421
9.87488
47.7747
53.5327
56.6738
57.3926
61.229
66.4345
69.706
62.5988
42.7703
27.8724
22.507
20.2845
18.8419
17.5755
16.309
15.0535
13.7642
12.5394
11.5176
9.9817
50.48
55.9147
57.4934
54.045
53.3474
63.7979
73.2539
69.8635
43.4437
15.9533
15.7292
15.7857
15.66
15.264
14.6128
13.8252
12.8311
11.823
10.9407
9.48662
53.2601
59.2705
60.7913
51.676
11.5971
10.502
11.9334
13.6025
14.6338
14.5649
14.1287
13.3433
12.3083
11.2809
10.4124
8.97403
55.2026
62.3805
65.5749
62.8887
10.3695
11.3006
11.7976
12.6178
13.6398
13.9192
13.7378
13.1596
12.2198
11.1564
10.2247
8.71363
56.5022
64.0979
68.4465
72.046
11.5839
12.1667
12.2779
12.6203
13.1817
13.4548
13.3602
12.9084
12.0567
10.9697
9.95222
8.36911
54.4501
59.1695
60.846
68.26
12.1085
11.8715
12.0231
12.2834
12.774
13.2132
13.2201
12.9693
12.2786
11.1794
10.0527
8.21977
47.49
46.7299
40.8833
40.3959
11.1603
10.5611
11.8004
12.3932
4.38426
6.32767
8.287
9.73723
10.8574
11.831
12.4844
12.4888
12.147
11.3433
10.2875
8.31959
40.7863
35.5734
26.8178
15.3907
10.788
11.618
12.5066
12.2085
6.81676
4.2443
4.89557
6.29596
7.90886
9.4421
10.7698
11.5301
11.5211
11.1359
10.2945
8.40674
34.4369
28.391
21.9116
15.4137
12.1168
12.1383
12.6452
12.3981
8.84111
5.12943
4.08662
4.34135
5.36899
6.93399
8.66012
10.0678
10.5503
10.4598
9.9348
8.27901
29.1479
23.9832
19.8923
15.5205
13.6486
12.9214
12.9808
12.6961
10.2731
6.75363
4.48256
4.37533
4.60321
5.45659
6.94448
8.49422
9.26501
9.25198
8.84948
7.77115
25.0962
20.9992
18.5556
15.4363
14.572
13.8474
13.48
13.1968
11.3947
8.45176
5.70412
4.70087
4.74974
5.08672
5.8467
6.81599
7.36775
7.51609
7.58315
7.8285
21.9826
18.7315
17.359
15.0854
14.493
14.0445
13.6701
13.519
12.3401
10.0058
7.39713
5.73035
5.22002
5.13449
5.19337
5.46373
6.05619
6.9871
7.64867
8.90531
19.4826
16.8463
16.1426
14.4669
14.0569
13.848