/*--------------------------------*- C++ -*----------------------------------*\
  =========                 |
  \\      /  F ield         | OpenFOAM: The Open Source CFD Toolbox
   \\    /   O peration     | Website:  https://openfoam.org
    \\  /    A nd           | Version:  9
     \\/     M anipulation  |
\*---------------------------------------------------------------------------*/
FoamFile
{
    format      ascii;
    class       volScalarField;
    location    "0.0025";
    object      rho.Air;
}
// * * * * * * * * * * * * * * * * * * * * * * * * * * * * * * * * * * * * * //

dimensions      [1 -3 0 0 0 0 0];

internalField   nonuniform List<scalar> 
9720
(
0.0260816
0.03184
0.0333475
0.0345724
0.0359746
0.0367282
0.0370572
0.0356887
0.0315862
0.0274359
0.02348
0.0200752
0.0174053
0.0153251
0.0136586
0.0123481
0.0111009
0.0100871
0.00772822
0.00750161
0.0319393
0.0446761
0.0472376
0.0493317
0.05223
0.0549651
0.0567623
0.0526957
0.042047
0.0334156
0.0274545
0.0230571
0.0193999
0.0163359
0.0138647
0.0120207
0.0105222
0.00931816
0.00659537
0.00680464
0.0335054
0.0473182
0.0498178
0.0505399
0.053212
0.056837
0.0594664
0.0538631
0.0362553
0.0234876
0.019561
0.0180992
0.0168643
0.0154474
0.0139
0.0123987
0.0109557
0.00966964
0.00666422
0.00736991
0.0347785
0.0496803
0.0509249
0.0487031
0.0472961
0.0560928
0.0647725
0.0627132
0.0386971
0.0127649
0.0127418
0.0128033
0.012687
0.0122631
0.0115565
0.0106903
0.0096323
0.00859235
0.00602491
0.00749138
0.0360037
0.0526521
0.0538121
0.0483346
0.0105116
0.00586036
0.00688987
0.00806318
0.00890373
0.00889324
0.00860584
0.00805402
0.00731692
0.00658101
0.00480356
0.00761127
0.0364636
0.0550189
0.0569236
0.0564926
0.00581447
0.00237599
0.00266719
0.00319643
0.00389214
0.00472375
0.00533536
0.00530935
0.00510376
0.00475397
0.00371065
0.00767606
0.0365877
0.0563297
0.0588538
0.0642063
0.00317677
0.00107433
0.00113377
0.00129947
0.00157036
0.00197576
0.00262654
0.00321936
0.00328186
0.00321675
0.00274548
0.00711275
0.0351586
0.0517948
0.0525675
0.0607868
0.00190115
0.00104145
0.00119712
0.00138734
0.00163523
0.00197726
0.0024335
0.00263605
0.00261929
0.00252608
0.00217868
0.00643124
0.0311096
0.0411508
0.0347575
0.035745
0.00915504
0.00574812
0.00351961
0.00233116
0.000565632
0.000569297
0.000820015
0.00113062
0.00145939
0.00183842
0.00229682
0.00259326
0.00260281
0.00253529
0.00219987
0.00592832
0.0270446
0.0326635
0.0222997
0.0117509
0.00594245
0.00273879
0.00134852
0.00122863
0.000662067
0.000533967
0.000598162
0.00079024
0.00111574
0.00152771
0.00201531
0.00245501
0.00258219
0.00255237
0.00229489
0.00550966
0.02317
0.0268801
0.0187259
0.0120562
0.00707306
0.0031466
0.00142291
0.00138952
0.000974114
0.000630412
0.000636109
0.000708649
0.000875735
0.00119099
0.00164854
0.00217703
0.00247589
0.00248425
0.00228627
0.00514106
0.0198514
0.0226139
0.0174992
0.0124007
0.00842233
0.00380529
0.00159895
0.00159121
0.00131556
0.000892505
0.000737618
0.000763148
0.000880271
0.00108187
0.0014164
0.00186092
0.00222456
0.00227924
0.00216924
0.00516401
0.0172503
0.0190921
0.0164482
0.0123949
0.0092552
0.00465269
0.00189011
0.00186846
0.00167342
0.00127688
0.00096906
0.000905762
0.000957254
0.00111637
0.00133134
0.00157123
0.00179834
0.00200325
0.00209379
0.006507
0.0152219
0.0161596
0.015212
0.0121334
0.00922381
0.00566045
0.00239616
0.00227269
0.00209106
0.00173429
0.00135029
0.00115831
0.00115433
0.0012201
0.00133143
0.00147034
0.0017077
0.00204569
0.00235441
0.0136203
0.0135951
0.0137932
0.0138219
0.0115577
0.00889783
0.00596245
0.00318019
0.00270329
0.0025429
0.0022418
0.00185767
0.00157973
0.00143095
0.00135767
0.00138066
0.00152259
0.00197047
0.00358412
0.00725148
0.058072
0.0123112
0.0120111
0.0124179
0.0107621
0.00830446
0.00583293
0.00363902
0.00278882
0.00271142
0.002614
0.00238012
0.00207568
0.00173604
0.0015408
0.00157022
0.00207131
0.00646972
0.0330663
0.0899952
0.314537
0.0110795
0.0105366
0.0110113
0.00972523
0.00750992
0.00547448
0.00362031
0.00274546
0.00269276
0.00267424
0.00260247
0.00241838
0.00198976
0.00183088
0.00206757
0.00641736
0.0538077
0.27481
0.6168
1.24322
0.0100693
0.00932602
0.00971201
0.00866122
0.00670387
0.00497694
0.00347133
0.00261014
0.00259298
0.00263158
0.00259294
0.00243144
0.00217357
0.00219915
0.00363395
0.0315676
0.268298
1.06529
2.14331
3.25133
0.00770726
0.00657079
0.00664791
0.00601712
0.00480615
0.00372413
0.00280562
0.00219587
0.00220757
0.0023215
0.00235596
0.00227021
0.00222193
0.00248623
0.00707046
0.0849782
0.598002
2.12946
4.20912
5.77196
0.00748115
0.00677582
0.00734479
0.00747314
0.00759943
0.0076569
0.00709203
0.00636856
0.00585583
0.00546315
0.00513391
0.00516397
0.0064935
0.0134729
0.0564671
0.306246
1.2336
3.2778
5.80821
6.70558
0.0212928
0.0255718
0.0266727
0.0273589
0.028096
0.0283103
0.0282299
0.0269215
0.0239246
0.021103
0.0183645
0.0158818
0.0138848
0.0123141
0.0110323
0.0100365
0.0090435
0.00825227
0.00644343
0.00653822
0.0256614
0.0408738
0.0439756
0.0466325
0.0494604
0.0511262
0.05198
0.0480803
0.0381484
0.0301738
0.0243177
0.0193711
0.0150578
0.0117979
0.00963461
0.00831295
0.00726385
0.00646023
0.00479474
0.00574327
0.0268474
0.0441716
0.0473023
0.0484478
0.051262
0.0528126
0.053654
0.0490879
0.0341464
0.0223946
0.0181016
0.0157696
0.0135478
0.0112848
0.00935569
0.00800896
0.00694926
0.00613748
0.00448502
0.00610208
0.0276084
0.0473853
0.0493028
0.048274
0.0432079
0.0471435
0.0540681
0.0482476
0.0260113
0.00945643
0.00950339
0.00949074
0.00911721
0.00825532
0.00715556
0.00628123
0.00547383
0.00483675
0.00363982
0.00597534
0.0281451
0.0501881
0.0521255
0.0468093
0.00361822
0.000936058
0.0020627
0.00316729
0.00408863
0.0041904
0.0040445
0.00376294
0.00335626
0.0030518
0.00250398
0.00584651
0.0280834
0.0512821
0.0529807
0.0474855
4.88065e-05
0.000205353
0.000402751
0.000665266
0.00102196
0.00142497
0.00182732
0.00202001
0.00197902
0.00193278
0.0017703
0.00560213
0.0278447
0.051637
0.053259
0.0503894
0.000146928
0.000343222
0.000438381
0.000568362
0.000721665
0.000899903
0.00112641
0.00136258
0.0014425
0.00146498
0.00142208
0.0050246
0.0265066
0.0472874
0.0481108
0.0467978
0.000447461
0.000770771
0.000903279
0.00103743
0.00121684
0.00142685
0.00150068
0.00154769
0.00154203
0.00152081
0.00143405
0.00444426
0.0235129
0.0371668
0.0324454
0.0224943
0.00236259
2.7187e-05
8.63882e-05
0.000295727
0.000307616
0.000464093
0.000666597
0.000899001
0.00114831
0.00140278
0.00174526
0.0019248
0.0018963
0.00182346
0.00160979
0.00402767
0.0207128
0.0292116
0.0210737
0.00915822
0.00122323
0.000220696
0.000270382
0.000601145
0.000421256
0.000401605
0.000468265
0.000644946
0.000914465
0.00123613
0.00161278
0.00196592
0.00218814
0.00218466
0.0019687
0.00386313
0.0180347
0.0235649
0.0173117
0.00954277
0.00253459
0.000496642
0.000417415
0.000767197
0.000604064
0.000466888
0.000487259
0.000560149
0.00071823
0.00100264
0.00138828
0.00183552
0.00215923
0.00221216
0.00208592
0.0036902
0.0156337
0.0189003
0.0153981
0.00966843
0.00391205
0.000879762
0.000578653
0.0009434
0.000837153
0.000639156
0.000565718
0.000599231
0.000723934
0.000931344
0.00124434
0.00164352
0.0020259
0.00213135
0.00202886
0.00366026
0.0137122
0.0148441
0.013517
0.00942767
0.00477939
0.00136374
0.000754914
0.00117737
0.00110982
0.000904485
0.000730947
0.000734501
0.000801404
0.000966036
0.0011908
0.00145039
0.00171895
0.00190574
0.00194592
0.00427026
0.0121961
0.0117848
0.0114929
0.00867037
0.00477896
0.00190764
0.000972335
0.00140424
0.00139667
0.00124179
0.00102342
0.000955223
0.00098213
0.00107098
0.00119619
0.0013334
0.00155409
0.00186798
0.0020711
0.0080877
0.0109535
0.00973044
0.00966174
0.00758805
0.00453003
0.00230303
0.00125224
0.00151121
0.00176639
0.00162264
0.00141622
0.00129123
0.00124295
0.00121594
0.00123891
0.00135407
0.0016754
0.00260783
0.00449693
0.0334911
0.00998748
0.00843032
0.00829506
0.00665586
0.0041128
0.0022938
0.00147998
0.00155663
0.00184257
0.00196458
0.00186167
0.00170447
0.00152706
0.00137703
0.0013835
0.00165039
0.00384034
0.0176849
0.049456
0.195664
0.00901237
0.00736263
0.00716638
0.00574088
0.0035682
0.00216933
0.00149421
0.00153762
0.00180613
0.00212609
0.00214098
0.002055
0.00178638
0.0016127
0.00172715
0.00384662
0.0281813
0.155188
0.368472
0.826465
0.00822732
0.00652024
0.00627119
0.00499023
0.00315509
0.00203008
0.00148729
0.00150097
0.00172534
0.0021019
0.00218255
0.00212236
0.00195197
0.00191997
0.00264465
0.0172272
0.152443
0.647113
1.37209
2.37096
0.00641735
0.00477825
0.0044827
0.00364407
0.00248479
0.00174031
0.00139523
0.00138397
0.00151674
0.00186228
0.00203632
0.00199947
0.00195462
0.00209825
0.00447098
0.0477469
0.361792
1.37553
3.00918
4.81007
0.00650347
0.00570861
0.0060847
0.00598109
0.00586749
0.00565617
0.00509902
0.00449701
0.00404068
0.00383951
0.00366917
0.0036441
0.00426053
0.00814406
0.0336528
0.196262
0.841822
2.44252
4.8998
6.35529
0.0166544
0.0186061
0.0191493
0.0192242
0.0193646
0.0192603
0.0190953
0.0182781
0.0166989
0.0153751
0.0139707
0.0125159
0.011223
0.010128
0.00917301
0.00840134
0.00759218
0.00693341
0.0054673
0.0056421
0.0186091
0.0326448
0.0367559
0.0396515
0.0415245
0.0414259
0.0405887
0.0368197
0.0285983
0.0215712
0.0153898
0.00949536
0.00716039
0.00602981
0.00536501
0.00500034
0.00462786
0.00430363
0.00355693
0.00483345
0.0191795
0.0371645
0.0415406
0.0426472
0.0445215
0.0437131
0.0425043
0.038638
0.0289717
0.0149496
0.0101036
0.00726683
0.00516106
0.00389103
0.00349401
0.00351102
0.00348057
0.00339849
0.00304538
0.00504177
0.0192683
0.0406976
0.0438936
0.0199142
0.0104688
0.0112196
0.0242953
0.000826681
2.37796e-05
0.000630555
0.00146748
0.00223507
0.00222548
0.00204106
0.00192184
0.00200166
0.00211891
0.00222017
0.00219405
0.00481725
0.0193309
0.0423541
0.0454906
0.00044726
1.18749e-06
2.81262e-05
9.27997e-05
0.000233557
0.000430536
0.000590117
0.000701996
0.000836973
0.000959087
0.00113507
0.00122391
0.00455431
0.0191188
0.0414402
0.0438195
0.0262359
4.12343e-05
0.00010936
0.000135713
0.000192006
0.000266695
0.000353621
0.00045721
0.00057695
0.000677414
0.000804483
0.000871545
0.00420175
0.0189205
0.040113
0.0421774
0.0271004
0.000202848
0.000357874
0.00036586
0.000384105
0.000421762
0.000474525
0.000543706
0.00063257
0.000715362
0.000818173
0.00087328
0.00369712
0.0181616
0.0359784
0.0378945
0.000608065
0.00058451
0.000804276
0.000909881
0.00101042
0.00116844
0.00125044
0.00119189
0.00110268
0.00100809
0.000998341
0.00100124
0.00319853
0.0165655
0.0274812
0.0277297
0.000133786
8.1513e-07
2.61525e-05
0.000147656
0.000453322
0.000334177
0.000477902
0.000667845
0.000871052
0.00109074
0.0012893
0.00159015
0.00165117
0.00158411
0.00147209
0.00128848
0.00290397
0.0152141
0.0205043
0.0137737
0.00059788
2.54362e-05
8.69766e-05
0.000295911
0.000689352
0.000436495
0.000367451
0.000432731
0.000605102
0.00085113
0.00113485
0.00145574
0.00176572
0.00199917
0.00198398
0.00177093
0.00293443
0.0138102
0.0146266
0.00959508
0.00145292
9.96939e-05
0.000116121
0.000305757
0.000785308
0.000592607
0.000422358
0.000440863
0.000500396
0.000637717
0.000897675
0.00124176
0.00165097
0.00198229
0.0020976
0.0019951
0.00292256
0.0123773
0.00915414
0.00721766
0.00236528
0.000291092
0.000169422
0.000325135
0.000880503
0.000772477
0.000568452
0.00049409
0.000521095
0.000630503
0.000815091
0.00110071
0.00149363
0.00189608
0.00205199
0.00196264
0.00283908
0.0111157
0.00718267
0.00530857
0.00239251
0.000523063
0.000243825
0.000362497
0.0010456
0.000972918
0.000778831
0.000621066
0.000623877
0.00068532
0.000836085
0.00106609
0.00136793
0.00168576
0.00187972
0.00185145
0.00296667
0.0100487
0.00615173
0.00408326
0.00221844
0.000680953
0.00033704
0.000417889
0.00109402
0.00117937
0.00104853
0.000856915
0.000807804
0.000833462
0.000924361
0.00108244
0.00124393
0.00143954
0.00171379
0.0018582
0.00427538
0.00911557
0.00547528
0.00364563
0.00207139
0.000771515
0.000443308
0.000490776
0.00104103
0.00147386
0.00135094
0.00117703
0.0010817
0.00106626
0.00108478
0.00112864
0.00122825
0.00144814
0.0018904
0.00248316
0.0128665
0.00836136
0.00508245
0.003634
0.00214406
0.00088108
0.000550629
0.000577469
0.000958412
0.00147679
0.00167277
0.00157091
0.00145114
0.00136237
0.0012571
0.00123573
0.00133739
0.00195451
0.00543123
0.0140243
0.0743755
0.00756687
0.00468787
0.00357816
0.0022262
0.000972305
0.000633428
0.000651946
0.000884649
0.00139374
0.00183155
0.00189278
0.00182949
0.0016636
0.00145225
0.00145991
0.00196652
0.00764517
0.0443355
0.120384
0.374072
0.00691566
0.00434278
0.00346201
0.00225867
0.00111704
0.000742673
0.000745685
0.000888239
0.00128117
0.00180207
0.00199155
0.00195998
0.00182944
0.00170464
0.00189262
0.00547044
0.0442699
0.229577
0.57406
1.35724
0.00545084
0.00354783
0.0030395
0.00220045
0.00119388
0.000801984
0.000796884
0.000897866
0.0011382
0.00159447
0.00187691
0.00185978
0.00178973
0.00181854
0.00248326
0.0142203
0.121846
0.583901
1.61404
3.53295
0.00560833
0.00479932
0.00501303
0.00481215
0.00455801
0.00423516
0.00375394
0.00323385
0.0028891
0.0028543
0.0028288
0.00275175
0.00290693
0.00430471
0.0135445
0.0792234
0.398497
1.43576
3.63912
5.65429
0.0148796
0.016218
0.0167182
0.0167665
0.0168626
0.0167898
0.0167097
0.01605
0.0147397
0.0137177
0.0125995
0.0113829
0.0102696
0.0093154
0.0084586
0.00774393
0.00698869
0.00635387
0.00497835
0.00509674
0.0161811
0.0174339
0.0194018
0.018739
0.0183001
0.016433
0.0146113
0.0122168
0.00839381
0.00653531
0.00474656
0.00344399
0.00403816
0.00420424
0.00410618
0.0040521
0.003906
0.00369719
0.00316265
0.00434825
0.0166927
0.019604
0.0216427
0.00927545
0.00898641
0.0095997
0.0101018
0.00706042
0.00421829
0.00301824
0.00228719
0.00142692
0.00136215
0.00145395
0.00173994
0.00231842
0.00268728
0.00273584
0.00264466
0.00450043
0.01673
0.0189567
0.00961684
0.000363145
0.000894372
0.00248194
0.0281524
0.000366308
4.17566e-05
1.95524e-05
8.02212e-05
0.00018322
0.000298449
0.000442595
0.000664431
0.00104785
0.00139333
0.00170637
0.00180132
0.00429125
0.0167717
0.0181207
0.00965701
0.000721499
1.10186e-06
3.16192e-05
5.77866e-05
9.62607e-05
0.000147765
0.000216513
0.000310761
0.000456446
0.000625532
0.000872245
0.000996687
0.00402065
0.0166753
0.0159138
0.0100806
0.0132683
5.15611e-05
0.000139211
0.000156843
0.000185605
0.000226245
0.000278965
0.000351319
0.000459347
0.000570527
0.000709898
0.00078055
0.00369619
0.0165918
0.0142129
0.00997004
0.0292919
0.000238296
0.000400156
0.000406096
0.000415205
0.000433863
0.000459508
0.000497222
0.000557533
0.000633443
0.000738041
0.000795828
0.00326146
0.0160095
0.0119771
0.00699069
0.000486625
0.000600892
0.000771351
0.000864956
0.000956745
0.00109072
0.00121342
0.00116403
0.0010638
0.00095013
0.000925564
0.000930258
0.00284647
0.0147264
0.00818703
0.00424874
6.10686e-05
7.11074e-07
4.12725e-05
0.000206887
0.000544147
0.000305777
0.000422649
0.000599711
0.000789405
0.000993793
0.0011776
0.00146499
0.00155751
0.00149172
0.00138007
0.0012121
0.00260644
0.0136979
0.00635237
0.00274713
2.0138e-05
2.63184e-05
0.000119175
0.000362139
0.000727587
0.00043865
0.00032764
0.00038028
0.000526885
0.000744839
0.00100873
0.00132074
0.00161558
0.00187103
0.00186397
0.00167737
0.00265062
0.0125724
0.00478932
0.00236094
8.44997e-05
4.88111e-05
0.000134731
0.000361272
0.000803275
0.000593491
0.000384497
0.000391803
0.000434833
0.000544902
0.000774321
0.00109669
0.00149304
0.00183507
0.00198396
0.00190865
0.0026609
0.0113542
0.0034521
0.00153528
0.000198043
8.21679e-05
0.000159694
0.000365156
0.000880812
0.000755204
0.000526661
0.000438028
0.000451779
0.000536716
0.000703289
0.000971455
0.00134797
0.00174952
0.00195032
0.00188966
0.002575
0.0102438
0.00414163
0.0014594
0.000319672
0.00012735
0.000194436
0.000377417
0.00102056
0.000933573
0.00072184
0.000547144
0.000540132
0.000588272
0.000723909
0.000940738
0.00124945
0.00159634
0.00181363
0.00177552
0.00256601
0.00929441
0.00436448
0.0015493
0.000465329
0.000187841
0.000239926
0.000396736
0.00107473
0.00112057
0.000976875
0.000767749
0.000709595
0.000728484
0.000803224
0.000960185
0.00115743
0.00135573
0.00157368
0.00168839
0.00315713
0.00843795
0.00421693
0.00182625
0.00068754
0.000272593
0.000304474
0.000428563
0.00101804
0.00140163
0.00126376
0.00107631
0.000975413
0.000947099
0.00096268
0.00101719
0.00111406
0.00129485
0.00161163
0.00191386
0.00678872
0.00772451
0.00412412
0.00239784
0.0010805
0.000413734
0.000401982
0.000483372
0.000913764
0.00140404
0.00157587
0.00146156
0.0013387
0.00125259
0.00116166
0.00111729
0.00117359
0.00145455
0.00248996
0.00485161
0.0318771
0.00697465
0.00394926
0.00273251
0.00143188
0.000585481
0.00050332
0.000554358
0.000811869
0.00131552
0.00172504
0.00178339
0.0017187
0.00158307
0.00135838
0.00130471
0.00146331
0.00284449
0.0129164
0.039518
0.184894
0.00634403
0.00372577
0.00276194
0.00174234
0.000836927
0.000634832
0.000655627
0.000810753
0.00119364
0.00169094
0.00190124
0.0018809
0.00176845
0.00157082
0.00161932
0.00253399
0.0131316
0.0845303
0.257318
0.836595
0.00496802
0.00316106
0.00264583
0.00182443
0.000961338
0.000703613
0.000713624
0.000820776
0.00105767
0.00149182
0.00180628
0.00180427
0.00172167
0.00167103
0.00192028
0.00506198
0.0410028
0.263205
0.915077
2.66977
0.00506397
0.00431263
0.00446176
0.00426791
0.00399112
0.00368033
0.00325387
0.00281566
0.00253899
0.00254135
0.002575
0.00250172
0.00250828
0.0031411
0.00705639
0.0342936
0.197906
0.8833
2.74851
5.02462
0.0144976
0.015811
0.0163291
0.016384
0.0164727
0.0163955
0.0163228
0.0156803
0.0143775
0.0133669
0.0122763
0.0110941
0.0100097
0.00908383
0.00824583
0.0075354
0.00679299
0.00615253
0.00478971
0.00489829
0.015773
0.0142962
0.0151759
0.0123248
0.0108857
0.00969987
0.00927298
0.00782773
0.00518033
0.00432315
0.00330731
0.00301734
0.00375181
0.00404208
0.00396134
0.00391283
0.003776
0.00356795
0.00304774
0.00419822
0.0162906
0.0151676
0.0166326
0.00643317
0.00743261
0.00745028
0.00777995
0.00535309
0.0026189
0.00172368
0.0013502
0.000963991
0.00102992
0.0012206
0.00157002
0.00217454
0.00256574
0.00262454
0.00254908
0.00435661
0.016343
0.0123669
0.00622699
0.0015257
0.00225379
2.22045e-16
0.0218191
0.000412835
3.49558e-05
1.31889e-05
4.84229e-05
0.000110464
0.000204994
0.00035067
0.00058249
0.000962746
0.00130727
0.00162609
0.00172606
0.00417079
0.0163928
0.0106952
0.00638785
9.58324e-05
2.25676e-06
3.86682e-05
6.46768e-05
0.000106089
0.000159127
0.000226377
0.000317039
0.000453636
0.000613767
0.000850791
0.000971673
0.00391664
0.0163105
0.00963522
0.00751763
0.000316294
7.15749e-05
0.000172288
0.000190326
0.000216022
0.000253585
0.000303001
0.000370527
0.000471044
0.00058109
0.000717199
0.000785541
0.00361394
0.0162285
0.0092943
0.00789618
0.0241589
0.000283143
0.000458253
0.000462347
0.000468308
0.000480679
0.00049963
0.000528785
0.000578178
0.000646219
0.000745006
0.000800709
0.00319834
0.0156373
0.00785837
0.00536511
0.000303179
0.000642457
0.000820175
0.000896021
0.000972356
0.00108132
0.00120968
0.00117484
0.00107817
0.000960108
0.000929241
0.000933091
0.00280159
0.0143827
0.00522172
0.00274662
3.97444e-05
1.49877e-06
5.68637e-05
0.000242774
0.00057807
0.000300483
0.000429307
0.0006089
0.000788672
0.000975706
0.00115413
0.00143422
0.00154594
0.00148086
0.00137141
0.00120964
0.00257675
0.0133939
0.00437826
0.00167324
1.4928e-05
3.17992e-05
0.000139695
0.000384647
0.000728956
0.000432027
0.000314841
0.000366382
0.000511575
0.000723693
0.000978658
0.00128952
0.0015736
0.0018464
0.00184888
0.00167539
0.00263033
0.012313
0.00350337
0.00147523
5.60123e-05
5.66584e-05
0.000155835
0.000389094
0.000797957
0.000583358
0.000367209
0.000374479
0.000416723
0.000523313
0.00074349
0.0010567
0.0014447
0.00179511
0.00195636
0.0018947
0.00263612
0.011133
0.00305984
0.00107013
0.000124315
9.11619e-05
0.000179184
0.000394535
0.000870111
0.000737287
0.0005036
0.000416564
0.000428948
0.000503678
0.000655829
0.000913551
0.00128689
0.00169137
0.00191511
0.00187203
0.00253959
0.0100464
0.00386294
0.00113015
0.000224151
0.000135732
0.000212575
0.000404874
0.000999709
0.000909342
0.000695548
0.00051823
0.000501831
0.000542029
0.000667545
0.000878097
0.00118751
0.00154377
0.00178137
0.00175873
0.00250644
0.00911573
0.00419972
0.00131753
0.00037168
0.000193788
0.000256718
0.00042124
0.00106987
0.00109052
0.000947582
0.000729931
0.00065182
0.000665485
0.000737637
0.000899865
0.00111502
0.00132698
0.0015339
0.00164292
0.00294959
0.00826708
0.00408035
0.00166575
0.000605601
0.000274894
0.000317768
0.000448773
0.00102016
0.00137881
0.00123565
0.00103076
0.000907563
0.000876752
0.000899104
0.000969012
0.00107529
0.00124187
0.00153449
0.0017957
0.00578024
0.0075478
0.00400315
0.0022743
0.000995311
0.000405497
0.000411879
0.000497872
0.000920991
0.0013934
0.00153127
0.00141244
0.00127659
0.00118907
0.00111705
0.00107529
0.00111736
0.00135111
0.00213301
0.00382556
0.0251713
0.00680374
0.0038443
0.00263961
0.00135003
0.000569389
0.000513018
0.0005658
0.000821984
0.00131374
0.0017174
0.0017425
0.0016698
0.00153748
0.00132691
0.00124436
0.00135445
0.00231144
0.00926303
0.0283391
0.148416
0.00616609
0.00362426
0.00267844
0.00167217
0.00081523
0.000642891
0.000664347
0.000820446
0.00119768
0.00169086
0.00188072
0.00185389
0.00174191
0.0015249
0.0015334
0.00215508
0.00941497
0.0615447
0.198246
0.712413
0.00479886
0.00307075
0.0025749
0.0017604
0.000938439
0.000710539
0.000721358
0.000829882
0.00106672
0.0015039
0.00180107
0.00179437
0.00170757
0.00162276
0.00179282
0.00394548
0.0292409
0.201863
0.749157
2.39077
0.00487872
0.00418008
0.00433713
0.00415651
0.00388919
0.00358829
0.00317524
0.00275631
0.00249411
0.0025137
0.00254307
0.00246201
0.00244241
0.00290778
0.00587623
0.026295
0.155201
0.741145
2.44809
4.72657
0.0144939
0.0158093
0.0163232
0.0163638
0.0164433
0.0163699
0.0163033
0.0156692
0.0143765
0.0133673
0.0122753
0.0110896
0.0100006
0.00906957
0.00822915
0.00751806
0.00677655
0.00613671
0.00477673
0.00488643
0.0157672
0.0142861
0.0152111
0.0122857
0.0109001
0.00963558
0.00918605
0.00777932
0.00517107
0.00432022
0.00330857
0.00295715
0.00369506
0.00397802
0.00391128
0.00387016
0.00374034
0.00353707
0.00302613
0.00417624
0.0162913
0.015122
0.0166463
0.00640646
0.00765789
0.00741084
0.00767024
0.00532311
0.0025652
0.00174281
0.0013353
0.000938632
0.00100218
0.00119069
0.00153787
0.00213628
0.00253028
0.00259287
0.00252297
0.00432542
0.0163589
0.0124258
0.00630828
0.00162849
0.00618449
0.000144917
0.0170859
0.000217684
2.81219e-05
1.27843e-05
4.59784e-05
0.000105707
0.000198498
0.000343282
0.000573628
0.000948836
0.00128745
0.00160202
0.00170365
0.0041379
0.0164162
0.0107418
0.00648238
1.5017e-06
2.37926e-06
4.07986e-05
6.70155e-05
0.000110283
0.000165974
0.000235287
0.000326315
0.000459896
0.000614115
0.000844655
0.000964327
0.00388262
0.0163317
0.00972154
0.00765961
0.00302007
8.3502e-05
0.00018508
0.000204108
0.000231034
0.000269521
0.000319356
0.00038647
0.000484522
0.000593842
0.000727546
0.000793837
0.00358448
0.0162392
0.00934263
0.00795369
0.0272449
0.000327893
0.000494084
0.00049712
0.000502473
0.000514417
0.000531579
0.000557076
0.000601983
0.000665222
0.000758475
0.000811268
0.00317011
0.0156327
0.00786744
0.00540114
0.00073788
0.000728106
0.000880513
0.0009568
0.00103029
0.00113699
0.00125839
0.00121979
0.0011168
0.000991564
0.000945085
0.000946931
0.00278076
0.0143765
0.00525447
0.00280723
5.29272e-05
2.11686e-06
6.90585e-05
0.000262842
0.000587544
0.000302946
0.000466108
0.000658046
0.000840984
0.00102855
0.00120572
0.00148813
0.00158857
0.00151902
0.00139847
0.00122526
0.00256866
0.0133874
0.00438961
0.00169519
1.40747e-05
3.43813e-05
0.000149678
0.000404913
0.000747049
0.000432799
0.000326047
0.000384258
0.000540886
0.000761727
0.00102331
0.00133585
0.00161826
0.00188292
0.00188186
0.00169658
0.00263656
0.0123114
0.00348976
0.00143447
5.32636e-05
6.00362e-05
0.000165853
0.000408988
0.000816854
0.000586938
0.000375891
0.000387694
0.000432289
0.000544036
0.000771226
0.00108995
0.00148247
0.00183143
0.00198604
0.00191958
0.00265207
0.0111362
0.00291491
0.00103911
0.000120027
9.68375e-05
0.000190041
0.000414706
0.000890188
0.000746546
0.000510491
0.000426193
0.000440728
0.000515987
0.000670178
0.000933252
0.00131393
0.00172355
0.00194302
0.00189584
0.002561
0.0100522
0.00376933
0.00110208
0.00021849
0.000143749
0.000225093
0.000426983
0.00101788
0.000924814
0.000704849
0.000524611
0.000511283
0.000552931
0.000680671
0.000892673
0.00120706
0.00156859
0.00180429
0.00177906
0.00252773
0.00912089
0.00412328
0.00129119
0.000365665
0.000204187
0.00027108
0.000445507
0.00110667
0.00110552
0.000958179
0.00073655
0.000660811
0.000675374
0.000748953
0.00091258
0.00112905
0.00134281
0.00155121
0.00166149
0.00297613
0.00827314
0.00403583
0.00164348
0.000598954
0.000286748
0.000333416
0.000473165
0.00105882
0.00139816
0.00125177
0.00104049
0.000916721
0.000886687
0.000909154
0.000979346
0.00108618
0.00125532
0.00155157
0.00181506
0.00582409
0.00755434
0.00398102
0.00225676
0.000986085
0.000416008
0.000427819
0.000521127
0.000960772
0.00142546
0.00154266
0.00142384
0.00128631
0.00119753
0.00112545
0.00108435
0.00112723
0.001364
0.00214761
0.00383707
0.0252087
0.00680947
0.00383459
0.00263084
0.00133843
0.000575886
0.000529468
0.000586828
0.000854199
0.00134953
0.00174515
0.00175345
0.00167946
0.00154571
0.00133487
0.00125128
0.00136222
0.0023184
0.00921578
0.0281151
0.147992
0.00617068
0.00361894
0.00267344
0.00166018
0.000816758
0.00065778
0.000682106
0.000845626
0.00123346
0.00172273
0.00189523
0.00186725
0.00175381
0.00153255
0.00153914
0.00215711
0.00934897
0.0608982
0.196242
0.710041
0.00480139
0.00307005
0.00257286
0.00175063
0.000939037
0.000724194
0.000737234
0.000852301
0.00109515
0.00153814
0.00181914
0.00181039
0.00172029
0.00163037
0.00179789
0.00392951
0.0289413
0.199492
0.742217
2.38414
0.00488229
0.00418284
0.00433581
0.00414664
0.0038778
0.00357246
0.00316
0.00274799
0.00249548
0.00252405
0.00254964
0.0024689
0.0024489
0.00291282
0.00587261
0.0261794
0.154163
0.736127
2.43779
4.72262
0.0148724
0.016214
0.0167095
0.0167315
0.0168064
0.0167357
0.0166656
0.0160224
0.0147209
0.0137056
0.0125903
0.0113725
0.0102531
0.00929147
0.00842971
0.00771204
0.00695488
0.00631684
0.00494408
0.00506623
0.0161687
0.0174043
0.0195318
0.018654
0.0176886
0.0156163
0.0141368
0.0119673
0.00820447
0.00640924
0.00464098
0.00347733
0.00399765
0.00411882
0.00401505
0.00396035
0.00381991
0.00361609
0.00310231
0.00428778
0.0166868
0.0194785
0.0216232
0.00938435
0.0101782
0.00965106
0.00988044
0.00694418
0.00400039
0.00295834
0.00221667
0.00136021
0.00129832
0.00138907
0.00166746
0.00222641
0.00259362
0.00264775
0.00257313
0.00441543
0.0167525
0.0190741
0.00958842
0.00111047
0.00570473
2.22045e-16
0.0187996
0.000173285
3.31952e-05
1.85568e-05
7.54108e-05
0.00016785
0.000278187
0.000422828
0.000643143
0.00101368
0.00134284
0.00164515
0.00174468
0.00420321
0.0168167
0.0187362
0.00923544
1.3135e-06
2.24347e-06
3.56046e-05
6.52413e-05
0.000108327
0.000164406
0.000237202
0.000333516
0.000473932
0.00063004
0.000861825
0.000982903
0.00393189
0.0167198
0.0167638
0.0104602
0.00679273
7.78732e-05
0.000165185
0.000183829
0.000214564
0.000257646
0.000312552
0.000385709
0.00049188
0.000603727
0.000737835
0.00080367
0.00362124
0.0166179
0.0146403
0.0101719
0.0309571
0.000324088
0.000478624
0.000477294
0.00048177
0.000496857
0.000519495
0.000553566
0.000609418
0.000678522
0.000773198
0.000824858
0.0031967
0.0160027
0.0121568
0.00699487
0.000193019
0.000741345
0.000906523
0.000991644
0.00107586
0.00120535
0.00131035
0.00125377
0.0011435
0.0010228
0.000965037
0.000964781
0.00279929
0.0147178
0.00822653
0.00409413
3.34172e-05
1.67379e-06
6.23201e-05
0.000267904
0.000638552
0.000329376
0.000502024
0.000700743
0.000898352
0.0011034
0.00128429
0.00157179
0.00164671
0.00157505
0.00144241
0.00124916
0.00258667
0.0137006
0.00639975
0.0028598
1.97008e-05
3.03605e-05
0.000139438
0.000413882
0.000809686
0.000462883
0.00035768
0.000422667
0.00059176
0.000827534
0.00110354
0.00141748
0.00170669
0.00194158
0.00192866
0.00171988
0.0026559
0.012585
0.0047041
0.00226863
8.00586e-05
5.62696e-05
0.000156479
0.000413017
0.000884763
0.000631209
0.000411012
0.00042472
0.000471646
0.000592341
0.000836911
0.00117183
0.00157323
0.00190303
0.00203228
0.00194872
0.00268127
0.0113737
0.00352196
0.00142466
0.00017992
9.35994e-05
0.000183571
0.000417334
0.000959842
0.0008064
0.000555186
0.000462783
0.000481002
0.000571216
0.000745487
0.00102372
0.00140821
0.00180717
0.00199396
0.00192649
0.00260343
0.0102655
0.00410467
0.00137611
0.000296577
0.00014295
0.000221389
0.000431613
0.0010883
0.000995518
0.000761163
0.000569209
0.000564513
0.000619135
0.000763309
0.000982167
0.00129249
0.00163682
0.00184534
0.00180404
0.00259663
0.00931525
0.00428285
0.00147781
0.000445076
0.000208962
0.000270882
0.00045253
0.00117467
0.00117704
0.00102099
0.000794539
0.000734883
0.000756825
0.000837024
0.000993614
0.00118515
0.00137891
0.00159635
0.00171422
0.00320825
0.00845783
0.00415659
0.00177077
0.000671137
0.000299324
0.000339873
0.000485417
0.00112025
0.00146632
0.00131895
0.00111065
0.00100359
0.000975161
0.000990477
0.00104244
0.00113585
0.00131651
0.00163532
0.00194004
0.0069157
0.00774144
0.00408323
0.00235097
0.00106021
0.000440284
0.00044337
0.000539818
0.0010182
0.00149701
0.00161805
0.00150077
0.00137126
0.00127956
0.00118388
0.00113635
0.00119256
0.00147467
0.00249543
0.00481386
0.0321428
0.00698564
0.00392232
0.00270049
0.00140712
0.000606466
0.000547705
0.000608799
0.000901447
0.00141999
0.00180848
0.00182522
0.00175558
0.00161169
0.00137668
0.00131749
0.00147557
0.00282471
0.0125415
0.0382813
0.184438
0.00634939
0.00370432
0.00273665
0.00171534
0.00084899
0.000676991
0.000704546
0.000876718
0.00129329
0.00178248
0.0019501
0.00192474
0.00180322
0.00158685
0.00163042
0.00251248
0.0126855
0.0812286
0.248706
0.832573
0.00496789
0.00315073
0.00263132
0.00180198
0.000970843
0.000742983
0.000758423
0.00088137
0.00113307
0.00158133
0.00186078
0.00185197
0.00175672
0.00169197
0.00193067
0.00492789
0.0391718
0.252005
0.888067
2.65718
0.00506506
0.00430347
0.00444178
0.00423292
0.00395306
0.00363729
0.0032161
0.00279688
0.00254249
0.00257254
0.00260315
0.00253165
0.00253563
0.0031632
0.0069941
0.0332522
0.191036
0.858484
2.70639
5.01478