/*--------------------------------*- C++ -*----------------------------------*\
  =========                 |
  \\      /  F ield         | OpenFOAM: The Open Source CFD Toolbox
   \\    /   O peration     | Website:  https://openfoam.org
    \\  /    A nd           | Version:  9
     \\/     M anipulation  |
\*---------------------------------------------------------------------------*/
FoamFile
{
    format      ascii;
    class       volScalarField;
    location    "0.0025";
    object      rhoE;
}
// * * * * * * * * * * * * * * * * * * * * * * * * * * * * * * * * * * * * * //

dimensions      [1 -1 -2 0 0 0 0];

internalField   nonuniform List<scalar> 
9720
(
1.58574e+08
1.72212e+08
1.83424e+08
1.93042e+08
2.0794e+08
2.18496e+08
2.29676e+08
2.28448e+08
2.0691e+08
1.82028e+08
1.57028e+08
1.36616e+08
1.21737e+08
1.11199e+08
1.03693e+08
9.76804e+07
9.29073e+07
8.84134e+07
8.51787e+07
7.95513e+07
1.72034e+08
1.85454e+08
1.95337e+08
2.0274e+08
2.20799e+08
2.37645e+08
2.52111e+08
2.40469e+08
1.97541e+08
1.51439e+08
1.22071e+08
1.05556e+08
9.61142e+07
8.99557e+07
8.54341e+07
8.16239e+07
7.83195e+07
7.5366e+07
7.30775e+07
6.92549e+07
1.82961e+08
1.94851e+08
2.02622e+08
2.04651e+08
2.23249e+08
2.46412e+08
2.6561e+08
2.45031e+08
1.73394e+08
1.15516e+08
9.47587e+07
8.78781e+07
8.52845e+07
8.37005e+07
8.21521e+07
8.04322e+07
7.83612e+07
7.61497e+07
7.41544e+07
7.06533e+07
1.92828e+08
2.0262e+08
2.04842e+08
2.02612e+08
2.02038e+08
2.39875e+08
2.83828e+08
2.82418e+08
1.80454e+08
6.52383e+07
6.54573e+07
6.79834e+07
7.06315e+07
7.24985e+07
7.34918e+07
7.40947e+07
7.35755e+07
7.26276e+07
7.1471e+07
6.8366e+07
2.0772e+08
2.21108e+08
2.24131e+08
2.0389e+08
4.87259e+07
4.26948e+07
4.84675e+07
5.69918e+07
6.44011e+07
6.71908e+07
6.87208e+07
6.8884e+07
6.79965e+07
6.66527e+07
6.55874e+07
6.29027e+07
2.17904e+08
2.37355e+08
2.4641e+08
2.40884e+08
4.8453e+07
5.45129e+07
5.6665e+07
6.03248e+07
6.63975e+07
6.94345e+07
7.10362e+07
7.11014e+07
6.97645e+07
6.73639e+07
6.5385e+07
6.14056e+07
2.28229e+08
2.50041e+08
2.62884e+08
2.8179e+08
6.39375e+07
6.8452e+07
6.85122e+07
6.95016e+07
7.22973e+07
7.426e+07
7.47682e+07
7.39422e+07
7.17476e+07
6.82019e+07
6.5057e+07
5.96689e+07
2.26542e+08
2.36736e+08
2.39317e+08
2.73567e+08
7.45148e+07
7.55275e+07
7.68479e+07
7.80896e+07
8.0412e+07
8.20937e+07
8.19602e+07
8.06373e+07
7.76026e+07
7.25327e+07
6.77867e+07
5.94743e+07
2.04764e+08
1.93727e+08
1.68037e+08
1.68475e+08
4.51445e+07
5.04344e+07
6.59916e+07
7.67514e+07
3.08434e+07
4.17731e+07
5.60784e+07
6.69672e+07
7.49083e+07
8.09904e+07
8.46229e+07
8.4433e+07
8.25667e+07
7.80545e+07
7.25819e+07
6.16566e+07
1.79925e+08
1.4862e+08
1.12724e+08
6.45522e+07
4.37766e+07
5.55061e+07
6.97736e+07
7.7057e+07
4.54215e+07
2.70151e+07
3.18791e+07
4.348e+07
5.61386e+07
6.75092e+07
7.74041e+07
8.30547e+07
8.34091e+07
8.11563e+07
7.61157e+07
6.43892e+07
1.55302e+08
1.2022e+08
9.33138e+07
6.52555e+07
4.94135e+07
5.78034e+07
7.0031e+07
7.84141e+07
6.0256e+07
3.40732e+07
2.63248e+07
2.93509e+07
3.77864e+07
4.97803e+07
6.33923e+07
7.48508e+07
7.93636e+07
7.9309e+07
7.65754e+07
6.64218e+07
1.35321e+08
1.04322e+08
8.69857e+07
6.76992e+07
5.74643e+07
6.13815e+07
7.09686e+07
7.97119e+07
7.05194e+07
4.74626e+07
3.09163e+07
2.9983e+07
3.2068e+07
3.90235e+07
5.09983e+07
6.37406e+07
7.1158e+07
7.21477e+07
7.13926e+07
6.57751e+07
1.20762e+08
9.51974e+07
8.45995e+07
7.02384e+07
6.4213e+07
6.7044e+07
7.34927e+07
8.18669e+07
7.81858e+07
6.05197e+07
4.1026e+07
3.31746e+07
3.35433e+07
3.66074e+07
4.28065e+07
5.10592e+07
5.70851e+07
5.96203e+07
6.34259e+07
6.73903e+07
1.10417e+08
8.91939e+07
8.31057e+07
7.2049e+07
6.68718e+07
6.98065e+07
7.51116e+07
8.29596e+07
8.39045e+07
7.19996e+07
5.40934e+07
4.185e+07
3.81001e+07
3.70719e+07
3.76865e+07
4.09973e+07
4.74426e+07
5.5499e+07
6.3002e+07
7.13294e+07
1.03034e+08
8.47664e+07
8.16049e+07
7.30214e+07
6.83222e+07
7.13172e+07
7.56166e+07
8.28292e+07
8.6331e+07
8.1383e+07
6.82572e+07
5.51788e+07
4.58907e+07
3.86112e+07
3.83425e+07
4.181e+07
4.78686e+07
5.51682e+07
6.49102e+07
8.48417e+07
9.71097e+07
8.10113e+07
7.98849e+07
7.35638e+07
6.84799e+07
7.12313e+07
7.47918e+07
8.13456e+07
8.58228e+07
8.55272e+07
7.87982e+07
6.82391e+07
5.53925e+07
4.29303e+07
4.24842e+07
4.49484e+07
5.22986e+07
6.4435e+07
8.13108e+07
1.00813e+08
9.2408e+07
7.77531e+07
7.78117e+07
7.29945e+07
6.76083e+07
6.96789e+07
7.25298e+07
7.81238e+07
8.3445e+07
8.54017e+07
8.20501e+07
7.46536e+07
6.13903e+07
5.00128e+07
4.96179e+07
5.30954e+07
6.52419e+07
7.48235e+07
8.5516e+07
9.32116e+07
8.79776e+07
7.48462e+07
7.5614e+07
7.20341e+07
6.62677e+07
6.70701e+07
6.88752e+07
7.29087e+07
7.86704e+07
8.23781e+07
8.15159e+07
7.53995e+07
6.35946e+07
5.87325e+07
5.76575e+07
6.598e+07
7.58193e+07
7.16851e+07
6.69708e+07
6.92849e+07
8.47952e+07
7.26102e+07
7.36634e+07
7.0916e+07
6.52242e+07
6.49912e+07
6.56318e+07
6.81266e+07
7.28803e+07
7.6904e+07
7.81568e+07
7.41767e+07
6.70271e+07
6.64581e+07
6.78621e+07
8.38482e+07
8.7641e+07
6.80081e+07
5.90104e+07
7.00131e+07
7.9259e+07
6.88952e+07
7.02787e+07
6.79509e+07
6.26097e+07
6.10128e+07
6.00565e+07
5.97957e+07
6.18508e+07
6.47912e+07
6.72572e+07
6.76445e+07
6.98685e+07
7.40278e+07
8.78365e+07
1.03822e+08
9.5632e+07
7.02991e+07
7.02924e+07
8.02863e+07
1.47881e+08
1.59407e+08
1.69708e+08
1.78406e+08
1.92324e+08
2.01475e+08
2.1074e+08
2.07545e+08
1.86884e+08
1.63408e+08
1.40494e+08
1.21979e+08
1.086e+08
9.92806e+07
9.27823e+07
8.78318e+07
8.38076e+07
8.02482e+07
7.79319e+07
7.39305e+07
1.59253e+08
1.70458e+08
1.79697e+08
1.85873e+08
2.03403e+08
2.1914e+08
2.31238e+08
2.18081e+08
1.77574e+08
1.34883e+08
1.08281e+08
9.38405e+07
8.5744e+07
8.05405e+07
7.67239e+07
7.37527e+07
7.10318e+07
6.86823e+07
6.71521e+07
6.4643e+07
1.69358e+08
1.79431e+08
1.8651e+08
1.87399e+08
2.0625e+08
2.30002e+08
2.45935e+08
2.24315e+08
1.57848e+08
1.0306e+08
8.39063e+07
7.81895e+07
7.64823e+07
7.56001e+07
7.46081e+07
7.3521e+07
7.1977e+07
7.03581e+07
6.90006e+07
6.65554e+07
1.78123e+08
1.86119e+08
1.88542e+08
1.87605e+08
1.86862e+08
2.26938e+08
2.6715e+08
2.61636e+08
1.68909e+08
5.9141e+07
5.79762e+07
6.05515e+07
6.34187e+07
6.56997e+07
6.69302e+07
6.77497e+07
6.74684e+07
6.69019e+07
6.63334e+07
6.42101e+07
1.91499e+08
2.02542e+08
2.05413e+08
1.82962e+08
4.42385e+07
4.10123e+07
4.52376e+07
5.17975e+07
5.92313e+07
6.21886e+07
6.4056e+07
6.45661e+07
6.38075e+07
6.27145e+07
6.19504e+07
5.96513e+07
2.00182e+08
2.17635e+08
2.28107e+08
2.25487e+08
4.70978e+07
5.3261e+07
5.45312e+07
5.68707e+07
6.16899e+07
6.54646e+07
6.7117e+07
6.75372e+07
6.65027e+07
6.45658e+07
6.28646e+07
5.91612e+07
2.08999e+08
2.29072e+08
2.43555e+08
2.65545e+08
6.24056e+07
6.70744e+07
6.67862e+07
6.69787e+07
6.84529e+07
7.08441e+07
7.15597e+07
7.13514e+07
6.98095e+07
6.70609e+07
6.42249e+07
5.87158e+07
2.06051e+08
2.15806e+08
2.2109e+08
2.57242e+08
7.4413e+07
7.44565e+07
7.55064e+07
7.60944e+07
7.7275e+07
7.9038e+07
7.9082e+07
7.84438e+07
7.63805e+07
7.2425e+07
6.79729e+07
5.97112e+07
1.85251e+08
1.74569e+08
1.53813e+08
1.6106e+08
4.24587e+07
4.60999e+07
6.18067e+07
7.47354e+07
2.91895e+07
3.93846e+07
5.35045e+07
6.41946e+07
7.17182e+07
7.73152e+07
8.14844e+07
8.20017e+07
8.10279e+07
7.78652e+07
7.31847e+07
6.25574e+07
1.61585e+08
1.32201e+08
1.00266e+08
5.78781e+07
3.95518e+07
5.13772e+07
6.62697e+07
7.4846e+07
4.25336e+07
2.44946e+07
2.91939e+07
4.05563e+07
5.28257e+07
6.34787e+07
7.33574e+07
8.03481e+07
8.15417e+07
8.05209e+07
7.66564e+07
6.55422e+07
1.3883e+08
1.06093e+08
8.16629e+07
5.63702e+07
4.37091e+07
5.27893e+07
6.61855e+07
7.5666e+07
5.67353e+07
3.08341e+07
2.33467e+07
2.5994e+07
3.41509e+07
4.59669e+07
5.9401e+07
7.14803e+07
7.76659e+07
7.83006e+07
7.65127e+07
6.70667e+07
1.20592e+08
9.20794e+07
7.63232e+07
5.90191e+07
5.03854e+07
5.54769e+07
6.6615e+07
7.62858e+07
6.68761e+07
4.37498e+07
2.71837e+07
2.64674e+07
2.88765e+07
3.59091e+07
4.75773e+07
5.99284e+07
6.92445e+07
7.12302e+07
7.09838e+07
6.51899e+07
1.07459e+08
8.42843e+07
7.49012e+07
6.20031e+07
5.78926e+07
6.0584e+07
6.81974e+07
7.76406e+07
7.41472e+07
5.65758e+07
3.68637e+07
2.9902e+07
3.05388e+07
3.39636e+07
4.0257e+07
4.82209e+07
5.59826e+07
5.86177e+07
6.05451e+07
6.39769e+07
9.83277e+07
7.93196e+07
7.42665e+07
6.44419e+07
6.09317e+07
6.45409e+07
7.05403e+07
7.93077e+07
7.95129e+07
6.73629e+07
4.96921e+07
3.83981e+07
3.52829e+07
3.4824e+07
3.53727e+07
3.78928e+07
4.3359e+07
5.03683e+07
5.86429e+07
6.73053e+07
9.19786e+07
7.56997e+07
7.34793e+07
6.58882e+07
6.28399e+07
6.62769e+07
7.12642e+07
7.91702e+07
8.29129e+07
7.68059e+07
6.36604e+07
5.13723e+07
4.32474e+07
3.65387e+07
3.4774e+07
3.73203e+07
4.31823e+07
5.04416e+07
5.96269e+07
7.81874e+07
8.71494e+07
7.28808e+07
7.25376e+07
6.68696e+07
6.3414e+07
6.67131e+07
7.11121e+07
7.84241e+07
8.27151e+07
8.25632e+07
7.52592e+07
6.43474e+07
5.25277e+07
4.02372e+07
3.78846e+07
4.02888e+07
4.63916e+07
5.73761e+07
7.34711e+07
9.57548e+07
8.32052e+07
7.02607e+07
7.10815e+07
6.67018e+07
6.27963e+07
6.56169e+07
6.94963e+07
7.6141e+07
8.14318e+07
8.30163e+07
8.015e+07
7.26874e+07
6.02031e+07
4.61658e+07
4.49991e+07
4.72574e+07
5.81818e+07
6.94341e+07
8.28358e+07
9.61573e+07
7.96732e+07
6.79569e+07
6.95131e+07
6.61905e+07
6.18142e+07
6.36433e+07
6.67458e+07
7.1999e+07
7.80019e+07
8.15386e+07
8.03891e+07
7.41736e+07
6.2241e+07
5.35501e+07
5.30264e+07
5.90965e+07
7.03637e+07
7.26166e+07
7.30941e+07
7.5231e+07
7.73723e+07
6.64525e+07
6.82142e+07
6.56554e+07
6.11197e+07
6.194e+07
6.3965e+07
6.75205e+07
7.30488e+07
7.72461e+07
7.80349e+07
7.36905e+07
6.39251e+07
6.21463e+07
6.27268e+07
7.6312e+07
8.4865e+07
7.36053e+07
6.17428e+07
6.63631e+07
7.34008e+07
6.39944e+07
6.58847e+07
6.36305e+07
5.89701e+07
5.83243e+07
5.84715e+07
5.93462e+07
6.22746e+07
6.5797e+07
6.79735e+07
6.72321e+07
6.68532e+07
7.03665e+07
8.16001e+07
9.89484e+07
9.7847e+07
7.50232e+07
6.63707e+07
7.64119e+07
1.4329e+08
1.54209e+08
1.64042e+08
1.72457e+08
1.86498e+08
1.94835e+08
2.02687e+08
1.98409e+08
1.77564e+08
1.54412e+08
1.32513e+08
1.1502e+08
1.02395e+08
9.3611e+07
8.74676e+07
8.28932e+07
7.91329e+07
7.58546e+07
7.36423e+07
6.9855e+07
1.54067e+08
1.64382e+08
1.72906e+08
1.78352e+08
1.96121e+08
2.1152e+08
2.21978e+08
2.07901e+08
1.67741e+08
1.26351e+08
1.015e+08
8.85859e+07
8.13355e+07
7.66181e+07
7.30325e+07
7.03985e+07
6.79603e+07
6.57935e+07
6.43385e+07
6.18832e+07
1.63693e+08
1.72693e+08
1.7854e+08
1.7888e+08
1.97788e+08
2.2179e+08
2.35738e+08
2.1302e+08
1.48451e+08
9.56996e+07
7.83677e+07
7.36673e+07
7.26342e+07
7.22108e+07
7.14652e+07
7.06982e+07
6.93561e+07
6.78346e+07
6.64915e+07
6.3947e+07
1.71818e+08
1.77763e+08
1.78379e+08
1.72822e+08
1.74522e+08
2.19226e+08
2.57381e+08
2.46531e+08
1.55263e+08
5.43696e+07
5.50452e+07
5.77103e+07
6.04473e+07
6.26448e+07
6.37488e+07
6.44599e+07
6.42286e+07
6.36957e+07
6.32624e+07
6.15055e+07
1.84725e+08
1.93258e+08
1.9414e+08
1.6761e+08
3.84219e+07
3.87526e+07
4.31284e+07
4.93317e+07
5.7107e+07
6.09849e+07
6.28401e+07
6.35099e+07
6.27244e+07
6.13516e+07
6.03672e+07
5.80052e+07
1.92465e+08
2.08108e+08
2.17213e+08
2.13607e+08
4.68533e+07
5.10913e+07
5.23389e+07
5.49993e+07
5.97731e+07
6.49773e+07
6.67565e+07
6.74766e+07
6.6463e+07
6.43065e+07
6.22656e+07
5.83475e+07
2.00492e+08
2.19003e+08
2.32315e+08
2.52661e+08
6.10541e+07
6.42418e+07
6.41865e+07
6.47749e+07
6.65986e+07
6.99896e+07
7.14157e+07
7.15709e+07
7.03364e+07
6.75693e+07
6.43592e+07
5.83888e+07
1.96807e+08
2.06335e+08
2.11764e+08
2.45745e+08
7.26208e+07
7.04368e+07
7.1916e+07
7.3039e+07
7.47174e+07
7.7563e+07
7.87872e+07
7.83889e+07
7.68523e+07
7.33558e+07
6.868e+07
6.00685e+07
1.76372e+08
1.666e+08
1.4776e+08
1.53337e+08
3.8505e+07
4.4277e+07
5.97013e+07
7.27528e+07
2.55883e+07
3.60706e+07
4.97724e+07
6.01816e+07
6.80438e+07
7.43812e+07
7.96918e+07
8.15771e+07
8.09314e+07
7.82601e+07
7.38404e+07
6.32265e+07
1.53282e+08
1.24937e+08
9.4385e+07
5.29299e+07
3.66393e+07
4.95137e+07
6.40242e+07
7.09349e+07
3.70807e+07
2.14974e+07
2.61193e+07
3.71706e+07
4.93823e+07
6.02085e+07
7.03698e+07
7.85866e+07
8.08532e+07
8.02337e+07
7.70931e+07
6.63024e+07
1.31375e+08
9.98126e+07
7.6428e+07
5.26488e+07
4.06111e+07
5.05821e+07
6.39597e+07
7.22102e+07
5.12508e+07
2.68988e+07
2.04161e+07
2.29174e+07
3.1103e+07
4.2744e+07
5.57296e+07
6.82087e+07
7.63081e+07
7.76783e+07
7.6434e+07
6.74145e+07
1.13973e+08
8.69365e+07
7.16251e+07
5.51758e+07
4.67078e+07
5.31568e+07
6.43507e+07
7.31072e+07
6.15572e+07
3.87721e+07
2.35071e+07
2.3125e+07
2.56807e+07
3.24556e+07
4.34752e+07
5.6258e+07
6.75373e+07
7.08497e+07
7.07035e+07
6.4882e+07
1.01491e+08
7.98519e+07
7.07504e+07
5.84804e+07
5.45851e+07
5.77964e+07
6.58023e+07
7.45167e+07
6.90142e+07
5.12737e+07
3.26073e+07
2.63042e+07
2.70727e+07
3.04534e+07
3.71471e+07
4.60191e+07
5.54448e+07
5.86615e+07
5.91471e+07
6.06272e+07
9.2831e+07
7.53464e+07
7.05613e+07
6.10001e+07
5.90607e+07
6.30765e+07
6.87272e+07
7.69704e+07
7.50395e+07
6.20735e+07
4.48471e+07
3.41307e+07
3.13028e+07
3.19094e+07
3.3529e+07
3.63647e+07
4.11602e+07
4.6391e+07
5.35508e+07
6.22248e+07
8.67948e+07
7.19685e+07
7.0085e+07
6.257e+07
6.11995e+07
6.50544e+07
7.00475e+07
7.77267e+07
7.99889e+07
7.20282e+07
5.80335e+07
4.58814e+07
3.8968e+07
3.43552e+07
3.21685e+07
3.33634e+07
3.8545e+07
4.55945e+07
5.34724e+07
6.9258e+07
8.22978e+07
6.94796e+07
6.95215e+07
6.35851e+07
6.21554e+07
6.60489e+07
7.03469e+07
7.73331e+07
8.1152e+07
7.95478e+07
7.02248e+07
5.8768e+07
4.85085e+07
3.80689e+07
3.37541e+07
3.56003e+07
4.03471e+07
4.97618e+07
6.41719e+07
8.97336e+07
7.85939e+07
6.71556e+07
6.83269e+07
6.35495e+07
6.16135e+07
6.52956e+07
6.93519e+07
7.5765e+07
8.03213e+07
8.11086e+07
7.76139e+07
6.96713e+07
5.8159e+07
4.33501e+07
3.95535e+07
4.10137e+07
4.99463e+07
6.52035e+07
8.24296e+07
1.04314e+08
7.5343e+07
6.50574e+07
6.69007e+07
6.31368e+07
6.03855e+07
6.32266e+07
6.68367e+07
7.22796e+07
7.75457e+07
8.02653e+07
7.85989e+07
7.25554e+07
6.08806e+07
4.8497e+07
4.73941e+07
5.1214e+07
6.59434e+07
7.69045e+07
8.67719e+07
9.27811e+07
7.31398e+07
6.3642e+07
6.56339e+07
6.27614e+07
5.94546e+07
6.12019e+07
6.38598e+07
6.77878e+07
7.30574e+07
7.68765e+07
7.71819e+07
7.22593e+07
6.13108e+07
5.58735e+07
5.57385e+07
6.65757e+07
8.39373e+07
8.69587e+07
7.86071e+07
7.25276e+07
6.9368e+07
6.12309e+07
6.31821e+07
6.10322e+07
5.71646e+07
5.73115e+07
5.80198e+07
5.93848e+07
6.24682e+07
6.60237e+07
6.77706e+07
6.60015e+07
6.26527e+07
6.46146e+07
7.22393e+07
9.27734e+07
1.05681e+08
9.18246e+07
7.18606e+07
7.19781e+07
1.3868e+08
1.49357e+08
1.58936e+08
1.67527e+08
1.81261e+08
1.8891e+08
1.96421e+08
1.91212e+08
1.7007e+08
1.47108e+08
1.25679e+08
1.08785e+08
9.68192e+07
8.86824e+07
8.30224e+07
7.875e+07
7.5175e+07
7.19262e+07
6.94455e+07
6.5447e+07
1.49257e+08
1.59298e+08
1.67262e+08
1.72253e+08
1.89786e+08
2.05026e+08
2.15081e+08
2.00336e+08
1.60637e+08
1.20098e+08
9.61768e+07
8.38376e+07
7.71313e+07
7.29748e+07
6.98648e+07
6.76051e+07
6.5399e+07
6.32687e+07
6.15481e+07
5.86539e+07
1.5876e+08
1.67418e+08
1.72944e+08
1.7268e+08
1.90728e+08
2.1487e+08
2.28432e+08
2.05247e+08
1.41356e+08
8.98766e+07
7.38986e+07
6.95761e+07
6.88994e+07
6.88558e+07
6.85502e+07
6.82547e+07
6.7223e+07
6.5773e+07
6.42184e+07
6.11421e+07
1.66308e+08
1.71208e+08
1.71334e+08
1.60755e+08
1.6358e+08
2.1177e+08
2.48483e+08
2.36597e+08
1.4411e+08
4.97714e+07
5.1111e+07
5.43626e+07
5.73394e+07
5.95568e+07
6.08933e+07
6.189e+07
6.1923e+07
6.1521e+07
6.10477e+07
5.90935e+07
1.78562e+08
1.86126e+08
1.866e+08
1.59963e+08
3.53237e+07
3.6883e+07
4.07652e+07
4.64125e+07
5.38449e+07
5.92012e+07
6.13158e+07
6.24112e+07
6.2003e+07
6.07288e+07
5.94899e+07
5.64745e+07
1.86094e+08
2.0093e+08
2.09791e+08
2.05691e+08
4.45365e+07
5.07584e+07
5.16493e+07
5.40207e+07
5.80517e+07
6.36785e+07
6.57229e+07
6.66723e+07
6.61882e+07
6.4233e+07
6.18664e+07
5.7242e+07
1.93703e+08
2.11241e+08
2.23794e+08
2.42265e+08
5.91566e+07
6.35124e+07
6.33719e+07
6.35542e+07
6.48435e+07
6.77222e+07
6.97719e+07
7.00031e+07
6.91947e+07
6.67214e+07
6.34819e+07
5.71994e+07
1.89782e+08
1.98528e+08
2.03425e+08
2.34439e+08
6.85334e+07
6.73977e+07
6.90253e+07
7.01326e+07
7.14755e+07
7.4053e+07
7.61029e+07
7.56749e+07
7.46144e+07
7.17007e+07
6.73827e+07
5.89406e+07
1.69574e+08
1.60186e+08
1.41697e+08
1.47145e+08
3.7134e+07
4.30782e+07
5.85758e+07
6.90801e+07
2.2493e+07
3.17499e+07
4.51302e+07
5.51757e+07
6.26522e+07
6.88706e+07
7.46304e+07
7.77934e+07
7.7589e+07
7.54843e+07
7.15736e+07
6.18992e+07
1.47028e+08
1.20071e+08
9.04133e+07
5.03142e+07
3.6014e+07
4.95717e+07
6.32717e+07
6.78795e+07
3.43199e+07
1.90063e+07
2.28161e+07
3.24009e+07
4.37062e+07
5.43257e+07
6.41916e+07
7.29506e+07
7.66142e+07
7.63114e+07
7.39842e+07
6.47114e+07
1.25731e+08
9.58906e+07
7.34712e+07
5.04966e+07
3.96335e+07
5.0504e+07
6.31463e+07
6.91567e+07
4.7911e+07
2.40112e+07
1.77439e+07
1.98238e+07
2.71467e+07
3.79138e+07
5.00549e+07
6.19849e+07
7.08506e+07
7.32047e+07
7.26529e+07
6.566e+07
1.08849e+08
8.33685e+07
6.87001e+07
5.28784e+07
4.4987e+07
5.28821e+07
6.32759e+07
7.00372e+07
5.72848e+07
3.47986e+07
2.05694e+07
2.02432e+07
2.27399e+07
2.88292e+07
3.8865e+07
5.05535e+07
6.19859e+07
6.69516e+07
6.74642e+07
6.33709e+07
9.68122e+07
7.65367e+07
6.7876e+07
5.59233e+07
5.21803e+07
5.67805e+07
6.44037e+07
7.12304e+07
6.40637e+07
4.6131e+07
2.87943e+07
2.33518e+07
2.40801e+07
2.69999e+07
3.30636e+07
4.17401e+07
5.18562e+07
5.63811e+07
5.70027e+07
5.73277e+07
8.85589e+07
7.23063e+07
6.78136e+07
5.82706e+07
5.74679e+07
6.207e+07
6.69441e+07
7.36165e+07
6.98689e+07
5.63611e+07
4.00823e+07
3.04666e+07
2.77405e+07
2.82724e+07
3.05787e+07
3.42495e+07
3.91544e+07
4.30627e+07
4.88425e+07
5.81346e+07
8.27879e+07
6.91517e+07
6.75133e+07
5.97486e+07
5.96424e+07
6.40638e+07
6.87041e+07
7.49725e+07
7.51779e+07
6.59406e+07
5.2388e+07
4.10736e+07
3.45931e+07
3.12514e+07
2.98311e+07
3.0292e+07
3.44646e+07
4.16334e+07
4.93171e+07
6.22762e+07
7.84241e+07
6.68433e+07
6.71943e+07
6.08174e+07
6.08143e+07
6.50334e+07
6.90141e+07
7.45687e+07
7.70966e+07
7.40349e+07
6.41494e+07
5.3004e+07
4.37882e+07
3.53965e+07
3.0637e+07
3.18752e+07
3.62687e+07
4.36665e+07
5.4365e+07
7.78449e+07
7.47505e+07
6.46008e+07
6.6148e+07
6.09506e+07
6.05153e+07
6.46101e+07
6.83287e+07
7.34237e+07
7.66364e+07
7.64901e+07
7.21448e+07
6.40356e+07
5.37992e+07
4.04331e+07
3.52415e+07
3.67337e+07
4.24238e+07
5.52783e+07
7.18055e+07
9.77213e+07
7.14392e+07
6.24556e+07
6.46868e+07
6.0649e+07
5.93783e+07
6.26749e+07
6.60377e+07
7.04896e+07
7.42943e+07
7.5912e+07
7.36979e+07
6.81477e+07
5.77524e+07
4.44431e+07
4.2917e+07
4.47521e+07
5.60222e+07
6.99161e+07
8.56054e+07
9.77613e+07
6.89248e+07
6.07451e+07
6.3179e+07
6.02372e+07
5.82033e+07
6.0366e+07
6.29269e+07
6.63007e+07
7.03629e+07
7.31831e+07
7.28246e+07
6.83535e+07
5.81922e+07
5.04938e+07
5.09446e+07
5.63197e+07
7.3415e+07
8.62663e+07
8.712e+07
7.72902e+07
6.49291e+07
5.79104e+07
6.01963e+07
5.83084e+07
5.5342e+07
5.58985e+07
5.6686e+07
5.80944e+07
6.07289e+07
6.36682e+07
6.51607e+07
6.36299e+07
5.83745e+07
5.96758e+07
6.44586e+07
8.07945e+07
9.9951e+07
9.78447e+07
7.68324e+07
6.85974e+07
1.36785e+08
1.47506e+08
1.5701e+08
1.6518e+08
1.78313e+08
1.85631e+08
1.93174e+08
1.87931e+08
1.66629e+08
1.43608e+08
1.2248e+08
1.05933e+08
9.42425e+07
8.63498e+07
8.08485e+07
7.65644e+07
7.30204e+07
6.97172e+07
6.70784e+07
6.31342e+07
1.47123e+08
1.56874e+08
1.64751e+08
1.69225e+08
1.86453e+08
2.01319e+08
2.11533e+08
1.97231e+08
1.57304e+08
1.16765e+08
9.33228e+07
8.13318e+07
7.49175e+07
7.10687e+07
6.82282e+07
6.60271e+07
6.38583e+07
6.16829e+07
5.97723e+07
5.68092e+07
1.56165e+08
1.64231e+08
1.6978e+08
1.69166e+08
1.8732e+08
2.11204e+08
2.24827e+08
2.02511e+08
1.38308e+08
8.6546e+07
7.10772e+07
6.70315e+07
6.66993e+07
6.70006e+07
6.70442e+07
6.68944e+07
6.59182e+07
6.44244e+07
6.26409e+07
5.93666e+07
1.63954e+08
1.67868e+08
1.6812e+08
1.54871e+08
1.59724e+08
2.07997e+08
2.43807e+08
2.33196e+08
1.41824e+08
4.74383e+07
4.88117e+07
5.19974e+07
5.55613e+07
5.79231e+07
5.9575e+07
6.07701e+07
6.0953e+07
6.05354e+07
5.98355e+07
5.76707e+07
1.76107e+08
1.83131e+08
1.83455e+08
1.5522e+08
3.59633e+07
3.66435e+07
3.98674e+07
4.50616e+07
5.22652e+07
5.85061e+07
6.08229e+07
6.21767e+07
6.18856e+07
6.0416e+07
5.88334e+07
5.55077e+07
1.83514e+08
1.98237e+08
2.07247e+08
2.03128e+08
4.55175e+07
5.12854e+07
5.21496e+07
5.46266e+07
5.84711e+07
6.41234e+07
6.63143e+07
6.71092e+07
6.65599e+07
6.43889e+07
6.16255e+07
5.66109e+07
1.90743e+08
2.08137e+08
2.20813e+08
2.38838e+08
5.99698e+07
6.37024e+07
6.36057e+07
6.38403e+07
6.51865e+07
6.81222e+07
7.00328e+07
7.00851e+07
6.91654e+07
6.65392e+07
6.30914e+07
5.67679e+07
1.86443e+08
1.94974e+08
1.99659e+08
2.29119e+08
6.93515e+07
6.71584e+07
6.86176e+07
6.95936e+07
7.08416e+07
7.32233e+07
7.55428e+07
7.49219e+07
7.39012e+07
7.09626e+07
6.66828e+07
5.85478e+07
1.6617e+08
1.56492e+08
1.37745e+08
1.41215e+08
3.54343e+07
4.42707e+07
5.89286e+07
6.87391e+07
2.23168e+07
3.10594e+07
4.41553e+07
5.39528e+07
6.12312e+07
6.72702e+07
7.31728e+07
7.63334e+07
7.6154e+07
7.43153e+07
7.06356e+07
6.15858e+07
1.43835e+08
1.17094e+08
8.75123e+07
4.8156e+07
3.61322e+07
5.02923e+07
6.31471e+07
6.71261e+07
3.37193e+07
1.8393e+07
2.18268e+07
3.09894e+07
4.19715e+07
5.24981e+07
6.20967e+07
7.04884e+07
7.48387e+07
7.47652e+07
7.28322e+07
6.44516e+07
1.2305e+08
9.39076e+07
7.19812e+07
4.94995e+07
3.95966e+07
5.12427e+07
6.30519e+07
6.82663e+07
4.68487e+07
2.29443e+07
1.67892e+07
1.87316e+07
2.583e+07
3.62989e+07
4.77985e+07
5.9115e+07
6.8388e+07
7.14847e+07
7.1275e+07
6.54503e+07
1.06603e+08
8.18531e+07
6.75536e+07
5.23922e+07
4.48217e+07
5.37172e+07
6.32858e+07
6.90896e+07
5.57387e+07
3.307e+07
1.9324e+07
1.90829e+07
2.1488e+07
2.70697e+07
3.63184e+07
4.75096e+07
5.91282e+07
6.51625e+07
6.61571e+07
6.34439e+07
9.48666e+07
7.52712e+07
6.68347e+07
5.53089e+07
5.18649e+07
5.76426e+07
6.4609e+07
7.02806e+07
6.21768e+07
4.39509e+07
2.70923e+07
2.19121e+07
2.24555e+07
2.47468e+07
3.03898e+07
3.90354e+07
4.95569e+07
5.53649e+07
5.66061e+07
5.74124e+07
8.68124e+07
7.12331e+07
6.68855e+07
5.7556e+07
5.75517e+07
6.31159e+07
6.73988e+07
7.26682e+07
6.7803e+07
5.40392e+07
3.7768e+07
2.79834e+07
2.51643e+07
2.5647e+07
2.83644e+07
3.2928e+07
3.84506e+07
4.24804e+07
4.77651e+07
5.71592e+07
8.11234e+07
6.82138e+07
6.6722e+07
5.90321e+07
5.9767e+07
6.5133e+07
6.92416e+07
7.43975e+07
7.3351e+07
6.3144e+07
4.91696e+07
3.75253e+07
3.12261e+07
2.87659e+07
2.87471e+07
2.9442e+07
3.3231e+07
3.99365e+07
4.75961e+07
5.9574e+07
7.66617e+07
6.58462e+07
6.6406e+07
6.01037e+07
6.09958e+07
6.58692e+07
6.93749e+07
7.38794e+07
7.54826e+07
7.09655e+07
6.03985e+07
4.90443e+07
4.03264e+07
3.36635e+07
2.96666e+07
3.05758e+07
3.46653e+07
4.13461e+07
5.0715e+07
7.25311e+07
7.29539e+07
6.35477e+07
6.53341e+07
6.02753e+07
6.06902e+07
6.52645e+07
6.85147e+07
7.2733e+07
7.51235e+07
7.43313e+07
6.90748e+07
6.05272e+07
5.09165e+07
3.92481e+07
3.36893e+07
3.49161e+07
3.94972e+07
5.1016e+07
6.66015e+07
9.24278e+07
6.95481e+07
6.12898e+07
6.37617e+07
5.99051e+07
5.93071e+07
6.30057e+07
6.59095e+07
6.97409e+07
7.29737e+07
7.39931e+07
7.14014e+07
6.57052e+07
5.60509e+07
4.31647e+07
4.06364e+07
4.1894e+07
5.14986e+07
6.53886e+07
8.28439e+07
9.6518e+07
6.68462e+07
5.93371e+07
6.19552e+07
5.92363e+07
5.77712e+07
6.02107e+07
6.24672e+07
6.55019e+07
6.9161e+07
7.16613e+07
7.08902e+07
6.63742e+07
5.6977e+07
4.85238e+07
4.83659e+07
5.17957e+07
6.76921e+07
8.35956e+07
8.69981e+07
7.63211e+07
6.28645e+07
5.63657e+07
5.87241e+07
5.70856e+07
5.45645e+07
5.53275e+07
5.61257e+07
5.75422e+07
6.01093e+07
6.30093e+07
6.44114e+07
6.29598e+07
5.74888e+07
5.77244e+07
6.07192e+07
7.45792e+07
9.44962e+07
9.72658e+07
7.62856e+07
6.48764e+07
1.36785e+08
1.47445e+08
1.56865e+08
1.64786e+08
1.77854e+08
1.8516e+08
1.92875e+08
1.87784e+08
1.66639e+08
1.43664e+08
1.22504e+08
1.05915e+08
9.42019e+07
8.62897e+07
8.07798e+07
7.65006e+07
7.29644e+07
6.96801e+07
6.70558e+07
6.31204e+07
1.47165e+08
1.5689e+08
1.64819e+08
1.68712e+08
1.85668e+08
2.00581e+08
2.11072e+08
1.97068e+08
1.57475e+08
1.17005e+08
9.34216e+07
8.13062e+07
7.48306e+07
7.09494e+07
6.80934e+07
6.58915e+07
6.37368e+07
6.15864e+07
5.96982e+07
5.67537e+07
1.56263e+08
1.6428e+08
1.69996e+08
1.68783e+08
1.86313e+08
2.10341e+08
2.24224e+08
2.02377e+08
1.38566e+08
8.70544e+07
7.13606e+07
6.70608e+07
6.65594e+07
6.6796e+07
6.68214e+07
6.66729e+07
6.57174e+07
6.42479e+07
6.24886e+07
5.92447e+07
1.64258e+08
1.68444e+08
1.68967e+08
1.53605e+08
1.5972e+08
2.06235e+08
2.41646e+08
2.31705e+08
1.41088e+08
4.78118e+07
4.91677e+07
5.22869e+07
5.547e+07
5.77306e+07
5.92681e+07
6.0401e+07
6.05975e+07
6.02406e+07
5.96007e+07
5.74978e+07
1.76414e+08
1.83604e+08
1.84029e+08
1.51129e+08
3.47248e+07
3.66768e+07
3.99912e+07
4.51679e+07
5.22731e+07
5.83035e+07
6.05466e+07
6.18406e+07
6.15348e+07
6.00938e+07
5.85513e+07
5.52905e+07
1.83893e+08
1.98778e+08
2.07833e+08
2.02915e+08
4.5643e+07
5.12608e+07
5.22205e+07
5.47774e+07
5.86712e+07
6.42412e+07
6.62819e+07
6.70083e+07
6.63888e+07
6.41472e+07
6.13546e+07
5.63822e+07
1.90943e+08
2.08363e+08
2.21047e+08
2.38223e+08
5.94214e+07
6.38192e+07
6.38503e+07
6.42215e+07
6.57168e+07
6.8744e+07
7.03966e+07
7.03704e+07
6.93175e+07
6.65934e+07
6.31038e+07
5.67694e+07
1.86194e+08
1.9465e+08
1.99339e+08
2.28066e+08
6.913e+07
6.73506e+07
6.89967e+07
7.00701e+07
7.1363e+07
7.37965e+07
7.59174e+07
7.5246e+07
7.40794e+07
7.10499e+07
6.67228e+07
5.85708e+07
1.65917e+08
1.56328e+08
1.37815e+08
1.42548e+08
3.38107e+07
4.50673e+07
5.90224e+07
6.88298e+07
2.14275e+07
3.16058e+07
4.49129e+07
5.47203e+07
6.18802e+07
6.78219e+07
7.36959e+07
7.65975e+07
7.63603e+07
7.43937e+07
7.06858e+07
6.15951e+07
1.43618e+08
1.16869e+08
8.73728e+07
4.81041e+07
3.60094e+07
5.0609e+07
6.34458e+07
6.70091e+07
3.29707e+07
1.83394e+07
2.2083e+07
3.15711e+07
4.25536e+07
5.29965e+07
6.25464e+07
7.09187e+07
7.51011e+07
7.49691e+07
7.29394e+07
6.44549e+07
1.22888e+08
9.37492e+07
7.19571e+07
4.96114e+07
3.96302e+07
5.15242e+07
6.33712e+07
6.82946e+07
4.61276e+07
2.26227e+07
1.67502e+07
1.88513e+07
2.608e+07
3.66163e+07
4.81589e+07
5.9583e+07
6.88489e+07
7.18233e+07
7.15372e+07
6.54939e+07
1.0652e+08
8.18311e+07
6.76402e+07
5.27387e+07
4.50231e+07
5.40515e+07
6.35923e+07
6.91565e+07
5.52411e+07
3.25141e+07
1.91368e+07
1.9048e+07
2.15894e+07
2.72911e+07
3.66158e+07
4.79382e+07
5.96487e+07
6.55673e+07
6.64774e+07
6.35823e+07
9.48725e+07
7.53766e+07
6.70177e+07
5.57437e+07
5.22577e+07
5.80616e+07
6.49346e+07
7.03262e+07
6.18391e+07
4.33876e+07
2.67027e+07
2.17918e+07
2.24913e+07
2.49064e+07
3.06299e+07
3.93877e+07
4.99898e+07
5.57327e+07
5.69224e+07
5.76653e+07
8.68921e+07
7.14275e+07
6.71304e+07
5.79722e+07
5.80588e+07
6.36266e+07
6.77556e+07
7.26815e+07
6.75082e+07
5.35512e+07
3.73551e+07
2.77986e+07
2.51415e+07
2.57216e+07
2.85174e+07
3.31768e+07
3.87373e+07
4.27696e+07
4.80732e+07
5.74514e+07
8.12516e+07
6.8461e+07
6.70144e+07
5.94306e+07
6.02655e+07
6.56146e+07
6.94795e+07
7.44963e+07
7.31439e+07
6.28122e+07
4.88636e+07
3.73609e+07
3.117e+07
2.87671e+07
2.88499e+07
2.95958e+07
3.34118e+07
4.01726e+07
4.78725e+07
5.99047e+07
7.68078e+07
6.61103e+07
6.67222e+07
6.04892e+07
6.14669e+07
6.63384e+07
6.95478e+07
7.39581e+07
7.54894e+07
7.07646e+07
6.01582e+07
4.88555e+07
4.02075e+07
3.36253e+07
2.97219e+07
3.06522e+07
3.4785e+07
4.15263e+07
5.09552e+07
7.28647e+07
7.31127e+07
6.38089e+07
6.56483e+07
6.0621e+07
6.10946e+07
6.56852e+07
6.86243e+07
7.28325e+07
7.51801e+07
7.4299e+07
6.88937e+07
6.03179e+07
5.07759e+07
3.92024e+07
3.36705e+07
3.49397e+07
3.95546e+07
5.11225e+07
6.67658e+07
9.26758e+07
6.97049e+07
6.15328e+07
6.4062e+07
6.02001e+07
5.96234e+07
6.33815e+07
6.59811e+07
6.98627e+07
7.31154e+07
7.40215e+07
7.13191e+07
6.55791e+07
5.59608e+07
4.31011e+07
4.05522e+07
4.18398e+07
5.14697e+07
6.54524e+07
8.30288e+07
9.67004e+07
6.69895e+07
5.95497e+07
6.22215e+07
5.94858e+07
5.80245e+07
6.05365e+07
6.25334e+07
6.56318e+07
6.9344e+07
7.17927e+07
7.08782e+07
6.63042e+07
5.69219e+07
4.84054e+07
4.82737e+07
5.17287e+07
6.77394e+07
8.36559e+07
8.72195e+07
7.64411e+07
6.29824e+07
5.65312e+07
5.893e+07
5.72924e+07
5.47405e+07
5.55634e+07
5.62001e+07
5.76585e+07
6.03031e+07
6.32205e+07
6.45539e+07
6.2999e+07
5.74281e+07
5.76107e+07
6.05914e+07
7.44529e+07
9.44371e+07
9.73157e+07
7.64351e+07
6.49252e+07
1.38687e+08
1.4936e+08
1.58977e+08
1.66918e+08
1.80259e+08
1.87903e+08
1.95754e+08
1.90928e+08
1.69936e+08
1.46993e+08
1.25589e+08
1.0869e+08
9.66839e+07
8.8516e+07
8.28476e+07
7.85973e+07
7.50474e+07
7.18398e+07
6.93902e+07
6.54191e+07
1.49213e+08
1.59235e+08
1.67492e+08
1.71492e+08
1.88464e+08
2.03549e+08
2.14222e+08
2.00017e+08
1.60416e+08
1.19888e+08
9.59687e+07
8.36163e+07
7.6884e+07
7.26961e+07
6.95649e+07
6.73022e+07
6.51194e+07
6.30371e+07
6.13625e+07
5.85177e+07
1.58639e+08
1.67039e+08
1.72903e+08
1.71717e+08
1.89234e+08
2.13342e+08
2.27487e+08
2.05004e+08
1.40886e+08
8.94038e+07
7.34382e+07
6.92069e+07
6.85862e+07
6.85704e+07
6.82625e+07
6.7943e+07
6.68938e+07
6.54461e+07
6.39275e+07
6.08963e+07
1.6681e+08
1.71784e+08
1.72238e+08
1.56788e+08
1.61686e+08
2.08141e+08
2.44479e+08
2.34098e+08
1.42134e+08
4.91945e+07
5.06284e+07
5.40344e+07
5.70392e+07
5.92609e+07
6.05776e+07
6.15321e+07
6.15515e+07
6.11677e+07
6.0727e+07
5.88025e+07
1.79306e+08
1.87074e+08
1.87662e+08
1.5324e+08
3.52703e+07
3.69675e+07
4.07017e+07
4.62961e+07
5.37209e+07
5.89595e+07
6.09847e+07
6.20151e+07
6.156e+07
6.0269e+07
5.90209e+07
5.60439e+07
1.86869e+08
2.01963e+08
2.10916e+08
2.05098e+08
4.54237e+07
5.08975e+07
5.18283e+07
5.42345e+07
5.82473e+07
6.37719e+07
6.56759e+07
6.65171e+07
6.59141e+07
6.38074e+07
6.1369e+07
5.67579e+07
1.93815e+08
2.11366e+08
2.23967e+08
2.40737e+08
6.02556e+07
6.40739e+07
6.39093e+07
6.40371e+07
6.52826e+07
6.81542e+07
7.00874e+07
7.03001e+07
6.9426e+07
6.68903e+07
6.36009e+07
5.72202e+07
1.89536e+08
1.97831e+08
2.02144e+08
2.30253e+08
6.99917e+07
6.85489e+07
6.98311e+07
7.06727e+07
7.18997e+07
7.44485e+07
7.62796e+07
7.58706e+07
7.47271e+07
7.17452e+07
6.7405e+07
5.89545e+07
1.69131e+08
1.58985e+08
1.39644e+08
1.41928e+08
3.5024e+07
4.47366e+07
5.96115e+07
6.91485e+07
2.17907e+07
3.30522e+07
4.65539e+07
5.63764e+07
6.35734e+07
6.96232e+07
7.53295e+07
7.80567e+07
7.77413e+07
7.55062e+07
7.1602e+07
6.1878e+07
1.46603e+08
1.19285e+08