/*--------------------------------*- C++ -*----------------------------------*\
  =========                 |
  \\      /  F ield         | OpenFOAM: The Open Source CFD Toolbox
   \\    /   O peration     | Website:  https://openfoam.org
    \\  /    A nd           | Version:  9
     \\/     M anipulation  |
\*---------------------------------------------------------------------------*/
FoamFile
{
    format      ascii;
    class       volVectorField;
    location    "0.0025";
    object      rhoU;
}
// * * * * * * * * * * * * * * * * * * * * * * * * * * * * * * * * * * * * * //

dimensions      [1 -2 -1 0 0 0 0];

internalField   nonuniform List<vector> 
9720
(
(-45893.1 -45889.3 -11694.3)
(-38531.8 -54355.7 -14149.9)
(-32888.8 -60547.9 -14569.3)
(-25154.5 -66274.4 -15938.2)
(-15811.7 -74660.5 -17079.7)
(-2837.47 -79860.1 -18270.5)
(12690.9 -83812.1 -19464)
(28398.4 -82238.1 -19301.2)
(43172.5 -70960.8 -16934.7)
(50385.2 -56705.3 -14545.4)
(51783.1 -43316.6 -12276.9)
(50362.5 -33130 -10415.2)
(48247.3 -25951.3 -8968.37)
(46183.9 -20954.4 -7806.38)
(44255.4 -17536.7 -6954.36)
(42487.2 -14676.1 -5916.97)
(40497.1 -12955.7 -5554.81)
(38540.6 -11266.8 -4841.11)
(37035.7 -9858.16 -4229.62)
(33903.5 -8227.05 -3520.35)
(-54261.2 -38559.6 -14126.8)
(-46470.3 -46713.7 -16318.9)
(-40419.3 -52821.5 -15729.4)
(-32268.1 -58761.6 -16857.1)
(-22965.9 -70076.9 -18988.5)
(-7416.48 -79033.1 -20281.1)
(12421.8 -84544.9 -22058.7)
(32914.3 -79629.5 -20804.3)
(50341.6 -59562.8 -16549.7)
(52169.1 -36357.8 -12658.6)
(48828.4 -22009.9 -10096.6)
(45585.8 -14292.4 -8704.09)
(43232.2 -10280.1 -7807.4)
(41372.7 -8053.31 -7042.37)
(39704.5 -6723.63 -6520.77)
(38137.3 -5703.81 -5580.03)
(36444.1 -5096.38 -5304.13)
(34799.2 -4543.33 -4774.11)
(33445.3 -4059.32 -4139.98)
(30900.8 -3475.95 -3440.83)
(-60312.9 -32969.3 -14453.3)
(-52334 -40797.5 -15548.2)
(-45947.8 -46630.4 -13972)
(-38056.8 -52671.4 -14961.1)
(-28782.9 -66186.4 -18324.1)
(-11340.8 -77910.4 -20221.6)
(11424.8 -84652 -22200.4)
(36246.5 -76922.8 -19871.9)
(52512.3 -45823 -12959.2)
(45971.4 -20034.9 -8422.78)
(41395.8 -9976.69 -6546.72)
(39962.5 -5516.52 -5817.34)
(39567.9 -3434.83 -5585.37)
(39256.3 -2394.95 -5439.72)
(38701.4 -1852.3 -5398.77)
(37921.8 -1444.55 -4913.05)
(36732.2 -1292.56 -4835.36)
(35376.3 -1167.73 -4381)
(34087.1 -1001.55 -3932.63)
(31635 -891.286 -3332.85)
(-66160.4 -25215.3 -15632.9)
(-58496.8 -32610.7 -16284.1)
(-52285.2 -38824.3 -14134.2)
(-46201.9 -46830.7 -15813)
(-37103.4 -56503.6 -17951.6)
(-19513.3 -71785.7 -21123.3)
(4189.77 -83993.6 -25128.6)
(32425.1 -82932.1 -24834.2)
(54219.7 -44872.6 -15959.6)
(30382.9 -4159.27 -5189.68)
(30826.9 -720.266 -5153.97)
(32137.5 1190.81 -4755.94)
(33480.8 2066.7 -4504.43)
(34434 2423.49 -4418.77)
(34886.6 2499.24 -4533.29)
(35064.8 2492.7 -4254.84)
(34501.6 2452.47 -4547.1)
(33669 2214.83 -4364.27)
(32726.7 2131.18 -3994.62)
(30431.6 1838.52 -3525.09)
(-74568.2 -15718.9 -16740.4)
(-70107.8 -22921.7 -18381)
(-66356.1 -28892.6 -17547)
(-57249.2 -37197.5 -16041.8)
(23448.5 -1733.66 -5117.07)
(21243.5 1442.69 -3271.47)
(23624 2733.68 -3719.54)
(27070.3 4638.15 -4116.23)
(30285.9 5869.41 -4420.33)
(31577.2 6132.93 -4501.17)
(32338.8 5919.8 -4610.58)
(32466.6 5354.04 -4468.96)
(31844.9 4965.99 -4800.35)
(31010.4 4371.61 -4377.34)
(30183.5 4104.9 -3958.04)
(28088.4 3633.67 -3515.9)
(-79630 -2777.4 -18280)
(-78904.1 -7264.52 -20286.3)
(-77867.3 -11251.8 -20116.8)
(-71784.4 -19358.3 -20548.1)
(23785.9 3441.78 -3489.63)
(26235.6 4882.52 -3507.15)
(27102.5 5300.27 -3730.63)
(28524 6194.72 -3964.44)
(30960.6 7356.81 -4280.1)
(32177.2 7972.67 -4438.81)
(32799.2 8100.44 -4531.41)
(32813.8 7678.81 -4463.88)
(32009.6 7265.4 -4718.52)
(30805.6 6452.42 -4236.8)
(29638.9 5949.54 -3885.62)
(27097.5 5182.59 -3462.85)
(-83281.2 12558.4 -19524.7)
(-83889.5 12250.1 -22062.7)
(-83959 11123.6 -22146.5)
(-83684.6 4041.62 -25089.7)
(29675 7858.44 -4006.07)
(31164.4 9008.18 -3811.44)
(31201.4 9010.5 -3898.76)
(31602.5 9329.48 -3990.33)
(32624.7 10176.8 -4150.33)
(33341.9 10641 -4235.14)
(33486.8 10702.9 -4241.81)
(33123.5 10266.1 -4160.62)
(32023.7 9676.48 -4330.99)
(30440.9 8564.81 -3880.86)
(28853.4 7761.01 -3586.38)
(25845.9 6625.97 -3225.28)
(-81552 28243.3 -19350.7)
(-78351 32724.5 -20869.6)
(-75138.9 36126.8 -19973.9)
(-80769.2 32217.6 -24287)
(32801.8 11474.1 -3940.58)
(32598.8 12095.3 -3557.94)
(33231.9 11866.7 -3658.63)
(33801 11980.1 -3728.77)
(34796.5 12410.1 -3805.01)
(35454.1 12931.8 -3964.91)
(35311.5 13123.8 -4055.17)
(34757.1 12860 -4003.43)
(33406.2 12247.3 -4050.8)
(31310 10931.8 -3653.66)
(29152.9 9833.53 -3419.58)
(25117.4 8079.68 -3064.96)
(-70161.1 42856.9 -17099)
(-58170.1 49733.6 -16828)
(-43946.5 51417.3 -13561.3)
(-40946.3 51922.2 -16246.7)
(-1230.24 21799.3 -4806.67)
(3443.98 24661.5 -3694.97)
(8069.86 30563.4 -4112.04)
(11918 33745.9 -3918.43)
(9575.53 10491.4 -1464.32)
(16288.3 10263.8 -1831.59)
(22415.8 12195.2 -2398.43)
(27073.8 13465.9 -2750.61)
(30515.8 14296.8 -3015.48)
(33137 15027.3 -3339.14)
(34722.8 15409.4 -3719.42)
(34737.2 15154.5 -3801.94)
(33992.7 14629.5 -3854.65)
(32277.7 13370.3 -3561.26)
(29964.2 12119 -3388.77)
(25164.6 9771.42 -3028.03)
(-55939.2 49914.7 -14816.4)
(-35391.8 51397.4 -13033.1)
(-19212.5 44994.9 -8938.83)
(-3917.83 29973.5 -5698.3)
(1465.99 21652.4 -3632.99)
(4951.77 26673.8 -3605.78)
(9236.28 31753.9 -3759.35)
(12442.1 33273.4 -3365.57)
(10780.1 17861.4 -1911.83)
(8806.63 9109.67 -995.067)
(11714.6 9027.57 -1064.59)
(16337.4 10974.8 -1731.46)
(21377 13114.8 -2313.23)
(25982.9 14947 -2679.65)
(30042.4 16266.7 -2974.71)
(32445.6 16724 -3270.55)
(32653.1 16420.2 -3489.13)
(31926.7 15510.1 -3310.77)
(29934.6 14274.6 -3245.84)
(25177.4 11483.6 -2981.04)
(-42734.1 51287.6 -12587.5)
(-21458.6 48166 -10501.7)
(-9626.62 40786.8 -7015.34)
(-619.774 30647.5 -5602.42)
(2764.77 23979.7 -4081.41)
(5402.77 27597.6 -3843.29)
(9256.83 31870.2 -3824.71)
(12178.5 33946.9 -3467.44)
(12869.9 24120.8 -2328.89)
(9397.28 12581.8 -1074.96)
(8597.28 8779.73 -1010.18)
(10261.5 8603.2 -1398.44)
(13495.3 10210.1 -1642.8)
(18050.5 12667.5 -1792.12)
(23266.4 15130.3 -1981.55)
(27676.2 16907.3 -2414.47)
(29393.1 17397.5 -2820.12)
(29544.7 16833.3 -2790.18)
(28499.9 15856.1 -3074.39)
(24714 12752.5 -2976.6)
(-32725 49929.5 -10706.4)
(-14002.7 45072.9 -9060.34)
(-5367.11 39553.2 -6210.88)
(1201.95 31958.2 -5117.77)
(4595.49 27260.7 -4408.8)
(6275.02 28987.4 -4058.96)
(9562.18 32237 -3904.78)
(12288.7 34545.6 -3541.56)
(14043.1 28562.1 -2553.32)
(11785.7 17824.1 -1571.13)
(8876.33 10851.1 -1343.99)
(9529.73 9671.96 -1408.06)
(10787.8 9520.62 -1117.16)
(13404.6 10835 -971.302)
(17613.5 13413.4 -1183.84)
(22087.1 16033.4 -1769)
(24728.9 17196.4 -2305.32)
(25385.3 16565.5 -2501.85)
(25091.5 15644.3 -3024.01)
(23238.7 13097.6 -2840.2)
(-25673.4 47885.2 -9212.33)
(-10118.7 42823.2 -8080.45)
(-3364.7 39246.4 -5885.35)
(2058.67 33281.8 -4780.98)
(5760.32 30215.4 -4623.77)
(7384.01 31256.1 -4333.44)
(10278.6 33151 -4066.57)
(12707.5 35461.7 -3614.71)
(14802.1 31912.6 -2757.88)
(13964.6 23060.1 -2081.82)
(10922.8 14629.1 -1508.78)
(9731.84 11179.2 -1035.96)
(10497.4 10537.1 -653.935)
(11801.1 10755 -594.516)
(13864.4 12049.7 -988.243)
(16615.5 13759.7 -1666.65)
(18730.7 14575.6 -2136.22)
(19936.1 14293.6 -2331.23)
(21054.6 14455.8 -2610.54)
(22553.5 14226.6 -2428.98)
(-20753.6 45873.9 -7999.07)
(-7946.67 41025.2 -7239.54)
(-2353.88 38976.8 -5659.75)
(2396.9 34221.8 -4627.87)
(6000.98 31455.8 -4642.41)
(7971.04 32353.1 -4459.22)
(10638.1 33740.7 -4130.34)
(13149.7 35839.7 -3789.81)
(15445.4 34388.1 -3129.23)
(15718.2 27739.1 -2450.77)
(13555 19594.5 -1606.89)
(11499.9 14321.6 -811.561)
(11152.5 12225.9 -502.571)
(11271 11281.9 -735.937)
(11648.7 10981.7 -1234.17)
(12749.2 11313.8 -1681.29)
(14759.3 12445.8 -1824.96)
(17433.8 14009.5 -1915.67)
(19683.5 15321.2 -1886.47)
(23152.2 16088 -1754.55)
(-17383 43985.1 -7105.21)
(-6640.01 39398.9 -6661.74)
(-1819.84 38443.6 -5558.73)
(2464.36 34666.9 -4698.99)
(5776.66 32183.5 -4707.19)
(8084.76 32941.7 -4532.58)
(10681.5 33885.9 -4133.95)
(13274.6 35705.9 -3865.57)
(15665.2 35475.7 -3543)
(16867.9 31627.5 -2789.04)
(16031 25047.8 -1797.06)
(14340.6 19013.8 -980.92)
(12823.5 14789.3 -832.045)
(11169 11921.3 -1157.17)
(11213.4 11246.1 -1528.14)
(12195.6 11609.4 -1516.27)
(14004.7 13025.2 -1285.08)
(16555.9 14810.2 -1183.11)
(19924.9 16506 -1212.2)
(27846.2 19161.8 -1439.07)
(-14557.9 42250.3 -6033.14)
(-5634.79 37860.9 -5679.03)
(-1416.96 37668.6 -5020.54)
(2455.14 34820.1 -4389.15)
(5218.29 32304.7 -4526.86)
(7653.94 32894.7 -4449.48)
(10239.8 33520.7 -4048.6)
(12951.3 35082 -3819.62)
(15379.2 35339.5 -3623.18)
(17090.9 33454.9 -3114.82)
(17592.4 29164.1 -2259.71)
(16979.9 23652 -1567.63)
(14801.9 17984.6 -1506.01)
(11779.3 13317.8 -1572.4)
(11820.5 12378.4 -1460.61)
(12688.5 12640.2 -1101.4)
(15115.5 14654.4 -922.542)
(19722 17654.6 -812.457)
(26151.8 20343 -725.469)
(33469.6 22283.1 -1323.57)
(-12859.7 40288.3 -5653.8)
(-5035.19 36189.9 -5382.8)
(-1264.01 36479.8 -4918.55)
(2419.69 34234.7 -4653.11)
(4857.18 31679.8 -4836.82)
(7227.09 32000 -4698.73)
(9646.37 32390.7 -4225.98)
(12282.7 33642.6 -3902.54)
(14757.5 34385.2 -3688.68)
(16737.7 33462.7 -3350.34)
(17867.8 30425.8 -2674.05)
(17889.1 25976.2 -2098.61)
(15540.1 20133.5 -1969)
(13057.5 15543.8 -1689.23)
(13497.8 14501.1 -1193.27)
(14866.5 15340.6 -878.166)
(19169.6 19210.3 -743.515)
(23434.9 20759.1 -808.949)
(27001.2 20869.5 -998.084)
(28177.2 20591.6 -1629.15)
(-11192.8 38358.1 -4923.72)
(-4493.48 34568.9 -4838.23)
(-1143.11 35135.2 -4446.65)
(2190.04 33401.4 -4453.91)
(4297.38 30840.9 -4398.98)
(6406.57 30704.1 -4204.33)
(8537.43 30749.7 -3785.28)
(10924.4 31479.1 -3523.21)
(13440.2 32552.8 -3414.21)
(15697.4 32435.2 -3173.04)
(17223.2 30400.8 -2644.02)
(17187.6 26559.2 -2308.52)
(15115.3 21252.1 -2179.28)
(14731.7 18443.5 -1790.04)
(15412.3 17291.3 -1091.96)
(17991.6 20182.3 -748.121)
(21008.4 23722.4 -798.887)
(19732.5 19636.5 -1339.88)
(17679.2 15607 -1600.89)
(17245.9 14749.4 -1797.83)
(-9800.34 36875.9 -4301.59)
(-4018.33 33242.3 -4194.31)
(-979.885 33872.2 -3979.05)
(2116.22 32484.5 -4062.03)
(4057.28 30022.9 -3977.1)
(5895.15 29492.8 -3848.75)
(7728.21 29112 -3512.45)
(9808.04 29305.4 -3314.27)
(12130.3 30102.9 -3257.78)
(14401.5 30271.4 -3109.66)
(16131.6 29123.7 -2902.53)
(16158.2 26111.5 -2827)
(15150.8 22253.8 -2470.77)
(16038.4 20765.4 -1787.18)
(17139 20816.1 -1153.39)
(20882.3 26890.9 -719.444)
(21486.6 27592.5 -1024.54)
(16022.7 17846.6 -1621.64)
(12912.9 12798.3 -1853.7)
(14285.6 13958.3 -2234.5)
(-8187.62 33784 -3580.3)
(-3446.91 30748.2 -3489.63)
(-874.525 31475.2 -3372.51)
(1833.86 30255.9 -3571.17)
(3606.75 27960.2 -3541.4)
(5132.32 26947.3 -3438.58)
(6593.04 26018.3 -3182.21)
(8062.36 25258.7 -2999.13)
(9776.98 25255.9 -2932.62)
(11557.9 25354.5 -2861.89)
(12897.3 25052.5 -2820.85)
(13403.5 23922.2 -2698.52)
(14648.9 23381.6 -2323.76)
(16604.1 24019.3 -1707.71)
(19740 28788.5 -1471.64)
(22937.1 34393.8 -1423.64)
(21224.8 28826.8 -1692.79)
(15067.2 17392 -1798.38)
(14080.4 14242 -2233.25)
(15260.4 15196 -2545.17)
(-43536.9 -43546.6 -8557.59)
(-36534.9 -51420.2 -10120.2)
(-31367.5 -57378.1 -10246.4)
(-24185.3 -62931.3 -11258.2)
(-15452.3 -71007.8 -12081.3)
(-3143.81 -75863.6 -13009.1)
(11386.8 -79315.9 -13773)
(26279.2 -77025.1 -13431.8)
(39769.4 -66034.4 -11531)
(46139.3 -52401.9 -9669.19)
(47223 -39842.4 -8075.13)
(45769.6 -30398.5 -6859.16)
(43763.3 -23780.9 -5950.16)
(41878.3 -19187.6 -5235.89)
(40167.3 -16081.3 -4774.71)
(38705.5 -13489.5 -4110.32)
(36989.5 -11937.2 -3997.44)
(35366.8 -10471.8 -3560.19)
(34217 -9235.55 -3226.36)
(31754.2 -7815.57 -2839.17)
(-51303.1 -36595 -10113.1)
(-43960.3 -44278.3 -11357.7)
(-38425.3 -50290.9 -10663.1)
(-30889.3 -56060.7 -11322.6)
(-22352.2 -67260.7 -13035.4)
(-7468.69 -75857.2 -14260.2)
(11122.3 -80739.6 -15504)
(30499.3 -74997.4 -14314.2)
(46305.1 -55564.9 -11072)
(47547.5 -33670.3 -8138)
(44262.4 -20332 -6352.85)
(41349.3 -13234.1 -5537.74)
(39280.3 -9544.84 -5089.52)
(37664.4 -7492.58 -4691.48)
(36208.7 -6273.56 -4490.01)
(34934 -5317.87 -3913.23)
(33492.3 -4761.93 -3839.72)
(32104.8 -4265.15 -3554.32)
(31069.3 -3825.88 -3207.17)
(29093.9 -3328.64 -2803.02)
(-57127.1 -31474.4 -10220.3)
(-49738.8 -38917.7 -10626.5)
(-43776.9 -44664.7 -9150.44)
(-36793.8 -50853.7 -9403.77)
(-28066 -64407.7 -12465.4)
(-11318.1 -76113.9 -14320.1)
(10368.4 -81879.6 -15823.4)
(34106.2 -73300.2 -13838.8)
(48599.6 -43401.5 -8557.37)
(41767.5 -18822.2 -5272.49)
(37336 -9468.71 -3943.99)
(36164.1 -5355.27 -3547.28)
(36016.8 -3423.69 -3554.83)
(35933.5 -2448.4 -3595.15)
(35580.2 -1935.52 -3738.09)
(35044.6 -1512.02 -3486.63)
(34094.5 -1344.61 -3573.17)
(32997.5 -1211.49 -3322.5)
(31990.4 -1030.54 -3063.63)
(30003.5 -924.097 -2726.2)
(-62704.6 -24228.1 -11092.2)
(-55741.3 -31257.2 -11091.4)
(-50483.7 -37721.4 -9233.61)
(-44639.8 -45853.5 -10219.4)
(-35441.8 -56531.7 -12051.2)
(-19302.2 -71298.5 -15506.3)
(3781.67 -83075 -18908.8)
(31038.1 -80692.3 -17969)
(51439.8 -44528.7 -9774.59)
(27985.2 -4248.81 -3106.32)
(27891.8 -1177.91 -3018.01)
(29165.8 688.478 -2893.81)
(30532.1 1543.28 -2919.65)
(31620.6 1926.21 -3040.24)
(32154.5 1998.42 -3301.42)
(32414.1 2013.56 -3155.72)
(31996.7 1999.24 -3429.89)
(31356.7 1828.57 -3345.77)
(30689.5 1805.12 -3130.14)
(28841.8 1607.97 -2846.04)
(-70605.9 -15364.5 -11786.1)
(-66712.2 -22250.3 -12558)
(-63842.3 -28207 -11995.1)
(-54952.9 -35954.2 -11534.3)
(21737.6 -1945.54 -2527.39)
(20591.6 1171.23 -2289.73)
(22424.5 2131.85 -2456.49)
(25130.5 3776.33 -2613.05)
(28318.5 5069.16 -3000.81)
(29622.6 5443.18 -3252.24)
(30471.9 5338.61 -3531.65)
(30710 4855.97 -3511.04)
(30177.5 4450.49 -3848.11)
(29458.1 3889.6 -3599.98)
(28792.9 3616.06 -3328.32)
(26911.8 3237.86 -2969.83)
(-75370.2 -3203.92 -12859)
(-75341.2 -7572.89 -14056.3)
(-75551.6 -11529.2 -14177.7)
(-70637.2 -19522.9 -15472)
(23265.5 3016.92 -2710.26)
(25773.9 4268.38 -2599.81)
(26304.2 4616.55 -2637.05)
(27256.8 5307.26 -2660.18)
(29174.2 6418.06 -2889.31)
(30701.4 7116.35 -3198.92)
(31302 7330.33 -3444)
(31428.7 7007.45 -3510.88)
(30775.4 6613.9 -3827.81)
(29750.4 5894.48 -3570.35)
(28725.6 5383.71 -3342.43)
(26334.9 4723.89 -2976.64)
(-78699.3 11136.1 -13749.9)
(-80043.7 10766.7 -15456.2)
(-81239.4 9817.55 -15835.4)
(-82768.5 3241.4 -18947.9)
(29114.7 7120.15 -3271.77)
(30682.7 8164.67 -2870.49)
(30586.2 8162.11 -2846.8)
(30698.4 8336.51 -2727.95)
(31248.9 8961.15 -2747.37)
(32127.7 9534.87 -3000.56)
(32333.5 9669.95 -3162.09)
(32188.8 9393.73 -3248.73)
(31359.1 8949.48 -3552.6)
(30064.3 8058.54 -3370.65)
(28626.9 7272.46 -3218.95)
(25599.7 6209.55 -2869.75)
(-76536.3 25871 -13534.9)
(-74336.3 29955.4 -14601.1)
(-72431.4 33483.5 -14407.1)
(-79542.7 30360.2 -18530.2)
(32862.7 10675.7 -3372.59)
(32215.1 11106.3 -2880.29)
(32702.7 10907.4 -2799.35)
(33028.8 10897.7 -2720.51)
(33601.2 11132.7 -2662.13)
(34360.2 11586.4 -2806.91)
(34297.7 11866.2 -3105.88)
(33992.5 11773.9 -3200.96)
(33028.4 11401.8 -3377.78)
(31323.7 10440.3 -3234.45)
(29312.1 9416.02 -3163.65)
(25330.3 7779.31 -2831.27)
(-65516.6 39336.4 -11827.3)
(-54628.9 45573.6 -11622.8)
(-42166.4 47557.9 -9607.38)
(-41407.2 49674.8 -11021.9)
(-1632.75 20828.3 -2770.61)
(3002.05 22809.1 -2825.61)
(7133.28 28931.2 -3054.5)
(10950.9 33021.1 -3140.77)
(8810.58 9899.59 -905.438)
(15390.5 9287.48 -1371)
(21454.9 11139.1 -1839.84)
(26023.5 12341.8 -2099.78)
(29297.6 13028.4 -2216.83)
(31775.1 13591.7 -2398.27)
(33582.2 14092.2 -2800.87)
(33877.4 14006.9 -3095.84)
(33467.5 13707.9 -3267.7)
(32235.3 12824.5 -3191.95)
(30261.5 11737.8 -3187.89)
(25610.9 9549.12 -2854.54)
(-51843.7 45628.5 -10052.3)
(-32925.7 46716.7 -8698.23)
(-18173.1 40751.7 -5992.5)
(-3901.16 27403.7 -3570.14)
(1259.89 19870.5 -2521.01)
(4174.3 24970.5 -2615.19)
(8045.8 30410.8 -2716.7)
(11195.1 32448.5 -2540.92)
(9670.04 16804.3 -1281.11)
(7909.87 8170.74 -650.272)
(10749.7 8072.33 -716.304)
(15268.7 9949.88 -1266.92)
(20170.9 11926 -1696.33)
(24548.7 13533.6 -1927.43)
(28600.5 14869.3 -2233.09)
(31500.2 15567.6 -2627.26)
(32018.2 15455.2 -3010.2)
(31707 14859.5 -3029.79)
(30185.5 13862.6 -3071.12)
(25695.3 11349.3 -2810.27)
(-39381.8 46687.1 -8437.23)
(-19840.6 43463.2 -6811.74)
(-9115.01 36425.1 -4432.42)
(-965.711 27152.1 -3253.87)
(2209.65 21674.5 -2608.03)
(4524.08 25548.3 -2642.51)
(8086.72 30384.7 -2710.2)
(10904.3 32871.2 -2534.41)
(11602.1 22825.1 -1613.24)
(8332.78 11432.6 -711.67)
(7616.52 7758.77 -671.155)
(9156.09 7531.93 -929.972)
(12285.3 9028.08 -1152.38)
(16771.7 11396.9 -1303.33)
(21900.4 13824.5 -1493.01)
(26538.1 15679.7 -1897.55)
(28866.6 16453.9 -2489.7)
(29229.5 16099.6 -2567.28)
(28545.5 15421.9 -2813.78)
(25011 12736.5 -2738.7)
(-30055.4 45266.8 -7155.96)
(-12923.7 40635.5 -5872.59)
(-5160.94 35361.7 -3879.47)
(764.867 28460.2 -3052.22)
(3766.96 24450.1 -2712.21)
(5254.57 26640 -2657.48)
(8275.83 30580.5 -2631.89)
(10898 33204.3 -2509.67)
(12713.2 27177.5 -1829.84)
(10596.7 16491.4 -1100.64)
(7742.91 9606.08 -897.261)
(8438.05 8549.34 -1013.65)
(9762.83 8511.32 -848.755)
(12392 9840.4 -741.718)
(16521.7 12265.5 -859.754)
(20908.1 14704.2 -1357.34)
(24181.3 16307.9 -2045.48)
(25101.6 16053.5 -2246.76)
(25020 15389.6 -2737.38)
(23088.9 12965.4 -2657.29)
(-23525.7 43314.9 -6178.93)
(-9319.66 38656 -5319)
(-3281.28 35314.8 -3773.32)
(1553.58 29879.9 -3028.5)
(4991.12 27690.4 -3042.18)
(6362.61 28682.6 -2844.21)
(8885.13 31167.1 -2654.72)
(11161.3 33837.6 -2486.74)
(13348.6 30364.1 -1955.67)
(12655.3 21624.1 -1444.01)
(9648.27 13231.3 -1026.75)
(8730.82 10124.3 -788.854)
(9563.7 9592.74 -557.243)
(10984.4 9914.06 -447.605)
(13110.1 11161 -700.347)
(15774.6 12819.7 -1330.65)
(18391.8 14146.4 -1931.79)
(19618.1 13945.6 -2112.28)
(20215.1 13707.2 -2433.13)
(21471.3 13399.3 -2277.3)
(-18991.2 41486.8 -5407.07)
(-7311.84 37128.6 -4847.36)
(-2324.79 35329.3 -3734.44)
(1925.86 31034.2 -3113.36)
(5342.34 29052.3 -3239.93)
(7068.36 30300 -3111.23)
(9435.92 32036.5 -2837.79)
(11630.9 34537 -2637.38)
(13870 32750.1 -2180.2)
(14215.3 26073.6 -1659.37)
(12202.3 18102.6 -1112.35)
(10455.1 13206.8 -609.997)
(10275.5 11368.2 -377.185)
(10570.4 10566.2 -533.927)
(10951.4 10249.5 -926.946)
(11849.7 10427.7 -1403.23)
(13561 11338 -1613.56)
(15946.6 12582.3 -1701.09)
(18388.1 14077 -1790.59)
(21637 15117.7 -1521.71)
(-15923.9 39828.8 -4903.94)
(-6120.06 35753.5 -4597.61)
(-1820.77 35063.1 -3825.5)
(2011.78 31662.3 -3350.52)
(5228.83 29931.4 -3504.48)
(7275.97 30949.6 -3340.69)
(9567.2 32253.4 -2955.13)
(11888.7 34393.6 -2888.37)
(14289.1 34240.7 -2600.1)
(15411.2 29982.3 -1995.75)
(14655.9 23463.7 -1284.81)
(13140.1 17799.9 -677.957)
(11935.6 14016.5 -576.981)
(10539.4 11277.9 -872.225)
(10256.2 10260.3 -1253.42)
(11008.9 10381.1 -1380.89)
(12680.6 11635.9 -1164.61)
(15084.4 13390.9 -968.591)
(18099 15142.8 -867.529)
(25254.7 17858.2 -731.601)
(-13365 38414.6 -4206.89)
(-5189.17 34546.1 -3988.11)
(-1408.89 34594.4 -3537.22)
(2041.5 31993.3 -3195.7)
(4726.47 30204.1 -3496.49)
(6934.79 31096.8 -3420.73)
(9306.62 32135.8 -3032.86)
(11773.5 34041.8 -2969.02)
(14110.3 34239.6 -2884.1)
(15902.4 32428 -2431.54)
(16354.3 27970.9 -1705.29)
(15661.1 22449 -1147.72)
(13887.9 17141 -1180.21)
(11036.6 12527.9 -1338.9)
(10570.9 11147.7 -1340.19)
(11345.1 11290.4 -1014.9)
(13293.3 12898 -581.974)
(17295.8 15721 -207.487)
(23218.1 18659.4 187.793)
(31751.1 21547 44.3314)
(-11829.8 36732.4 -4071.26)
(-4652.52 33149.8 -3890.7)
(-1254.97 33686.3 -3604.54)
(2031.11 31627.5 -3461.86)
(4348.61 29728.9 -3856.83)
(6535.68 30421.9 -3778.24)
(8853.94 31280.2 -3375.41)
(11368.9 32977.2 -3191.22)
(13757.5 33699.8 -3093.05)
(15675.6 32659.9 -2839.58)
(16892.8 29845.6 -2308.31)
(17023.5 25423 -1841.98)
(15128.3 19774 -1786.33)
(12035.5 14407.8 -1528.33)
(12140.9 13189.8 -1091.15)
(13140.5 13529.5 -538.491)
(16908.4 16939.9 7.87349)
(21802.5 19556 516.618)
(26705.9 20901.7 612.861)
(30061.4 21861.6 -193.628)
(-10380.9 35121 -3617.49)
(-4173.84 31785.1 -3590.19)
(-1135.63 32618.1 -3341.83)
(1860.36 31017.2 -3373.85)
(3806.84 29057.9 -3606.42)
(5814.3 29383.2 -3535.89)
(7962.34 29978.7 -3246.33)
(10357.9 31194.8 -3089.81)
(12832.8 32350.5 -3045.6)
(15000.9 32169.6 -2870.1)
(16457.4 30063.8 -2407.07)
(16625.7 26181.9 -2081.47)
(14712.8 20832.4 -1986.52)
(13311.4 16935.7 -1607.55)
(14028.5 15850 -878.977)
(16113.5 17824.9 -167.129)
(19786.6 22077.4 493.677)
(20940.6 20827 -94.4297)
(20661.4 18124.5 -404.953)
(20004.4 16790.6 -749.882)
(-9155.68 33980 -3273.53)
(-3750.43 30764.8 -3234.79)
(-968.872 31642.8 -3073.79)
(1833.06 30371.7 -3155)
(3557.68 28425.2 -3323.9)
(5311.73 28357.9 -3310.83)
(7197.96 28556.1 -3123.89)
(9332.89 29166.9 -3031.42)
(11708.7 30258.5 -3046.41)
(13947.4 30477.9 -2919.52)
(15672.4 29167.2 -2676.19)
(15885.8 26018 -2623.43)
(14373.3 21346.8 -2341.13)
(14818.2 19480.2 -1710.35)
(15815 19046.5 -831.487)
(19249 24087.5 133.448)
(21472.5 27247.2 537.178)
(18428.7 20631.6 -457.948)
(14573.7 14425.8 -1075.52)
(14283.9 13827 -1275.25)
(-7751.77 31535.2 -2873.67)
(-3274.59 28818.7 -2824.86)
(-882.923 29713.6 -2735.96)
(1626.84 28578.4 -2862.24)
(3206.71 26614 -2964.3)
(4666.56 26003 -2946.47)
(6157.67 25524.3 -2807.9)
(7723.05 25214.8 -2730.4)
(9511.3 25537.8 -2739.02)
(11389.8 25840.9 -2695.31)
(12856.8 25389.4 -2641.78)
(13280 23835.4 -2584.22)
(13891.1 22429.1 -2219.93)
(15691.6 22628.5 -1483.7)
(18487.8 26367.9 -784.877)
(22178.7 32765.7 -93.588)
(22288.6 30443.9 -304.127)
(16806.1 19733.2 -778.502)
(13841 14126.6 -1305.99)
(14739 14678.8 -1936.54)
(-42777.9 -42719.9 -6228.21)
(-35990.7 -50435.4 -7339.61)
(-31051.5 -56187.5 -7445.64)
(-24230.3 -61729.8 -8184.34)
(-15878.7 -70030 -8858.01)
(-3709.99 -74762.6 -9583.81)
(10453.5 -77764.1 -10119.5)
(25173.8 -75049.6 -9925.5)
(38058.7 -63893.3 -8479.65)
(43931.6 -50412.2 -7077.79)
(44831.7 -38271.5 -5880.19)
(43392.8 -29233.6 -4952.9)
(41470.9 -22914.2 -4273.96)
(39685.4 -18509.6 -3748.27)
(38047.8 -15555.5 -3444.44)
(36702 -13070 -2983.69)
(35102.2 -11583.6 -2907.56)
(33568 -10217.6 -2617.82)
(32449.4 -9043.87 -2429.79)
(30104.2 -7639.02 -2179.69)
(-50467.8 -35864.4 -7352.5)
(-43332.8 -43203.5 -8239.82)
(-38008 -48898.2 -7729.85)
(-30833.7 -54689.5 -8093.87)
(-22732.2 -66324.7 -9412.91)
(-7938.7 -75038.1 -10492.4)
(10188.6 -79341.1 -11364)
(29266.1 -73161.7 -10598)
(44283.8 -53507.2 -8095.78)
(45092.9 -32096.9 -5871.42)
(41908.4 -19409.3 -4572.53)
(39342.7 -12761.4 -3958.84)
(37520.9 -9265.78 -3611.9)
(36069.1 -7302.64 -3315.99)
(34701.7 -6142.36 -3196.35)
(33550.7 -5246.3 -2817.95)
(32246.1 -4732.7 -2774.82)
(30936.1 -4270.07 -2587.83)
(29921.3 -3865.76 -2399.98)
(27976.9 -3359.46 -2144.08)
(-56107.6 -30902.8 -7518.14)
(-48921.8 -37832 -7839.69)
(-43191.1 -43133.4 -6733.48)
(-36947.2 -49721.1 -6546.47)
(-28306.2 -63587 -8848.48)
(-11693.9 -75399 -10431)
(9518.79 -80453 -11505.7)
(32953.1 -71349.3 -10199)
(46291.5 -41482 -6187.48)
(39169.3 -17744.9 -3663.11)
(35160.1 -9122.26 -2751.79)
(34290.7 -5339.24 -2521.28)
(34378.2 -3486.9 -2549.92)
(34480 -2511.62 -2576.14)
(34249.5 -1998.11 -2706.93)
(33865.9 -1604.83 -2523.26)
(33036.8 -1468.27 -2629.16)
(31994.1 -1366.35 -2477.96)
(30998.6 -1221.71 -2337.59)
(28984.5 -1097.78 -2147.98)
(-61480.8 -24101 -8262.3)
(-54500.4 -30603.9 -8319.78)
(-49510.9 -36850.2 -7080.38)
(-42451.2 -43036.3 -7248.65)
(-34854.2 -54708.8 -8221.84)
(-19380.1 -70359.6 -11461.1)
(3327.4 -81901.7 -14129.8)
(29819.7 -77903.9 -13381.9)
(48098.5 -41808.4 -6936.07)
(25965.5 -4035.75 -2091.3)
(26689 -1269.82 -1954.7)
(27982.6 484.179 -1971.71)
(29268.3 1242.86 -2116.05)
(30312.1 1618.23 -2276.36)
(30811.6 1672.48 -2532.94)
(31051.4 1652.14 -2440.45)
(30718.4 1591.85 -2621.62)
(30128.2 1452.89 -2561.64)
(29540.5 1440.14 -2435.48)
(27868.2 1284.33 -2244.14)
(-69309.9 -15853.1 -8869.21)
(-65263.7 -22533.8 -9586.28)
(-62385.8 -28102.5 -9341.68)
(-52288.2 -34226.6 -9127.68)
(19165.4 -2190.12 -1678.18)
(19596.3 1012.86 -1770.27)
(21548.3 1828.21 -1938.89)
(24176.7 3241.96 -2015.22)
(27496.9 4549.6 -2264.33)
(29215.9 5054.84 -2478.91)
(30036.2 5026.75 -2677.83)
(30344.2 4629.74 -2630.22)
(29853.8 4212.69 -2874.96)
(29019.9 3642.97 -2726.25)
(28278.3 3278.01 -2571.46)
(26392.6 2883.05 -2331.5)
(-73869.2 -3954.04 -9499.22)
(-73904.1 -8292.03 -10416.1)
(-74115.7 -12014.4 -10478.1)
(-68865.1 -19309.4 -11855.8)
(23193.6 2694.67 -2061.53)
(24817 3873.84 -1941.72)
(25349.5 4096.01 -1974.19)
(26499.1 4577.02 -2046.13)
(28441.3 5640.48 -2214.52)
(30602.2 6478.53 -2479.85)
(31253 6810.58 -2640.6)
(31506.5 6623.07 -2639.08)
(30900.1 6264.61 -2853.79)
(29768.5 5596.69 -2717.73)
(28617.5 5014.74 -2602.56)
(26157.5 4357.84 -2357.98)
(-77013.7 10088.7 -10069.4)
(-78372.2 9661.48 -11254.4)
(-79418.8 8875.9 -11419.3)
(-80630.8 2639.94 -13991.9)
(28564.9 6512.46 -2135.21)
(29507.2 7305.25 -1952.64)
(29495.3 7287.96 -2006.31)
(29760.3 7424.78 -2066.65)
(30519.7 7903.64 -2120.25)
(31838.5 8660.53 -2364.68)
(32342.3 8953.09 -2512.82)
(32345.1 8835.81 -2540.74)
(31680.7 8518.57 -2708.8)
(30364.2 7774.52 -2621.15)
(28800.8 6966.88 -2532.09)
(25618.2 5905.46 -2276.37)
(-74524.2 24501.9 -9849.47)
(-72766.3 28258.5 -10489.4)
(-71176.9 31616.8 -10093.9)
(-77800.2 28718.9 -13614.7)
(32173.8 9906.83 -2247.67)
(30642.8 9991.59 -1903.85)
(31231.8 9856.96 -2015.38)
(31755.8 9827.91 -2101.98)
(32502.9 10057.5 -2175.57)
(33731.6 10568.1 -2315.96)
(34201.4 11038.8 -2544.4)
(33986.1 11101.1 -2625.86)
(33280.9 10880.9 -2694.52)
(31757.8 10153.5 -2623.57)
(29694.9 9152.51 -2545.44)
(25617.8 7571.79 -2265.95)
(-63622.4 37478.5 -8553.82)
(-53492.8 43498.4 -8271.57)
(-41875.1 45589.1 -6709.32)
(-41735 47148 -8344.77)
(-2066.26 19183.7 -2318.03)
(2423.27 22050.2 -2183.69)
(6107.21 28039 -2327.31)
(9676.8 32217.5 -2310.94)
(8242.49 8035.81 -630.994)
(14280.8 8157.04 -887.605)
(20097.9 9978.53 -1345.91)
(24523.1 11145.4 -1675.26)
(27867.2 11856.8 -1865.23)
(30609.9 12481 -1992.69)
(32878.1 13137.5 -2249.3)
(33734.2 13300.3 -2549.6)
(33470.1 13126.1 -2675.11)
(32422.9 12467.2 -2640.32)
(30609.2 11464.3 -2593.21)
(26010.7 9403.69 -2296.56)
(-50206.7 43444.1 -7274.64)
(-32031.3 44422.2 -6187.34)
(-17888.1 38548.6 -4121.84)
(-4298.74 25286.6 -2542.8)
(776.857 18612.5 -1893.98)
(3567.34 24148.3 -2124.14)
(7138.86 29424.5 -2128.5)
(10026.3 30824 -2005.43)
(8329.21 14688.6 -904.012)
(6996.41 7057.27 -508.557)
(9717.65 7066.1 -603.61)
(14109.8 8925.09 -1008.15)
(18943.7 10861.2 -1325.27)
(23355.5 12445 -1522.7)
(27494.5 13856.6 -1806.28)
(30864.1 14774.3 -2167.34)
(31811 14840.8 -2522.01)
(31648.9 14387.4 -2581.45)
(30444.1 13538.5 -2573.81)
(26112.9 11272.7 -2309.78)
(-38073.8 44372.3 -6117.07)
(-19267.1 41190 -4892.35)
(-9114.18 34310.5 -3146.51)
(-1553.08 25595.1 -2351.99)
(1552.38 20375.5 -2114.35)
(3749.04 24596.5 -2175.94)
(7125.01 29413 -2167.11)
(9832 31369.1 -2072.07)
(10220.1 20679.8 -1375.38)
(7215.9 10005.8 -611.167)
(6729.48 6773.7 -533.43)
(8184.15 6590.07 -621.91)
(11262.4 8086.62 -886.94)
(15653.9 10389.2 -1131.3)
(20602.8 12780.7 -1367)
(25412.7 14711.8 -1671.29)
(28461.5 15757.3 -2172.05)
(29102.1 15568.4 -2256.48)
(28645.4 15076.8 -2360.15)
(25256.7 12811 -2225.79)
(-29067.2 42961.7 -5184.97)
(-12622.7 38635.3 -4235.48)
(-5303.63 33380 -2839.81)
(240.177 26817.8 -2283.32)
(2879.45 22966.1 -2254.33)
(4246.75 25705 -2275)
(7208.77 29609.6 -2202)
(9777.82 31815.9 -2116.83)
(11341.1 25084.7 -1681.87)
(9255.81 14694.8 -1014.49)
(6718.63 8380.39 -621.437)
(7450.23 7477.98 -750.652)
(8742.01 7518.27 -746.727)
(11247.3 8827.91 -792.066)
(15173.4 11125.8 -899.957)
(19765.2 13583.5 -1197.23)
(23724.7 15588.1 -1735.33)
(25067 15772 -1869.91)
(25038.2 15312.9 -2139.95)
(23096.7 13065 -2102.83)
(-22782.4 41084.2 -4486.99)
(-9130.6 36871.6 -3841.98)
(-3434.1 33525.5 -2801.8)
(1057.68 28360.3 -2373.16)
(4131.8 26346.8 -2506.07)
(5276.2 27590.4 -2451.26)
(7636.51 30223.4 -2234.94)
(9958.57 32481 -2166)
(11973.9 28310.9 -1850.31)
(11224.4 19666.8 -1329.06)
(8433.53 11768.8 -869.144)
(7656.96 8949.25 -719.92)
(8492.55 8515.06 -691.564)
(9904.77 8894.07 -584.153)
(12186.2 10223 -689.852)
(15159.2 12100.5 -1080.58)
(18281.7 13945.5 -1573.7)
(19666.5 13980.8 -1714.54)
(19890.5 13419.2 -1921.29)
(20514.8 12632.7 -1877.54)
(-18398.9 39342.3 -3934.92)
(-7169.31 35503.2 -3508.52)
(-2443.24 33723.7 -2774.45)
(1483.34 29534.2 -2462.86)
(4698.46 28360.1 -2676.76)
(6098.79 29802.8 -2691.31)
(8330.05 31355.1 -2434.95)
(10414 33570 -2304.62)
(12531.5 30957.5 -1986.25)
(12772.4 24099.4 -1518.65)
(10843.1 16403 -1083.08)
(9228.14 11795.2 -744.471)
(9108.9 10161.8 -565.205)
(9716.52 9714.67 -615.986)
(10420.7 9683.68 -804.349)
(11427.7 10027.3 -1153.71)
(12950.9 10788.5 -1365.9)
(14849.8 11501.6 -1450.31)
(16986.2 12724.6 -1606.25)
(19977.4 13891.8 -1564.77)
(-15457.6 37746.4 -3603.62)
(-6016.87 34220.9 -3356.29)
(-1924.02 33610.6 -2864.39)
(1595.44 30242.2 -2662.67)
(4748.95 29304.6 -2814.38)
(6473.77 30545 -2812.57)
(8603.64 31824.2 -2551.13)
(10845.6 33839.7 -2512.56)
(13127.2 33096 -2240.32)
(14106.5 28190.1 -1779.76)
(13226.1 21458 -1317.75)
(11673 15990.1 -851.053)
(10694.8 12750.3 -679.209)
(9914.85 10648.4 -814.879)
(9558.7 9542.75 -1085.41)
(10003.5 9376.57 -1226.06)
(11462.3 10333.1 -1132.07)
(13688.9 11955.1 -1089.3)
(16137.2 13611.5 -1089.58)
(21914 16138.2 -1110.76)
(-12981.3 36434.3 -3117.64)
(-5126.29 33133.7 -2952.36)
(-1519.72 33320.5 -2649.13)
(1625.48 30620.5 -2529.18)
(4403.23 29743 -2723.66)
(6323.56 30921.8 -2776.57)
(8520.67 31885 -2568.93)
(10900.7 33624.9 -2566.37)
(13203.9 33655.8 -2501.24)
(14894.4 31313.2 -2137.95)
(15066 26193 -1636.71)
(14119.2 20652.6 -1171.25)
(12705.6 15974.1 -1087.91)
(10473.6 11925.7 -1190.39)
(9504.68 10084 -1229.64)
(10067.8 10025.9 -1085.41)
(11502 11164.5 -778.393)
(14666.5 13614.2 -673.245)
(19539 16669.8 -659.477)
(29032.4 20737.1 -668.792)
(-11492.5 34862 -3012.73)
(-4624.07 31879.8 -2877.23)
(-1385.94 32559.8 -2723.99)
(1601.32 30374.5 -2675.35)
(4052.43 29358.7 -2940.32)
(6055.01 30423.4 -2952.03)
(8261.34 31313.3 -2732.13)
(10686.9 32897.1 -2635.32)
(13015.7 33314.5 -2594.19)
(14856.8 32000.4 -2473.27)
(15973 29010.8 -2124.64)
(16010.4 24518.8 -1703.52)
(14550.5 19203.1 -1599.8)
(11324.3 13610.8 -1416.44)
(10613.9 11732.6 -1126.87)
(11341.9 11684.3 -764.811)