/*--------------------------------*- C++ -*----------------------------------*\
  =========                 |
  \\      /  F ield         | OpenFOAM: The Open Source CFD Toolbox
   \\    /   O peration     | Website:  https://openfoam.org
    \\  /    A nd           | Version:  9
     \\/     M anipulation  |
\*---------------------------------------------------------------------------*/
FoamFile
{
    format      ascii;
    class       volScalarField;
    location    "0.0025";
    object      T;
}
// * * * * * * * * * * * * * * * * * * * * * * * * * * * * * * * * * * * * * //

dimensions      [0 0 0 1 0 0 0];

internalField   nonuniform List<scalar> 
9720
(
1448.18
1467.19
1482.38
1492
1501.47
1508.03
1513.14
1505.74
1479.83
1454.08
1428.12
1403.32
1380.71
1360.25
1341.68
1324.66
1307.42
1290.76
1274.66
1251.5
1466.91
1488.71
1503.33
1511.38
1520.86
1531.12
1537.93
1523.04
1476.56
1429.46
1392.09
1363.26
1340.18
1320.36
1302.31
1285.68
1269.34
1254.13
1239.82
1219.76
1481.84
1502.79
1515.67
1518.52
1526.56
1541.74
1552.46
1531.36
1461.44
1403.84
1373.36
1353.83
1337.68
1322.1
1306.15
1290.43
1274.58
1259.71
1245.39
1225.71
1491.74
1511.2
1518.43
1515.58
1508.57
1540.04
1569.73
1564
1472.78
1316.99
1315.5
1314.95
1311.05
1303.18
1292.1
1279.71
1265.38
1251.44
1237.8
1218.84
1501.31
1521.18
1527.31
1510.24
1270.02
1243.68
1265
1289.87
1298.31
1296.05
1288.43
1275.71
1259.42
1243.43
1228.36
1209.97
1507.51
1530.81
1541.68
1541.12
1246.22
1252.94
1260.99
1274.41
1287.17
1287.84
1284.45
1275.07
1260.46
1244.09
1227.76
1207.21
1512.1
1536.48
1550.56
1568.19
1263.25
1264.04
1265.79
1271.14
1279.48
1282.3
1280.73
1274.13
1261.45
1244.83
1226.8
1203.39
1504.37
1520.41
1527.06
1558.24
1268.32
1259.79
1261.92
1265.54
1272.76
1278.84
1278.82
1275.18
1265.44
1249.07
1229.63
1202.66
1478.32
1473.36
1456.49
1462.41
1266.05
1249.91
1265.68
1271.68
1180.1
1208.12
1225.54
1237.64
1249.1
1260.92
1268.74
1268.48
1263.22
1250.73
1233.14
1203.58
1452.47
1426.66
1400.45
1317.34
1248.79
1255.74
1267.43
1263.08
1212.64
1180.62
1187.12
1200.89
1216.07
1231.37
1246.02
1253.73
1252.91
1246.21
1231.96
1202.57
1426.59
1389.81
1371.14
1315.61
1268.15
1263.89
1269.5
1265.73
1231.77
1191.07
1161.23
1166.56
1180.91
1198.41
1217.87
1232.1
1235
1232.83
1223
1194.86
1402.03
1361.41
1352.15
1314.35
1290.19
1276.34
1274.39
1269.79
1244.14
1207.97
1170.71
1153.01
1156.26
1171.72
1194.07
1208.31
1210.61
1208.92
1198.64
1171.21
1379.67
1338.64
1336.22
1309.85
1296.79
1287.75
1281.5
1276.76
1255.76
1224.02
1188.48
1159.98
1156.24
1161.53
1172.82
1176.95
1174.71
1167.4
1155.46
1155.48
1359.4
1319.04
1320.79
1301.83
1294.41
1288.16
1283.59
1281.1
1266.85
1239.49
1207.59
1179.58
1165.63
1154.84
1139.93
1132.02
1132.48
1139.87
1147.72
1167.96
1340.96
1301.13
1305
1290.82
1286.75
1284.72
1281.94
1280.71
1272.22
1252.9
1227.06
1203.72
1181.84
1147.34
1119.54
1121.43
1131.73
1146.14
1158.85
1216.42
1324
1284.6
1289.4
1278.55
1274.25
1275.26
1275.21
1276.49
1271.19
1258.07
1238.63
1215.85
1186.39
1142.53
1123.26
1128.53
1149.21
1197.23
1251.6
1351.51
1306.77
1268.3
1273.58
1264.34
1258.39
1260.47
1262.41
1266.33
1264.92
1256.44
1239.97
1217.2
1184.34
1141.43
1136.49
1151.12
1224.75
1359.12
1489.22
1648.89
1290.14
1253.12
1258.73
1250.47
1242.69
1243.97
1245.78
1249.78
1251.81
1248.52
1237.06
1215.13
1176.87
1146.77
1151.4
1198.4
1356.87
1630.34
1970.95
2353.95
1274.09
1238.89
1244.48
1236.89
1227.76
1227.66
1227.98
1230.31
1233.83
1233.36
1226.11
1204.02
1162.9
1153.74
1163.53
1250.61
1483.13
1961.77
3063.7
4661.18
1251
1218.99
1224.98
1218.18
1209.57
1207.16
1204.51
1203.18
1203.97
1203.3
1196.68
1174.7
1159.81
1171.44
1218.03
1349.49
1644.14
2354.35
4727.49
8540.61
1436.08
1454.03
1468.71
1477.72
1486.91
1492.83
1497.1
1488.05
1461.31
1435.08
1409.44
1384.95
1362.52
1342.68
1324.74
1308.62
1292.06
1276.39
1261.7
1241.38
1453.81
1474.54
1488.74
1495.81
1505.15
1515.6
1521.6
1504.97
1456.92
1409.79
1373.34
1345.66
1323.56
1304.5
1286.94
1271.02
1255.13
1240.52
1227.38
1210.07
1468.4
1488.45
1500.79
1501.78
1510.3
1527.84
1537.55
1514.56
1445.11
1386.21
1355.74
1337.49
1322.97
1308.41
1293.09
1277.88
1262.28
1247.83
1234.3
1216.66
1477.68
1496.14
1502.59
1501.02
1489.7
1527.82
1556.75
1548.26
1461.13
1304.9
1297.68
1298.33
1296.2
1289.62
1279.28
1267.45
1253.39
1239.87
1227
1209.7
1486.59
1505.09
1510.25
1486.22
1263.25
1238.23
1252.7
1273.41
1284.92
1283.66
1277.53
1266.4
1251.15
1235.78
1221.11
1202.95
1491.96
1514.57
1526.44
1526.85
1238.36
1244.55
1250.14
1260.24
1272.71
1275.83
1273.53
1265.99
1252.77
1237.35
1221.87
1201.69
1495.92
1520.18
1535.94
1555.6
1253.18
1253.77
1254.55
1257.7
1264.17
1269.4
1268.93
1264.55
1254.31
1239.84
1223.39
1199.97
1487.07
1503.36
1512.13
1545.39
1260.02
1248.91
1250.78
1253.18
1258.23
1265.13
1266.62
1264.6
1257.9
1245.36
1227.93
1200.69
1460
1454.24
1440.99
1455.44
1263.34
1238.76
1256.39
1265.43
1193.12
1203.05
1215.84
1225.6
1235.11
1245.75
1255.19
1257.14
1254.39
1245.56
1230.78
1202.06
1433.39
1406.65
1382
1302.75
1235.8
1243.86
1257.17
1254.37
1209
1179.82
1182.78
1191.89
1203.62
1216.49
1231.07
1242
1243.02
1239.58
1228.69
1201.16
1407.7
1370.2
1351.83
1294.68
1250.54
1249.9
1257.98
1255.69
1223.62
1186.92
1155.32
1157.99
1169.96
1186.07
1204.24
1220.05
1225.63
1225.02
1218.41
1193.7
1383.42
1342.85
1334.23
1295.6
1271.83
1260.52
1261.23
1258.2
1233.68
1200.07
1162.64
1143.99
1147.39
1161.74
1182.13
1197.03
1201.85
1201.54
1195.07
1170.55
1361.28
1321.21
1320.41
1293.88
1284.07
1273.79
1267.37
1263.26
1243.2
1213.29
1178.93
1151.32
1148.58
1153.49
1164.2
1169.76
1169.22
1164.15
1150.74
1142.89
1341.68
1302.55
1306.45
1287.84
1282.81
1277.02
1272
1269.3
1253.16
1226.33
1196.67
1170.13
1157.8
1150.58
1139.09
1127.21
1123.37
1124.98
1130.95
1150.16
1323.92
1285.3
1291.54
1277.89
1276.51
1274.62
1271.4
1269.88
1260.67
1239.68
1215.14
1193.63
1174.83
1146.93
1110.5
1105.54
1114.3
1128.63
1139.92
1187.84
1307.91
1269.6
1276.56
1266.38
1265.31
1266.76
1266.67
1267.46
1261.07
1247.94
1228.67
1207.06
1180.57
1139.95
1108.67
1110.89
1127.07
1165.47
1208.03
1292.77
1291.39
1253.78
1261.01
1252.47
1250.09
1252.99
1255.85
1260
1257.57
1247.82
1231.68
1209.33
1179.34
1134.62
1119.54
1129.87
1184.13
1289.32
1389.07
1521.18
1275.7
1239.18
1246.53
1239
1234.84
1237.12
1240.82
1246.52
1247.82
1243.18
1230.33
1208.53
1173.47
1134.07
1135.43
1168.56
1288.86
1490.01
1720.04
2006.98
1260.99
1226.06
1233.04
1226.14
1220.22
1221.37
1224.04
1228.66
1232.34
1231.12
1222.57
1201.13
1158.67
1138.45
1146.2
1210.35
1388.39
1721.01
2322.21
3452.87
1240.69
1208.88
1215.57
1208.93
1202.18
1201.18
1200.53
1201.16
1202.98
1202.65
1196.51
1174.89
1148.47
1155.43
1191.99
1295.75
1527.01
2030.93
3563.68
7178.13
1429.6
1448.09
1462.73
1471.56
1480.62
1486.01
1489.67
1479.56
1451.91
1425.34
1400.27
1376.42
1354.14
1334.5
1316.46
1300.34
1283.48
1267.53
1252.64
1232.87
1447.79
1468.78
1482.64
1489.06
1498.09
1508.69
1514.25
1496.35
1447.03
1399.64
1364.4
1338.53
1317.63
1299.04
1281.31
1265.28
1249.11
1234.04
1220.39
1203.22
1462.3
1482.39
1493.72
1493.23
1501.73
1520.97
1530.24
1505.28
1435.88
1377.2
1347.27
1330.59
1317.99
1304.58
1289.5
1274.35
1258.34
1243.18
1229
1210.99
1471.07
1488.61
1492.67
1488.03
1475.12
1522.15
1550.79
1538.54
1448.28
1296.08
1291.36
1292.82
1291.46
1285.4
1274.85
1262.82
1248.54
1234.65
1221.54
1204.63
1479.41
1496.21
1499.13
1469.86
1245.8
1230.27
1243.42
1263.75
1279.56
1279.49
1274.76
1264.87
1250.14
1234.26
1218.81
1199.95
1484.36
1506.21
1517.37
1517.69
1231.89
1233.63
1238.46
1249.29
1264.3
1271.79
1270.41
1264.32
1252.25
1236.58
1220.29
1199.42
1488.16
1512.34
1528.04
1547.74
1243.86
1241.55
1242.09
1245.25
1252.76
1261.79
1263.23
1260.79
1252.57
1238.88
1222.25
1198.17
1478.82
1495.75
1505.09
1538.4
1249.45
1234.96
1237.36
1240.43
1245.81
1254.78
1259.5
1258.64
1253.91
1243.52
1227.29
1199.77
1451.16
1446.29
1434.77
1445.19
1243.93
1228.53
1243.74
1254.04
1198
1191.35
1202.54
1212.09
1221.72
1233.17
1244.88
1249.86
1248.53
1242.01
1229
1201.23
1424.25
1397.89
1374.18
1290.54
1224.47
1232.22
1243.93
1238.83
1194.28
1169.87
1172.34
1180.23
1191.1
1204.05
1219.46
1232.98
1236.02
1233.95
1225.63
1200.17
1398.94
1361.88
1343.68
1285.02
1238.5
1237.73
1244.62
1241.05
1206.84
1174.12
1144.06
1146.25
1158.07
1174.63
1192.59
1209.84
1218.2
1218.64
1214.47
1193.01
1375.07
1335.81
1327.3
1288.17
1260.18
1249.09
1247.95
1244.05
1216.95
1184.48
1148.57
1129.17
1133.48
1148.82
1169.1
1187.18
1195.59
1196.39
1192.46
1171.3
1352.93
1315.09
1315.21
1288.15
1277.84
1264.48
1255.14
1249.28
1226.59
1196.69
1163.47
1136.47
1134.36
1139.25
1152.8
1164.02
1165.7
1163.06
1151.38
1133.64
1333.45
1296.81
1302.33
1283.44
1278.19
1272.09
1263.36
1257.75
1237.84
1210.13
1181.58
1155.57
1142.61
1138.28
1134.93
1127.09
1119.49
1114.75
1114.58
1129.45
1315.53
1279.36
1287.61
1273.5
1273.86
1270.81
1264.6
1261.58
1249.05
1225.43
1199.86
1177.56
1159.99
1139.45
1106.92
1088.36
1093.26
1108.65
1118.53
1153.57
1299.51
1263.52
1272.7
1261.79
1264.19
1264.91
1262.1
1260.54
1252.88
1237.85
1216.17
1194.48
1171.44
1135.45
1091.87
1089.46
1100.53
1128.65
1156.77
1224.76
1282.74
1247.49
1256.74
1247.7
1249.47
1252.77
1253.85
1255.53
1251.17
1239.81
1223.02
1201.13
1172.35
1128.11
1097.29
1103.04
1135.98
1206.62
1271.3
1376.77
1266.83
1232.5
1241.59
1233.93
1233.56
1236.71
1240.06
1244.75
1244.02
1237.36
1223.08
1201.48
1169.2
1121.4
1113.89
1132.43
1207.73
1334.69
1479.92
1696.8
1251.96
1218.92
1227.49
1220.89
1218.06
1219.94
1223.32
1228.33
1230.66
1228.3
1218.26
1196.87
1156.48
1120.4
1123.73
1160.78
1273.96
1484.12
1816.59
2515.53
1232.25
1201.95
1209.69
1203.96
1199.13
1198.84
1199.09
1200.6
1202.41
1201.87
1195.43
1174.22
1137.75
1134.31
1158.51
1230.26
1387.04
1719.41
2577.75
5304.71
1424.45
1443.72
1458.55
1467.49
1476.28
1481.29
1484.87
1474.03
1445.26
1418.12
1392.95
1369.25
1347.19
1327.82
1309.89
1293.74
1276.65
1260.12
1244.34
1223.89
1443.3
1464.84
1478.53
1484.31
1492.96
1503.82
1509.55
1490.87
1440.36
1392.19
1357.27
1332.12
1311.92
1293.99
1276.68
1260.81
1244.54
1228.9
1214.12
1195.68
1458.03
1478.45
1489.5
1487.28
1495.4
1515.84
1525.6
1499.78
1428.09
1368.48
1339.78
1324.24
1312.78
1300.47
1285.96
1271.16
1255.04
1239.18
1223.82
1204.22
1466.45
1483.44
1486.41
1477.16
1463.86
1517.2
1545.81
1532.58
1438.64
1283.82
1283.25
1286.97
1286.85
1282
1271.59
1259.46
1244.89
1230.44
1216.62
1198.87
1474.28
1490.23
1492.01
1460.09
1243.09
1223.73
1235.54
1254.93
1273.8
1275.57
1272.19
1263.71
1249.5
1233.3
1216.95
1196.18
1479.2
1500.82
1511.91
1511.94
1221.43
1227.21
1232.37
1243.11
1258.52
1268.27
1267.56
1262.54
1251.78
1236.6
1219.34
1196.42
1482.91
1506.85
1522.33
1541.59
1231.64
1234.69
1235.45
1238.16
1245.2
1255.12
1258.29
1256.5
1249.8
1237.11
1220.44
1195.4
1473.14
1489.79
1498.79
1531.44
1237.28
1226.89
1229.33
1232
1236.58
1245.42
1252.72
1252.41
1248.86
1239.55
1224.46
1197.44
1445.12
1440.48
1428.79
1442.08
1250.21
1220.79
1233.86
1241.01
1192.37
1181.74
1191.54
1200.31
1209.23
1220.64
1234.03
1241.82
1241.52
1236.59
1225.03
1198.89
1418.19
1392.35
1368.63
1286.44
1222.63
1226.98
1236.45
1228.37
1181.96
1157.82
1159.99
1166.85
1176.93
1190.33
1206.5
1222.05
1227.73
1226.55
1220.14
1197.37
1392.96
1356.7
1338.38
1279.79
1233.62
1232.46
1237.1
1230.95
1193.81
1161.44
1130.39
1131.77
1142.12
1159.63
1178.97
1197.68
1208.54
1210.36
1207.75
1189.95
1369.14
1330.87
1322.17
1283.14
1252.38
1243.1
1239.63
1233.75
1203.27
1170
1133.67
1111.03
1115.63
1133.39
1155.63
1175.1
1186.4
1189.09
1186.89
1169.89
1346.94
1310.29
1310.39
1283.14
1270.74
1257.86
1246.21
1238.46
1212.58
1180.9
1146.5
1118.3
1116.9
1122.87
1137.76
1153.17
1158.75
1157.77
1148.72
1129.25
1327.41
1292.19
1298
1278.59
1272.53
1266.8
1255.12
1247.15
1224.35
1194.69
1165.24
1139.12
1125.43
1120.26
1120.93
1119.62
1113.95
1106.41
1102.09
1114.25
1309.26
1274.82
1283.56
1268.63
1269.3
1266.07
1257.83
1253.07
1237.51
1211.14
1184.83
1162.13
1142.78
1123.65
1096.38
1074.21
1075.94
1089.89
1101.89
1130.4
1292.99
1258.94
1268.85
1256.94
1261.02
1261.19
1256.04
1252.44
1243.13
1225.8
1202.82
1180.85
1158.37
1123.92
1076.77
1070.4
1079.48
1100.5
1118.7
1177.42
1275.86
1242.7
1252.76
1242.77
1246.92
1250.47
1249.28
1248.46
1242.28
1229.67
1211.99
1190.38
1162.52
1118.51
1078.89
1081.17
1099.2
1144.46
1191.68
1290.71
1259.32
1227.12
1236.95
1228.68
1230.83
1234.88
1236.64
1238.82
1236.56
1227.95
1212.89
1192.23
1161.17
1110.57
1093.76
1103.64
1146.4
1239.58
1352.82
1548.48
1243.55
1212.45
1221.77
1215.13
1214.46
1217.25
1219.94
1223.48
1224.48
1220.67
1209.76
1189.65
1151.63
1106.29
1106.08
1123.02
1195.61
1356.58
1617.15
2155.31
1223.19
1194.27
1202.48
1197.5
1193.9
1194.41
1194.73
1196.32
1197.92
1196.96
1190.64
1171.24
1131.26
1117.92
1134.45
1182.74
1298.87
1562.47
2186.04
4347.57
1422.21
1441.85
1456.72
1465.48
1473.95
1478.71
1482.31
1471.37
1442.07
1414.49
1389.25
1365.71
1343.78
1324.6
1306.75
1290.43
1273.2
1256.3
1239.92
1219.19
1441.33
1462.69
1476.22
1481.64
1490.11
1501.01
1506.87
1488.32
1436.88
1387.66
1352.44
1327.71
1308.14
1290.84
1274.06
1258.23
1241.96
1226.09
1210.69
1191.86
1455.88
1475.71
1486.35
1483.83
1492.03
1513.01
1522.98
1497.46
1424.05
1362.36
1333.09
1318.42
1308.2
1297.13
1283.51
1268.96
1252.93
1236.94
1221
1200.84
1464.36
1480.19
1481.97
1470.2
1459.05
1513.77
1542.61
1530.06
1434.18
1277.96
1275.53
1280.87
1282.33
1278.75
1269.32
1257.38
1243.08
1228.68
1214.46
1196.4
1472.05
1487.41
1488.64
1454.1
1243.75
1222.57
1231.07
1248.61
1268.51
1272.55
1270.04
1262.76
1249.38
1233.02
1216.09
1194.9
1476.88
1498.35
1509.64
1510.1
1221.37
1226.3
1231.52
1241.73
1256.78
1267.21
1266.86
1262.5
1252.49
1237.48
1219.7
1196.01
1480.47
1504.33
1519.97
1539.09
1231.04
1233.79
1234.2
1236.75
1243.62
1254.12
1257.46
1255.79
1249.53
1237.13
1220.36
1195.25
1470.31
1486.7
1495.35
1527.17
1237.73
1225.68
1227.77
1230.03
1234.07
1242.34
1250.77
1250.75
1247.65
1238.57
1223.71
1197.27
1441.98
1436.69
1424.11
1434.82
1242.67
1219.75
1230.33
1237.73
1188.35
1179.18
1189.24
1197.42
1205.49
1216.4
1230.47
1239.34
1239.34
1235.04
1224.01
1198.89
1415.05
1388.66
1364.22
1280.91
1221.42
1225.27
1233.76
1225.53
1178.73
1153.71
1155.9
1163.06
1173.01
1186.25
1202.28
1217.85
1225.06
1224.37
1218.72
1197.38
1390.11
1353.74
1334.99
1277.69
1231.25
1230.86
1234.31
1227.75
1189.94
1156.25
1124.64
1127.01
1137.54
1154.93
1173.74
1192.21
1204.69
1207.66
1205.63
1189.87
1366.61
1328.71
1319.48
1281.75
1249.2
1241.4
1236.92
1230.3
1198.52
1163.93
1127.52
1102.79
1108.33
1125.69
1147.55
1168
1181.59
1185.7
1184.25
1170.28
1344.63
1308.64
1308.32
1281.94
1268.15
1256.48
1243.72
1234.78
1207.27
1174.62
1139.12
1109.15
1103.48
1110.18
1126.99
1145.32
1154.08
1154.06
1147.5
1130.83
1325.13
1290.87
1296.56
1277.64
1270.96
1266.23
1253.49
1243.39
1218.88
1188.62
1157.24
1127.62
1111.06
1106.85
1110.56
1113.32
1110.67
1104.07
1098.63
1109.24
1306.9
1273.69
1282.55
1267.82
1268.24
1265.72
1256.51
1250.51
1232.9
1205.02
1176.5
1150.28
1129.21
1111.95
1089.28
1069.06
1069.16
1080.68
1093.58
1121.46
1290.28
1257.54
1267.77
1255.9
1260.63
1261.2
1254.83
1250.1
1239.72
1219.98
1195.05
1171.25
1148.46
1115.77
1070.35
1061.47
1069.88
1088.9
1105.28
1161.31
1272.86
1241.05
1251.59
1241.75
1247.07
1251.01
1248.54
1246.56
1239.22
1225.72
1206.56
1184.05
1156.36
1113.11
1070.75
1070.8
1085.05
1124.43
1166.26
1263.77
1255.85
1225.04
1235.46
1227.48
1230.76
1235.59
1236.1
1237.15
1234.15
1224.53
1208.64
1187.28
1155.99
1106.23
1082.88
1090.62
1125.82
1209.69
1315.1
1506.44
1239.41
1209.6
1219.5
1213.31
1213.8
1217.39
1219.32
1222.07
1222.5
1218.09
1206.19
1185.53
1148.83
1100.82
1096.08
1108
1169.21
1317.94
1562.21
2064.9
1218.72
1190.84
1199.5
1195.23
1192.75
1193.86
1194.16
1195.59
1196.94
1195.86
1189.2
1170.1
1130.96
1111.09
1123.81
1164.6
1268.94
1515.3
2083.88
4105.12
1422.12
1441.7
1456.57
1465.11
1473.44
1478.28
1482.03
1471.22
1442.1
1414.53
1389.23
1365.63
1343.69
1324.42
1306.49
1290.15
1272.95
1256.09
1239.76
1219.06
1441.23
1462.56
1476.22
1481.15
1489.22
1500.39
1506.49
1488.14
1437.1
1387.99
1352.56
1327.58
1307.82
1290.41
1273.57
1257.74
1241.52
1225.71
1210.38
1191.6
1455.83
1475.52
1486.35
1483.24
1490.91
1512.35
1522.54
1497.25
1424.63
1363.37
1333.62
1318.22
1307.56
1296.32
1282.71
1268.24
1252.29
1236.38
1220.51
1200.44
1464.58
1480.49
1482.39
1468.52
1459.51
1512.53
1541.47
1529.24
1434.29
1279.01
1276.78
1281.39
1281.97
1277.96
1268.26
1256.31
1242.13
1227.88
1213.78
1195.87
1472.45
1488.09
1489.43
1450.08
1239.28
1222.36
1231.15
1248.54
1267.94
1271.52
1268.97
1261.64
1248.24
1231.92
1215.1
1194.1
1477.21
1498.8
1510.07
1510.08
1220.86
1225.82
1231.27
1241.53
1256.55
1266.82
1266.41
1262.04
1251.96
1236.77
1218.86
1195.28
1480.59
1504.47
1520.09
1538.89
1228.59
1233.45
1234.44
1237.23
1244.17
1254.7
1257.7
1255.89
1249.45
1236.89
1220.01
1194.83
1470.2
1486.52
1495.18
1526.71
1237
1225.35
1228.16
1230.74
1234.89
1243.27
1251.4
1251.19
1247.8
1238.54
1223.58
1196.97
1441.78
1436.55
1424.2
1435.01
1231.91
1218.69
1229.17
1237.43
1186.34
1178.69
1189.93
1198.41
1206.55
1217.48
1231.61
1239.98
1239.81
1235.24
1224.04
1198.7
1414.78
1388.41
1364.17
1278.98
1220.01
1225.27
1234.17
1225.38
1178.44
1153.9
1156.59
1163.92
1173.75
1186.96
1203.13
1218.71
1225.68
1224.86
1218.99
1197.31
1389.87
1353.65
1335.32
1278.53
1230.76
1230.89
1234.75
1227.62
1189.48
1156.44
1125.07
1127.47
1137.86
1155.22
1174.24
1192.97
1205.45
1208.29
1206.16
1190.01
1366.5
1328.9
1319.96
1282.81
1249.6
1241.7
1237.27
1230.11
1197.96
1163.76
1127.59
1102.66
1108.26
1125.81
1147.87
1168.58
1182.3
1186.33
1184.84
1170.51
1344.6
1309.09
1309
1283.15
1269.39
1257.31
1244.11
1234.48
1206.56
1174.02
1138.43
1108.67
1103.7
1110.41
1127.31
1145.9
1154.71
1154.66
1148.05
1131.12
1325.23
1291.49
1297.38
1278.92
1272.44
1267.32
1254.18
1243.08
1218.03
1187.77
1156.33
1127.06
1111.11
1107.13
1111.08
1114.12
1111.49
1104.73
1099.15
1109.49
1307.1
1274.38
1283.43
1269.02
1269.64
1266.74
1257.08
1250.54
1232.16
1204.22
1175.83
1149.93
1129.19
1112.1
1089.79
1069.71
1069.65
1080.98
1093.85
1121.6
1290.54
1258.23
1268.63
1256.94
1261.84
1262.05
1255.36
1250.23
1239.43
1219.37
1194.56
1170.95
1148.25
1115.61
1070.25
1061.51
1070.07
1089.02
1105.4
1161.27
1273.13
1241.69
1252.38
1242.59
1248.05
1251.67
1248.97
1246.8
1239.05
1225.31
1206.05
1183.61
1156.04
1112.78
1070.4
1070.57
1084.92
1124.26
1165.92
1263.43
1256.11
1225.62
1236.18
1228.14
1231.52
1236.16
1236.39
1237.43
1234.18
1224.22
1208.15
1186.82
1155.65
1105.77
1082.27
1090.09
1125.32
1208.95
1314.02
1505.58
1239.65
1210.09
1220.09
1213.81
1214.45
1217.89
1219.5
1222.34
1222.65
1217.96
1205.78
1185.09
1148.39
1100.12
1095.38
1107.36
1168.49
1316.51
1559.98
2062.35
1218.89
1191.19
1199.92
1195.6
1193.26
1194.22
1194.3
1195.8
1197.13
1195.92
1189.01
1169.74
1130.43
1110.4
1123.24
1164.12
1268.05
1513.35
2079.19
4094.99
1424.21
1443.42
1458.32
1466.88
1475.39
1480.49
1484.32
1473.66
1445.02
1417.97
1392.83
1369.15
1347.03
1327.61
1309.61
1293.45
1276.39
1259.93
1244.2
1223.78
1442.98
1464.42
1478.4
1483.56
1491.64
1502.77
1508.88
1490.47
1439.93
1391.69
1356.62
1331.37
1311.08
1293.07
1275.75
1259.93
1243.77
1228.26
1213.6
1195.27
1457.73
1477.76
1489.02
1486.37
1493.85
1514.82
1524.95
1499.43
1427.23
1367.37
1338.42
1322.82
1311.44
1299.19
1284.75
1270.05
1254.02
1238.27
1223.06
1203.59
1466.75
1483.5
1486.1
1472.88
1462.03
1514.23
1543.43
1530.82
1435.02
1282.04
1281.85
1285.38
1285.21
1280.31
1269.95
1257.94
1243.55
1229.32
1215.7
1198.1
1474.98
1491.31
1493.16
1452.83
1241.34
1223.61
1234.44
1253.35
1272.01
1273.75
1270.4
1261.94
1247.74
1231.6
1215.34
1194.8
1479.74
1501.51
1512.67
1511.73
1220.04
1226.77
1231.96
1242.46
1257.58
1267.32
1266.66
1261.68
1250.88
1235.38
1217.93
1195.08
1482.98
1506.86
1522.32
1540.59
1231.03
1235.52
1235.88
1238.34
1245.25
1255.07
1258.25
1256.45
1249.59
1236.77
1219.99
1194.72
1472.78
1488.98
1497.43
1528.18
1238.47
1228.15
1230.22
1232.68
1237.2
1246.05
1253.01
1252.58
1248.78
1239.33
1224.17
1196.84
1444.57
1439.05
1426.29
1436.02
1241.24
1219.93
1231.03
1238.11
1187.77
1181.47
1193
1201.89
1210.66
1222.02
1235.49
1242.47
1241.93
1236.66
1224.9
1198.43
1417.79
1391.31
1366.91
1284.1
1224.08
1227.37
1235.53
1226.89
1179.55
1158.01
1161.27
1168.56
1178.52
1191.8
1208.15
1223.49
1228.45
1227.06
1220.34
1197.07
1392.88
1356.56
1338.22
1281.34
1234.76
1233.02
1236.2
1229.58
1191.52
1160.55
1130.26
1132.26
1143.22
1160.96
1180.59
1199.22
1209.54
1211.04
1208.29
1189.93
1369.33
1331.44
1323.01
1285.16
1253.81
1243.79
1238.95
1232.43
1201.08
1168.09
1132.23
1110.47
1115.83
1134.52
1157.12
1176.45
1187.26
1189.69
1187.41
1169.91
1347.31
1311.26
1311.75
1285.2
1272.68
1258.99
1246.05
1237.29
1210.51
1178.66
1143.73
1116.45
1117.21
1123.96
1139.12
1154.29
1159.32
1158.19
1149.01
1129.33
1327.92
1293.33
1299.5
1280.54
1274.4
1268.13
1255.69
1246.35
1222.51
1192.57
1162.38
1136.65
1125.12
1120.99
1122.14
1120.87
1114.68
1106.69
1102.2
1114.34
1309.9
1276
1285.01
1270.28
1271
1267.33
1258.54
1253.19
1236.24
1209.32
1182.58
1160.09
1141.65
1123.4
1096.94
1074.52
1075.88
1089.66
1101.78
1130.56
1293.65
1260.08
1270.2
1258.26
1262.43
1262.2
1256.71
1252.73
1242.75
1224.53
1201.2
1179.3
1157.07
1122.97
1075.68
1069.61
1078.99
1100.12
1118.43
1177.7
1276.48
1243.75
1254.02
1243.81
1248.06
1251.25
1249.81
1248.89
1242.1
1228.95
1210.87
1189.23
1161.5
1117.17
1077.39
1079.84
1098.2
1143.46
1190.39
1290.62
1259.87
1228.04
1238.08
1229.47
1231.72
1235.52
1236.93
1239.3
1236.65
1227.4
1211.94
1191.18
1160.17
1109.05
1091.79
1101.74
1144.59
1237.1
1349.46
1547.59
1244.01
1213.22
1222.71
1215.72
1215.2
1217.78
1220.09
1224
1224.69
1220.42
1208.97
1188.66
1150.52
1104.43
1104.06
1120.78
1192.64
1351.48
1609.97
2150.77
1223.52
1194.81
1203.14
1197.92
1194.48
1194.79
1194.85
1196.71
1198.15
1196.94
1190.17
1170.4
1130.04
1116.17
1132.74
1180.51
1294.81
1554.7
2166.96
4315.66
1429.41
1447.89
1462.56
1471.18
1480.03
1485.43
1489.31
1479.18
1451.36
1424.88
1399.96
1376.24
1354.02
1334.42
1316.42
1300.32
1283.49
1267.59
1252.76
1233.03
1447.48
1468.46
1482.52
1488.47
1497.17
1507.94
1513.93
1496.08
1446.08
1398.49
1363.43
1337.81
1317.05
1298.52
1280.82
1264.8
1248.67
1233.69
1220.16
1203.11
1462.08
1482.02
1493.51
1492.45
1500.68
1520.23
1530.07
1505.34
1434.15
1374.69
1345.29
1329.47
1317.42
1304.21
1289.12
1273.92
1257.88
1242.76
1228.68
1210.78
1471.13
1488.69
1492.67
1481.56
1469.6
1518.75
1547.9
1535.51
1441.34
1292.47
1288.41
1290.98
1290.39
1284.93
1274.5
1262.42
1248.14
1234.31
1221.31
1204.42
1479.79
1496.9
1499.85
1461.33
1244.87
1229.48
1242.06
1262.36
1278.66
1278.71
1274.13
1264.31
1249.57
1233.62
1218.15
1199.32
1484.75
1506.71
1517.97
1515.81
1221.73
1232.36
1237.77
1248.95
1264.11
1271.62
1270.23
1264.22
1252.09
1236.2
1219.73
1198.83
1488.08
1512.02
1527.47
1544.73
1233.37
1240.83
1241.78
1245.22
1252.86
1261.82
1263.25
1260.83
1252.56
1238.84
1222.22
1198.14
1478.25
1494.49
1503.05
1533
1240.12
1234.65
1237.29
1240.44
1245.85
1254.89
1259.68
1258.8
1254.05
1243.69
1227.52
1199.88
1450.64
1444.93
1432.79
1441.86
1239.4
1222.47
1234.46
1241.4
1191.92
1190.24
1201.52
1211.39
1221.4
1233.17
1245.24
1250.29
1248.95
1242.43
1229.48
1201.56
1424.06
1397.31
1373.51
1291.22
1227.21
1232.89
1243.12
1237.99
1192.96
1168.03
1170.42
1178.76
1190.35
1204
1219.9
1233.69
1236.87
1234.8
1226.41
1200.59
1399.06
1362.11
1344.06
1286.74
1240.82
1238.21
1243.93
1239.98
1205.35
1172.33
1141.67
1143.86
1156.48
1174.31
1193.12
1210.73
1219.31
1219.77
1215.49
1193.42
1375.39
1336.5
1328.22
1289.69
1261.66
1249.39
1247.29
1242.85
1215.05
1182.44
1145.96
1127.12
1132.03
1148.47
1169.75
1188.17
1196.71
1197.43
1193.3
1171.47
1353.34
1315.96
1316.26
1289.36
1278.48
1264.76
1254.65
1248.12
1224.68
1194.59
1160.84
1134.03
1133.62
1139.27
1153.58
1165.1
1166.78
1163.97
1151.94
1133.85
1333.9
1297.71
1303.29
1284.23
1278.66
1272.32
1263.23
1256.84
1236.15
1208.13
1179.16
1153.08
1141.88
1138.38
1135.93
1128.81
1120.84
1115.19
1114.65
1129.58
1316
1280.22
1288.43
1274.03
1274.22
1270.96
1264.56
1261.08
1247.72
1223.59
1197.77
1175.4
1158.54
1138.96
1107.54
1088.71
1093.27
1108.36
1118.14
1153.96
1299.96
1264.34
1273.44
1262.17
1264.48
1264.92
1262.05
1260.11
1252.01
1236.41
1214.56
1192.89
1170.08
1134.26
1090.95
1089.02
1100
1127.77
1155.87
1225.57
1283.13
1248.24
1257.46
1248.01
1249.76
1252.74
1253.73
1255.13
1250.41
1238.74
1221.79
1199.95
1171.16
1126.54
1095.89
1101.68
1134.67
1204.63
1268.89
1378.04
1267.19
1233.19
1242.28
1234.21
1233.86
1236.75
1239.91
1244.49
1243.5
1236.42
1221.92
1200.36
1168.02
1119.68
1111.83
1130.28
1205.48
1330.58
1474.5
1699.29
1252.26
1219.55
1228.11
1221.15
1218.33
1220.09
1223.2
1228.26
1230.33
1227.65
1217.28
1195.82
1155.27
1118.47
1121.69
1158.36
1269.89
1475.19
1801.98
2517.18
1232.49
1202.44
1210.14
1204.17
1199.39
1199.06
1199.02
1200.64
1202.27
1201.5
1194.72
1173.26
1136.36
1132.5
1156.83
1227.57
1380.01
1702.92
2529.89
5256.7
1436
1453.97
1468.68
1477.72
1486.95
1492.89
1497.13
1487.85
1460.91
1434.62
1409.06
1384.66
1362.27
1342.53
1324.66
1308.6
1292.11
1276.5
1261.88
1241.6
1453.57
1474.3
1488.59
1495.78
1505.3
1515.83
1521.83
1504.87
1456.4
1409.16
1372.92
1345.48
1323.52
1304.5
1286.95
1271.04
1255.17
1240.62
1227.54
1210.27
1468.16
1488.18
1500.58
1501.85
1510.7
1528.39
1538.01
1514.57
1444.66
1385.58
1355.33
1337.45
1323.17
1308.64
1293.27
1278.01
1262.39
1247.96
1234.5
1216.92
1477.44
1495.84
1502.12
1494.63
1482.61
1525.13
1553.97
1542.87
1453.92
1304.72
1297.92
1298.65
1296.59
1290.01
1279.6
1267.7
1253.63
1240.13
1227.3
1210
1486.41
1504.75
1509.57
1474.94
1250.76
1237.2
1251.98
1273.13
1284.79
1283.5
1277.34
1266.26
1251.15
1235.91
1221.32
1203.27
1491.82
1514.25
1525.89
1522.05
1231.89
1242.14
1247.69
1258.65
1272.13
1275.69
1273.48
1266.06
1252.9
1237.51
1222.02
1201.91
1495.53
1519.44
1534.9
1550.62
1244.1
1252.3
1253.02
1256.41
1263.49
1269.25
1268.89
1264.59
1254.34
1239.91
1223.53
1200.27
1486.44
1502.33
1510.89
1539.43
1251.8
1248.57
1250.03
1252.42
1257.74
1264.99
1266.59
1264.58
1257.84
1245.25
1227.94
1200.9
1459.44
1453.56
1440.89
1450.42
1251.89
1232.01
1247.15
1256.92
1200.24
1202.71
1215.91
1225.53
1235.02
1245.72
1255.19
1257.19
1254.45
1245.69
1230.99
1202.31
1432.95
1406.27
1382
1302.83
1236.71
1243.52
1255.95
1252.38
1205.79
1177.84
1181.58
1191.3
1203.38
1216.49
1231.15
1242.29
1243.48
1240.07
1229.18
1201.5
1407.34
1369.97
1351.79
1295.34
1251.54
1249.55
1256.76
1254.03
1220.63
1184.39
1153.04
1156.1
1168.93
1185.83
1204.55
1220.85
1226.59
1225.98
1219.28
1194.18
1383.11
1342.69
1334.1
1295.94
1272.51
1260.33
1260.19
1256.87
1231.41
1197.42
1159.92
1141.8
1145.71
1161.16
1182.62
1198.22
1203.1
1202.74
1196.15
1171.11
1361.01
1321.08
1320.21
1293.93
1284.05
1273.66
1266.8
1262.38
1241.63
1211.1
1176.4
1149.02
1146.97
1152.57
1164.89
1171.27
1170.77
1165.65
1151.97
1143.43
1341.45
1302.46
1306.26
1287.67
1282.71
1276.92
1271.86
1268.96
1252.26
1224.72
1194.72
1167.98
1155.8
1149.52
1139.93
1128.98
1124.76
1125.8
1131.34
1150.53
1323.73
1285.26
1291.4
1277.67
1276.51
1274.55
1271.32
1269.66
1260.16
1238.64
1213.56
1191.54
1172.71
1145.56
1110.3
1105.54
1114.42
1128.77
1140
1188.78
1307.77
1269.61
1276.5
1266.16
1265.51
1266.84
1266.69
1267.26
1260.67
1247.31
1227.57
1205.54
1178.96
1138.16
1107.75
1110.28
1126.62
1164.9
1208.04
1295.04
1291.29
1253.87
1261.04
1252.31
1250.46
1253.29
1256.02
1259.93
1257.3
1247.29
1230.92
1208.28
1177.91
1132.77
1118.03
1128.57
1183.04
1287.78
1388.06
1525.78
1275.67
1239.36
1246.65
1238.95
1235.24
1237.52
1241.11
1246.75
1247.81
1242.92
1229.72
1207.59
1172.25
1132.24
1133.58
1166.67
1286.84
1485.92
1715.71
2019.56
1261
1226.29
1233.19
1226.17
1220.57
1221.73
1224.35
1229.09
1232.62
1231.18
1222.23
1200.42
1157.67
1136.67
1144.4
1208.13
1384.18
1709.95
2297.37
3491.17
1240.73
1209.1
1215.68
1208.96
1202.4
1201.45
1200.74
1201.57
1203.43
1202.98
1196.5
1174.54
1147.69
1154.49
1190.92
1293.15
1519.48
2007.1
3474.25
7154.11
1448.21
1467.28
1482.49
1492.26
1502
1508.58
1513.52
1505.72
1479.7
1453.82
1427.77
1402.92
1380.3
1359.86
1341.34
1324.37
1307.2
1290.62
1274.59
1251.47
1466.79
1488.64
1503.28
1511.49
1521.64
1532.06
1538.53
1522.95
1476.59
1429.55
1392.16
1363.32
1340.24
1320.44
1302.39
1285.77
1269.46
1254.29
1240.01
1219.95
1481.69
1502.71
1515.62
1518.49
1527.71
1543.22
1553.2
1531.05
1462.2
1404.77
1373.89
1354.08
1337.84
1322.24
1306.32
1290.63
1274.81
1259.96
1245.66
1225.98
1491.38
1510.86
1518.06
1507.6
1499.27
1534.2
1562.5
1553.58
1467.31
1320.91
1317.61
1316.04
1311.48
1303.4
1292.31
1279.92
1265.6
1251.7
1238.12
1219.21
1500.72
1520.32
1526.03
1493.08
1265.77
1245.45
1266.4
1290.49
1298.15
1295.8
1288.18
1275.63
1259.6
1243.83
1228.93
1210.64
1506.94
1529.87
1540.36
1531.15
1238.29
1251.52
1259.62
1273.06
1286.16
1287.1
1283.88
1274.75
1260.44
1244.31
1228.11
1207.7
1511.49
1535.5
1549.38
1558.99
1253.76
1261.97
1264.13
1269.58
1278.04
1281.22
1279.75
1273.35
1261.03
1244.73
1226.91
1203.78
1503.69
1519.16
1525.23
1548.88
1261.16
1258.08
1260.44
1264.1
1271.27
1277.51
1277.6
1274.13
1264.59
1248.55
1229.46
1202.78
1477.39
1471.44
1453.4
1454.37
1260.37
1241.33
1257.54
1265.32
1193.52
1207.18
1224.28
1236.33
1247.76
1259.55
1267.51
1267.38
1262.35
1250.15
1232.82
1203.53
1451.44
1424.68
1397.37
1314.54
1249.69
1256.53
1267.24
1262.65
1212.52
1180.19
1186.34
1199.65
1214.65
1229.98
1244.79
1252.84
1252.17
1245.72
1231.7
1202.49
1425.6
1388.02
1368.58
1313.24
1268.46
1264.5
1269.5
1265.61
1231.57
1190.65
1160.37
1165.48
1179.66
1197.22
1216.89
1231.46
1234.58
1232.51
1222.83
1194.72
1401.15
1359.9
1350.19
1312.34
1289.87
1276.66
1274.51
1269.63
1243.78
1207.31
1169.64
1151.65
1155.09
1170.8
1193.41
1207.98
1210.43
1208.78
1198.57
1171.09
1378.95
1337.42
1334.75
1308.29
1296.32
1287.75
1281.66
1276.52
1255.14
1223.08
1187.24
1158.53
1154.69
1160.44
1172.45
1177
1174.88
1167.65
1155.67
1155.5
1358.81
1318.1
1319.72
1300.68
1294
1288.12
1283.74
1281.1
1266.2
1238.37
1206.2
1177.9
1163.87
1153.53
1139.52
1131.97
1132.29
1139.54
1147.41
1167.92
1340.48
1300.43
1304.24
1290
1286.45
1284.7