/*--------------------------------*- C++ -*----------------------------------*\
  =========                 |
  \\      /  F ield         | OpenFOAM: The Open Source CFD Toolbox
   \\    /   O peration     | Website:  https://openfoam.org
    \\  /    A nd           | Version:  9
     \\/     M anipulation  |
\*---------------------------------------------------------------------------*/
FoamFile
{
    format      ascii;
    class       volVectorField;
    location    "0.0025";
    object      U;
}
// * * * * * * * * * * * * * * * * * * * * * * * * * * * * * * * * * * * * * //

dimensions      [0 1 -1 0 0 0 0];

internalField   nonuniform List<vector> 
9720
(
(-1178.19 -1178.09 -300.221)
(-869.844 -1227.06 -319.43)
(-691.382 -1272.83 -306.273)
(-500.151 -1317.75 -316.903)
(-297.384 -1404.2 -321.232)
(-51.3315 -1444.72 -330.524)
(223.513 -1476.11 -342.801)
(517.664 -1499.08 -351.834)
(899.163 -1477.91 -352.702)
(1220.09 -1373.13 -352.221)
(1486.1 -1243.12 -352.329)
(1711.38 -1125.8 -353.922)
(1909.47 -1027.07 -354.938)
(2092.93 -949.601 -353.765)
(2270.57 -899.743 -356.801)
(2444.06 -844.238 -340.371)
(2621.02 -838.507 -359.513)
(2797.34 -817.765 -351.376)
(2962.2 -788.478 -338.295)
(3242.74 -786.888 -336.709)
(-1225.54 -870.902 -319.066)
(-927.081 -931.937 -325.561)
(-755.816 -987.729 -294.13)
(-578.123 -1052.79 -302.016)
(-387.544 -1182.53 -320.426)
(-118.389 -1261.61 -323.747)
(191.734 -1304.98 -340.484)
(546.108 -1321.2 -345.181)
(1051.03 -1243.55 -345.523)
(1430.51 -996.953 -347.106)
(1683.58 -758.891 -348.128)
(1868.42 -585.803 -356.755)
(2031.03 -482.958 -366.789)
(2185.32 -425.379 -371.981)
(2338.05 -395.929 -383.983)
(2492.49 -372.776 -364.686)
(2650 -370.579 -385.685)
(2814.09 -367.403 -386.066)
(2967.41 -360.161 -367.317)
(3234.38 -363.826 -360.15)
(-1269.37 -693.887 -304.191)
(-979.842 -763.845 -291.106)
(-812.041 -824.105 -246.93)
(-663.346 -918.086 -260.779)
(-473.296 -1088.35 -301.316)
(-172.043 -1181.91 -306.765)
(164.574 -1219.41 -319.796)
(578.404 -1227.5 -317.106)
(1231.95 -1075.02 -304.026)
(1655.73 -721.589 -303.36)
(1844 -444.417 -291.627)
(1974.78 -272.604 -287.469)
(2105.51 -182.777 -297.213)
(2240.19 -136.67 -310.422)
(2381.05 -113.96 -332.153)
(2529.57 -96.3585 -327.724)
(2683.73 -94.4372 -353.282)
(2845.18 -93.916 -352.347)
(2996.12 -88.0321 -345.662)
(3258.57 -91.8071 -343.301)
(-1314.74 -501.081 -310.659)
(-1046.56 -583.436 -291.337)
(-909.51 -675.355 -245.866)
(-822.236 -833.425 -281.416)
(-671.42 -1022.48 -324.851)
(-298.727 -1098.96 -323.375)
(55.4841 -1112.31 -332.772)
(443.111 -1133.32 -339.375)
(1205.96 -998.064 -354.975)
(1935.18 -264.917 -330.548)
(1979.69 -46.255 -330.985)
(2050.48 75.9778 -303.445)
(2149.92 132.71 -289.246)
(2266.78 159.538 -290.887)
(2398.74 171.843 -311.701)
(2548.77 181.187 -309.273)
(2704.57 192.248 -356.445)
(2870.99 188.861 -372.146)
(3026 197.055 -369.353)
(3292.05 198.888 -381.338)
(-1401.34 -295.4 -314.597)
(-1179.12 -385.514 -309.145)
(-1085.35 -472.58 -287.006)
(-1024.56 -665.705 -287.091)
(1854.72 -137.128 -404.746)
(2035.55 138.238 -313.472)
(1994.33 230.775 -314.002)
(2002.05 343.026 -304.426)
(2076.57 402.439 -303.082)
(2174.84 422.398 -310.013)
(2296.78 420.439 -327.455)
(2444.69 403.151 -336.506)
(2605.27 406.273 -392.721)
(2776.5 391.41 -391.924)
(2938.8 399.672 -385.373)
(3221.19 416.711 -403.205)
(-1442.84 -50.3246 -331.221)
(-1259.93 -115.999 -323.928)
(-1180.37 -170.563 -304.945)
(-1091.78 -294.424 -312.518)
(2158.64 312.352 -316.695)
(2316.49 431.106 -309.666)
(2294.19 448.662 -315.794)
(2257.98 490.378 -313.827)
(2269.78 539.343 -313.783)
(2318.35 574.427 -319.814)
(2397.22 592.043 -331.191)
(2508.37 586.988 -341.23)
(2641.55 599.569 -389.391)
(2793.49 585.113 -384.198)
(2944.33 591.029 -385.999)
(3210.27 613.986 -410.247)
(-1473.46 222.191 -345.442)
(-1303.14 190.292 -342.721)
(-1219.95 161.63 -321.796)
(-1115.81 53.8892 -334.535)
(2431.72 643.959 -328.277)
(2559 739.687 -312.968)
(2544.48 734.809 -317.945)
(2508.24 740.466 -316.706)
(2477.94 772.961 -315.23)
(2487.02 793.729 -315.905)
(2519.02 805.12 -319.087)
(2585.04 801.189 -324.705)
(2685.09 811.344 -363.14)
(2818.08 792.89 -359.272)
(2959.87 796.149 -367.902)
(3211.79 823.389 -400.796)
(-1496.29 518.199 -355.041)
(-1316.57 549.886 -350.683)
(-1223.99 588.496 -325.37)
(-1135.15 452.793 -341.334)
(2637.61 922.638 -316.864)
(2766.26 1026.38 -301.919)
(2788.78 995.841 -307.028)
(2776.73 984.153 -306.316)
(2745.34 979.121 -300.204)
(2707.26 987.471 -302.76)
(2699.68 1003.36 -310.031)
(2715.93 1004.88 -312.829)
(2767.46 1014.6 -335.579)
(2864.41 1000.1 -334.256)
(2985.09 1006.9 -350.145)
(3212.75 1033.47 -392.037)
(-1473.62 900.14 -359.137)
(-1233.56 1054.65 -356.855)
(-1058.81 1238.81 -326.737)
(-968.788 1228.48 -384.397)
(-103.981 1842.5 -406.263)
(305.908 2190.54 -328.203)
(644.787 2442.03 -328.555)
(927.444 2626.06 -304.927)
(2160.87 2367.56 -330.447)
(2645.15 1666.79 -297.442)
(2778.04 1511.37 -297.242)
(2849.71 1417.38 -289.521)
(2874.7 1346.81 -284.069)
(2863.39 1298.52 -288.537)
(2849.3 1264.47 -305.21)
(2856.48 1246.17 -312.637)
(2885.18 1241.7 -327.169)
(2950.44 1222.15 -325.527)
(3039.86 1229.47 -343.79)
(3227.79 1253.35 -388.397)
(-1367.04 1219.82 -362.083)
(-985.106 1430.61 -362.768)
(-705.632 1652.56 -328.304)
(-251.464 1923.84 -365.743)
(137.333 2028.39 -340.336)
(428.913 2310.43 -312.326)
(740.098 2544.42 -301.234)
(1027.89 2748.84 -278.043)
(1622.26 2687.91 -287.706)
(2158.17 2232.43 -243.853)
(2505.82 1931.06 -227.722)
(2718.96 1826.49 -288.159)
(2827.95 1734.94 -306.016)
(2877.18 1655.13 -296.727)
(2920.54 1581.35 -289.184)
(2956.75 1524.06 -298.044)
(2987.54 1502.34 -319.231)
(3038.48 1476.11 -315.088)
(3102.96 1479.67 -336.456)
(3265.73 1489.52 -386.666)
(-1237.35 1485.02 -364.468)
(-749.125 1681.49 -366.615)
(-434.052 1839.03 -316.313)
(-39.8526 1970.69 -360.246)
(229.76 1992.78 -339.176)
(448.006 2288.44 -318.692)
(735.682 2532.86 -303.966)
(993.273 2768.68 -282.802)
(1493.13 2798.43 -270.192)
(1913.9 2562.47 -218.931)
(2230.88 2278.23 -262.13)
(2528.98 2120.28 -344.648)
(2702.54 2044.64 -328.983)
(2806.78 1969.75 -278.668)
(2904.29 1888.68 -247.352)
(2982.46 1821.97 -260.189)
(3034.57 1796.13 -291.151)
(3090.8 1761.01 -291.893)
(3158.03 1756.99 -340.668)
(3352.9 1730.11 -403.829)
(-1120.8 1710.03 -366.682)
(-579.713 1866.02 -375.098)
(-267.529 1971.57 -309.588)
(76.9213 2045.23 -327.523)
(338.055 2005.36 -324.322)
(488.724 2257.66 -316.128)
(742.231 2502.29 -303.095)
(979.943 2754.78 -282.415)
(1400.86 2849.19 -254.704)
(1822.08 2755.63 -242.9)
(2112.53 2582.52 -319.863)
(2372.82 2408.23 -350.595)
(2588.89 2284.79 -268.1)
(2744.24 2218.19 -198.849)
(2854.42 2173.74 -191.851)
(2943.06 2136.42 -235.716)
(3035.59 2110.94 -282.989)
(3135.69 2046.23 -309.038)
(3257.38 2030.95 -392.578)
(3501.19 1973.31 -427.91)
(-1023.03 1908.12 -367.09)
(-479.394 2028.83 -382.827)
(-180.34 2103.51 -315.441)
(132.793 2146.82 -308.395)
(396.635 2080.52 -318.376)
(536.607 2271.42 -314.918)
(769.94 2483.25 -304.615)
(975.917 2723.41 -277.605)
(1330.39 2868.25 -247.874)
(1723.88 2846.68 -256.993)
(2048.07 2743.01 -282.903)
(2282.31 2621.75 -242.953)
(2502.3 2511.75 -155.881)
(2689.08 2450.72 -135.47)
(2798.49 2432.21 -199.475)
(2911.61 2411.18 -292.055)
(3057.75 2379.43 -348.734)
(3208.88 2300.66 -375.23)
(3376.6 2318.33 -418.661)
(3564.69 2248.59 -383.913)
(-946.264 2091.63 -364.719)
(-422.931 2183.41 -385.296)
(-135.211 2238.9 -325.106)
(158.641 2265 -306.3)
(415.676 2178.88 -321.571)
(571.454 2319.43 -319.687)
(786.629 2494.94 -305.416)
(988.539 2694.27 -284.902)
(1283.1 2856.73 -259.956)
(1639.45 2893.28 -255.623)
(1964.63 2839.99 -232.898)
(2226.75 2773.13 -157.144)
(2464.99 2702.23 -111.081)
(2638.88 2641.45 -172.306)
(2780.35 2621.16 -294.576)
(2951.88 2619.52 -389.275)
(3118.33 2629.53 -385.575)
(3222.31 2589.39 -354.076)
(3343.77 2602.71 -320.466)
(3468.28 2410.04 -262.838)
(-896.846 2269.33 -366.581)
(-393.771 2336.47 -395.06)
(-112.672 2380.17 -344.159)
(170.419 2397.34 -324.952)
(412.892 2300.34 -336.45)
(588.196 2396.63 -329.762)
(797.052 2528.56 -308.475)
(1001.55 2693.96 -291.652)
(1255.01 2842.13 -283.847)
(1564.15 2932.81 -258.627)
(1876.23 2931.53 -210.323)
(2172.96 2881.07 -148.634)
(2444.55 2819.29 -158.613)
(2622.52 2799.16 -271.709)
(2819.91 2828.13 -384.293)
(3016.52 2871.53 -375.043)
(3085.79 2869.96 -283.153)
(3093.87 2767.65 -221.092)
(3230.51 2676.19 -196.539)
(3375.4 2322.72 -174.439)
(-841.744 2442.93 -348.838)
(-370.741 2491.06 -373.652)
(-95.1206 2528.69 -337.029)
(179.587 2547 -321.055)
(395.356 2447.52 -342.971)
(583.015 2505.65 -338.925)
(792.959 2595.82 -313.52)
(1002.55 2715.68 -295.676)
(1241.04 2851.76 -292.376)
(1512.08 2959.86 -275.577)
(1808.05 2997.31 -232.24)
(2128 2964.19 -196.463)
(2414.69 2933.9 -245.681)
(2623.88 2966.59 -350.258)
(2875.47 3011.19 -355.31)
(3003.62 2992.17 -260.723)
(2981.13 2890.19 -181.947)
(2937.78 2629.82 -121.023)
(3068.38 2386.83 -85.119)
(3171.22 2111.3 -125.407)
(-836.279 2619.99 -367.673)
(-368.52 2648.7 -393.962)
(-92.9567 2682.77 -361.716)
(190.993 2702.24 -367.283)
(399.71 2607.01 -398.035)
(595.55 2636.97 -387.2)
(802.76 2695.52 -351.681)
(1012.07 2772.09 -321.562)
(1237.54 2883.47 -309.326)
(1494.53 2987.94 -299.157)
(1784.79 3039.18 -267.107)
(2099.8 3049.06 -246.333)
(2375.75 3077.98 -301.017)
(2630.22 3131.03 -340.267)
(2871.8 3085.26 -253.88)
(2890.42 2982.6 -170.738)
(2689.4 2695.12 -104.312)
(2567.54 2274.38 -88.629)
(2703.28 2089.39 -99.9253)
(2843.31 2077.87 -164.395)
(-815.97 2796.34 -358.945)
(-365.616 2812.73 -393.667)
(-92.5256 2843.92 -359.922)
(188.05 2868.04 -382.439)
(386.99 2777.3 -396.14)
(581.753 2788.1 -381.777)
(785.046 2827.54 -348.069)
(996.61 2871.79 -321.416)
(1218.98 2952.44 -309.657)
(1470.48 3038.42 -297.24)
(1751.72 3091.97 -268.914)
(2035.75 3145.75 -273.428)
(2296 3228.18 -331.031)
(2587.82 3239.83 -314.443)
(2767.48 3104.89 -196.076)
(2633.22 2953.83 -109.493)
(2284.38 2579.5 -86.8682)
(2240.79 2229.89 -152.154)
(2336.94 2063.03 -211.615)
(2444.94 2091.01 -254.877)
(-786.962 2961.12 -345.415)
(-358.513 2965.86 -374.214)
(-86.63 2994.58 -351.781)
(196.911 3022.64 -377.966)
(397.136 2938.72 -389.288)
(587.496 2939.17 -383.557)
(787.872 2967.89 -358.085)
(1001.83 2993.37 -338.532)
(1226.58 3043.9 -329.415)
(1476.09 3102.68 -318.726)
(1750.1 3159.6 -314.892)
(2021.08 3266.06 -353.604)
(2312.21 3396.21 -377.071)
(2598.06 3363.78 -289.506)
(2675.2 3249.15 -180.031)
(2399.85 3090.37 -82.6805)
(2111.57 2711.62 -100.685)
(2086.77 2324.32 -211.2)
(2129.39 2110.5 -305.682)
(2204.34 2153.84 -344.794)
(-785.632 3241.7 -343.543)
(-362.412 3232.9 -366.904)
(-90.4981 3257.14 -348.996)
(199.367 3289.24 -388.237)
(415.408 3220.32 -407.882)
(610.684 3206.4 -409.15)
(815.248 3217.23 -393.49)
(1027.85 3220.18 -382.353)
(1251.02 3231.63 -375.244)
(1488.48 3265.24 -368.565)
(1726.69 3354.02 -377.654)
(1966.8 3510.29 -395.975)
(2243.58 3581.06 -355.9)
(2406.84 3481.7 -247.539)
(2324.76 3390.39 -173.314)
(2122.56 3182.74 -131.741)
(2096.89 2847.93 -167.238)
(2116.21 2442.73 -252.585)
(2170.04 2194.94 -344.182)
(2259.58 2250.04 -376.858)
(-1186.97 -1187.23 -233.31)
(-881.762 -1241.02 -244.249)
(-706.393 -1292.15 -230.749)
(-516.055 -1342.8 -240.223)
(-311.867 -1433.13 -243.833)
(-61.2047 -1476.94 -253.265)
(216.668 -1509.22 -262.072)
(522.054 -1530.15 -266.832)
(908.85 -1509.08 -263.517)
(1231.53 -1398.68 -258.085)
(1496.49 -1262.6 -255.9)
(1719.26 -1141.87 -257.653)
(1914.35 -1040.25 -260.279)
(2094.34 -959.573 -261.847)
(2268.19 -908.084 -269.62)
(2438.13 -849.733 -258.917)
(2610.4 -842.424 -282.106)
(2783.68 -824.222 -280.219)
(2944.82 -794.838 -277.67)
(3223.32 -793.347 -288.199)
(-1238.75 -883.612 -244.188)
(-943.332 -950.155 -243.722)
(-773.609 -1012.5 -214.679)
(-598.581 -1086.36 -219.413)
(-406.982 -1224.66 -237.344)
(-128.542 -1305.56 -245.429)
(185.856 -1349.18 -259.074)
(552.674 -1359.02 -259.387)
(1065.74 -1278.86 -254.829)
(1449.59 -1026.51 -248.104)
(1701.33 -781.51 -244.187)
(1882.72 -602.577 -252.144)
(2041.33 -496.029 -264.494)
(2191.55 -435.965 -272.98)
(2339.6 -405.362 -290.12)
(2490.39 -379.103 -278.968)
(2643 -375.78 -303.006)
(2802.7 -372.341 -310.287)
(2952.24 -363.539 -304.748)
(3216.61 -368.013 -309.9)
(-1287.36 -709.274 -230.315)
(-1001.73 -783.791 -214.015)
(-833.401 -850.302 -174.201)
(-698.035 -964.773 -178.404)
(-498.805 -1144.69 -221.543)
(-183.701 -1235.39 -232.426)
(160.598 -1268.25 -245.092)
(591.054 -1270.28 -239.824)
(1245.56 -1112.34 -219.316)
(1675.43 -755.019 -211.496)
(1863.71 -472.652 -196.873)
(1990.85 -294.811 -195.28)
(2118.73 -201.403 -209.118)
(2250.98 -153.375 -225.211)
(2388.67 -129.941 -250.956)
(2534.45 -109.35 -252.155)
(2685.06 -105.893 -281.399)
(2843.98 -104.415 -286.359)
(2992.06 -96.3865 -286.541)
(3251.55 -100.147 -295.444)
(-1337.21 -516.677 -236.546)
(-1076.47 -603.638 -214.197)
(-951.619 -711.049 -174.054)
(-856.926 -880.225 -196.176)
(-697.209 -1112.09 -237.071)
(-312.286 -1153.52 -250.874)
(53.0983 -1166.45 -265.498)
(455.975 -1185.43 -263.979)
(1225.93 -1061.22 -232.951)
(1967.3 -298.682 -218.368)
(2009.75 -84.874 -217.463)
(2071.13 48.8904 -205.496)
(2164.79 109.422 -207.009)
(2277.79 138.755 -219.004)
(2405.97 149.533 -247.03)
(2551.04 158.47 -248.36)
(2702.2 168.841 -289.663)
(2863.81 167.004 -305.57)
(3014.21 177.293 -307.431)
(3277.39 182.72 -323.405)
(-1426.64 -310.451 -238.146)
(-1214.99 -405.231 -228.711)
(-1136.1 -501.957 -213.459)
(-1101.23 -720.507 -231.143)
(1886.66 -168.859 -219.359)
(2095.61 119.196 -233.026)
(2067.67 196.569 -226.503)
(2057.44 309.17 -213.932)
(2118.76 379.269 -224.517)
(2208.63 405.838 -242.484)
(2321.63 406.745 -269.074)
(2459.13 388.847 -281.15)
(2608.88 384.75 -332.674)
(2770.38 365.797 -338.559)
(2924.53 367.287 -338.061)
(3200.05 385.01 -353.139)
(-1473.66 -62.644 -251.422)
(-1303.17 -130.987 -243.13)
(-1234.67 -188.411 -231.693)
(-1147.34 -317.103 -251.306)
(2258.27 292.839 -263.073)
(2418.36 400.5 -243.94)
(2393.26 420.032 -239.929)
(2347.04 456.999 -229.064)
(2338.89 514.535 -231.636)
(2376.61 550.881 -247.631)
(2444.05 572.35 -268.906)
(2543.01 566.998 -284.078)
(2664.93 572.717 -331.461)
(2806.75 556.105 -336.839)
(2949.18 552.731 -343.158)
(3205.42 574.981 -362.31)
(-1506.85 213.223 -263.269)
(-1347.26 181.22 -260.152)
(-1268.58 153.304 -247.275)
(-1168.71 45.7695 -267.55)
(2530.98 618.962 -284.419)
(2665.47 709.281 -249.365)
(2650.49 707.298 -246.693)
(2619.73 711.418 -232.797)
(2579.45 739.702 -226.783)
(2576.63 764.693 -240.644)
(2600.4 777.701 -254.309)
(2653.59 774.402 -267.82)
(2737.82 781.339 -310.162)
(2855.02 765.27 -320.09)
(2984.6 758.216 -335.603)
(3223.08 781.8 -361.31)
(-1528.55 516.685 -270.314)
(-1358.85 547.578 -266.905)
(-1271.61 587.835 -252.931)
(-1185.92 452.647 -276.271)
(2744.35 891.524 -281.643)
(2886.69 995.196 -258.093)
(2910.12 970.618 -249.106)
(2899.87 956.799 -238.856)
(2867.93 950.202 -227.219)
(2825.22 952.677 -230.793)
(2803.1 969.804 -253.839)
(2812.45 974.143 -264.839)
(2848.14 983.215 -291.277)
(2923.55 974.431 -301.884)
(3026.76 972.295 -326.678)
(3238.84 994.695 -362.018)
(-1507.79 905.284 -272.191)
(-1275.32 1063.92 -271.335)
(-1105.57 1246.93 -251.897)
(-1021.42 1225.36 -271.885)
(-146.546 1869.43 -248.674)
(290.578 2207.77 -273.5)
(612.231 2483.09 -262.16)
(896.986 2704.76 -257.261)
(2188.54 2459.05 -224.91)
(2760.09 1665.59 -245.872)
(2889.42 1500.15 -247.779)
(2961.69 1404.6 -238.972)
(2994.79 1331.75 -226.603)
(2985.42 1277 -225.328)
(2962.95 1243.35 -247.12)
(2956.38 1222.34 -270.164)
(2974.1 1218.16 -290.386)
(3021.63 1202.12 -299.203)
(3095.71 1200.76 -326.116)
(3268.07 1218.51 -364.253)
(-1397.22 1229.71 -270.915)
(-1021.6 1449.5 -269.885)
(-746.736 1674.49 -246.233)
(-278.501 1956.33 -254.869)
(130.381 2056.31 -260.888)
(395.123 2363.61 -247.543)
(696.033 2630.8 -235.018)
(987.274 2861.58 -224.08)
(1607.25 2793.03 -212.932)
(2217.93 2291.07 -182.336)
(2587.98 1943.41 -172.45)
(2816.36 1835.29 -233.687)
(2938.51 1737.39 -247.123)
(2988.6 1647.6 -234.649)
(3022.82 1571.55 -236.018)
(3053.69 1509.16 -254.692)
(3076.15 1484.86 -289.206)
(3115.95 1460.3 -297.748)
(3169.71 1455.67 -322.491)
(3309.76 1461.88 -361.986)
(-1261.64 1495.67 -270.296)
(-777.289 1702.75 -266.862)
(-466.83 1865.53 -227.009)
(-71.2614 2003.6 -240.108)
(207.24 2032.82 -244.603)
(415.42 2345.96 -242.647)
(697.041 2619.03 -233.608)
(956.59 2883.66 -222.334)
(1472.75 2897.38 -204.781)
(1914.44 2626.63 -163.505)
(2265.12 2307.42 -199.598)
(2584.16 2125.77 -262.47)
(2782.88 2045.06 -261.039)
(2893.39 1966.14 -224.845)
(2988.33 1886.37 -203.723)
(3069.53 1813.59 -219.48)
(3123.08 1780.14 -269.361)
(3170.73 1746.43 -278.491)
(3219.95 1739.6 -317.396)
(3375.49 1718.92 -369.616)
(-1141.16 1718.72 -271.702)
(-599.219 1884.11 -272.288)
(-290.889 1993.12 -218.661)
(55.6274 2069.86 -221.982)
(313.161 2032.62 -225.476)
(455.116 2307.38 -230.173)
(701.873 2593.54 -223.21)
(942.839 2872.67 -217.124)
(1382.48 2955.38 -198.984)
(1820.43 2833.08 -189.08)
(2114.5 2623.3 -245.031)
(2392.53 2424.08 -287.412)
(2625.84 2289.23 -228.284)
(2796.04 2220.32 -167.356)
(2926.01 2172.23 -152.263)
(3021.56 2125 -196.158)
(3111.4 2098.34 -263.192)
(3195.99 2043.97 -286.063)
(3288.13 2022.51 -359.747)
(3502.36 1966.71 -403.084)
(-1039.47 1913.85 -273.012)
(-492.325 2042.06 -280.984)
(-197.005 2120.26 -226.546)
(112.567 2165 -219.435)
(378.52 2100.01 -230.716)
(511.748 2306.95 -228.762)
(729.924 2560.42 -218.088)
(937.332 2841.71 -208.838)
(1310.5 2980.99 -191.998)
(1721.93 2942.27 -196.478)
(2045.67 2805.36 -217.696)
(2284.63 2649.26 -206.422)
(2514.69 2522.33 -146.522)
(2720.51 2455.41 -110.858)
(2857.3 2432.5 -152.638)
(2962.74 2407.76 -249.919)
(3099.48 2384.02 -325.556)
(3238.71 2302.25 -348.711)
(3389.74 2298.48 -407.997)
(3595.35 2243.7 -381.33)
(-958.52 2093.91 -272.905)
(-431.651 2191.87 -286.161)
(-148.184 2251.92 -238.037)
(141.424 2278.97 -228.627)
(403.562 2194.61 -244.745)
(548.284 2350.34 -241.334)
(754.507 2561.68 -226.913)
(943.637 2802.06 -213.977)
(1257.71 2969.73 -197.698)
(1630.46 2990.57 -190.325)
(1959.99 2907.72 -178.672)
(2224.63 2810.13 -129.795)
(2465.12 2727.26 -90.4876)
(2659.75 2658.68 -134.348)
(2806.48 2626.6 -237.545)
(2967.45 2611.37 -351.404)
(3135.32 2621.37 -373.057)
(3262.66 2574.34 -348.042)
(3397.87 2601.25 -330.877)
(3528.7 2465.49 -248.171)
(-906.757 2267.97 -279.245)
(-400.529 2339.9 -300.892)
(-124.072 2389.3 -260.681)
(152.991 2407.84 -254.8)
(403.791 2311.42 -270.63)
(569.365 2421.9 -261.418)
(767.398 2587.09 -237.035)
(962.504 2784.49 -233.842)
(1229.42 2946.03 -223.71)
(1553.47 3022.25 -201.174)
(1872.59 2997.98 -164.16)
(2167.37 2935.99 -111.825)
(2439.67 2865.02 -117.937)
(2631.87 2816.3 -217.81)
(2810.59 2811.7 -343.484)
(3018.74 2846.58 -378.651)
(3136.68 2878.26 -288.077)
(3159.93 2805.18 -202.904)
(3278.99 2743.41 -157.169)
(3430.21 2425.58 -99.3694)
(-848.253 2438.1 -267.003)
(-374.121 2490.65 -287.529)
(-103.234 2534.85 -259.185)
(162.915 2553.11 -255.022)
(383.701 2452.01 -283.85)
(562.901 2524.14 -277.662)
(765.24 2642.37 -249.378)
(967.207 2796.56 -243.908)
(1212.08 2941.19 -247.745)
(1494.01 3046.57 -228.439)
(1796.94 3073.33 -187.37)
(2113.72 3029.86 -154.903)
(2408.54 2972.73 -204.681)
(2618.1 2971.87 -317.615)
(2853.3 3009 -361.746)
(3037.06 3022.43 -271.686)
(3046.16 2955.58 -133.36)
(3004.2 2730.67 -36.0394)
(3126.36 2512.52 25.2867)
(3240.5 2199.07 4.52443)
(-840.762 2610.63 -289.351)
(-370.991 2643.36 -310.244)
(-100.042 2685.34 -287.339)
(173.662 2704.2 -295.994)
(380.889 2603.92 -337.815)
(568.934 2648.24 -328.898)
(772.197 2728.1 -294.387)
(977.562 2835.56 -274.398)
(1208.75 2960.9 -271.758)
(1472.11 3067.13 -266.668)
(1765.75 3119.67 -241.281)
(2085.06 3113.84 -225.608)
(2377.87 3108.08 -280.775)
(2622.92 3139.92 -333.074)
(2882.19 3131.2 -259.033)
(2956.21 3043.72 -121.144)
(2800.7 2805.92 1.30416)
(2654.78 2381.22 62.9058)
(2770.6 2168.45 63.5814)
(2932.78 2132.81 -18.8903)
(-822.847 2783.88 -286.741)
(-368.052 2802.83 -316.585)
(-99.0152 2843.95 -291.372)
(171.861 2865.39 -311.679)
(362.501 2767.01 -343.417)
(552.56 2792.43 -336.032)
(756.409 2847.92 -308.396)
(967.851 2914.86 -288.713)
(1194.42 3011.02 -283.469)
(1449.34 3108.12 -277.3)
(1733.3 3166.33 -253.513)
(2030.31 3197.31 -254.187)
(2294.48 3248.83 -309.8)
(2572.93 3273.46 -310.719)
(2802.27 3166.11 -175.581)
(2726.62 3016.21 -28.2804)
(2386.27 2662.54 59.5376)
(2304.53 2292.03 -10.3921)
(2427.64 2129.57 -47.5807)
(2569.72 2156.88 -96.3279)
(-793.424 2944.68 -283.682)
(-359.845 2951.81 -310.37)
(-91.6029 2991.7 -290.614)
(181.981 3015.21 -313.218)
(365.702 2921.89 -341.672)
(550.09 2936.79 -342.874)
(750.989 2979.36 -325.927)
(966.481 3020.42 -313.924)
(1194.63 3087.25 -310.823)
(1447.09 3162.19 -302.911)
(1728.22 3216.32 -295.108)
(2009.7 3291.51 -331.886)
(2291.39 3403.1 -373.222)
(2596.83 3413.82 -299.731)
(2736.22 3295.31 -143.859)
(2514.64 3146.73 17.4334)
(2186.13 2774.05 54.6904)
(2150.19 2407.21 -53.4316)
(2201.95 2179.6 -162.501)
(2256.54 2184.35 -201.46)
(-792.178 3222.68 -293.669)
(-365.353 3215.37 -315.176)
(-96.602 3251.01 -299.346)
(186.611 3278.15 -328.32)
(385.39 3198.54 -356.257)
(573.592 3196.17 -362.168)
(776.523 3218.79 -354.094)
(990.357 3233.4 -350.13)
(1214.46 3260.81 -349.735)
(1456.07 3303.48 -344.567)
(1709.42 3375.74 -351.248)
(1956.53 3511.63 -380.728)
(2237.31 3612.42 -357.542)
(2456.9 3543.04 -232.31)
(2416.27 3446.15 -102.58)
(2199.71 3249.75 -9.28218)
(2143.89 2928.33 -29.2534)
(2172.6 2550.99 -100.64)
(2196.47 2241.79 -207.252)
(2262.86 2253.62 -297.314)
(-1206.96 -1205.33 -175.727)
(-899.072 -1259.91 -183.348)
(-724.005 -1310.08 -173.605)
(-535.514 -1364.29 -180.882)
(-331.682 -1462.82 -185.03)
(-74.9093 -1509.55 -193.509)
(206.978 -1539.72 -200.364)
(523.501 -1560.69 -206.405)
(916.18 -1538.1 -204.129)
(1240.86 -1423.9 -199.914)
(1504.96 -1284.74 -197.392)
(1725.15 -1162.23 -196.911)
(1917.7 -1059.6 -197.636)
(2095.01 -977.13 -197.873)
(2267.1 -926.881 -205.239)
(2435.35 -867.256 -197.982)
(2607.24 -860.379 -215.961)
(2781.74 -846.721 -216.935)
(2942.26 -820.026 -220.314)
(3219.42 -816.935 -233.102)
(-1261.38 -896.385 -183.766)
(-962.663 -959.791 -183.052)
(-793.512 -1020.87 -161.38)
(-622.505 -1104.13 -163.408)
(-430.533 -1256.14 -178.274)
(-142.042 -1342.61 -187.735)
(177.448 -1381.83 -197.919)
(556.546 -1391.3 -201.538)
(1077.33 -1301.72 -196.953)
(1463.34 -1041.6 -190.537)
(1713.28 -793.483 -186.932)
(1889.9 -613.02 -190.171)
(2044.31 -504.841 -196.792)
(2191.86 -443.769 -201.507)
(2338.29 -413.888 -215.378)
(2488.1 -389.062 -208.978)
(2641.4 -387.674 -227.296)
(2802.53 -386.829 -234.434)
(2952.55 -381.462 -236.823)
(3216.07 -386.185 -246.472)
(-1309.86 -721.444 -175.515)
(-1022.17 -790.462 -163.803)
(-857.333 -856.187 -133.658)
(-738.095 -993.278 -130.779)
(-527.254 -1184.42 -164.819)
(-197.567 -1273.86 -176.23)
(153.806 -1299.98 -185.911)
(601.87 -1303.16 -186.279)
(1259.28 -1128.45 -168.32)
(1682.85 -762.383 -157.38)
(1875.92 -486.705 -146.818)
(2001.09 -311.581 -147.134)
(2124.1 -215.443 -157.55)
(2252.36 -164.068 -168.283)
(2386.5 -139.228 -188.618)
(2529.47 -119.866 -188.464)
(2678.46 -119.04 -213.159)
(2837.34 -121.172 -219.753)
(2984.95 -117.642 -225.094)
(3242.27 -122.8 -240.278)
(-1361.86 -533.861 -183.018)
(-1102.51 -619.097 -168.304)
(-990.944 -737.543 -141.711)
(-877.475 -889.571 -149.831)
(-736.731 -1156.41 -173.789)
(-324.404 -1177.75 -191.847)
(48.395 -1191.21 -205.509)
(462.645 -1208.66 -207.616)
(1241.13 -1078.82 -178.977)
(1977.99 -307.433 -159.31)
(2021.51 -96.1796 -148.055)
(2079.6 35.983 -146.533)
(2168.8 92.0967 -156.801)
(2276.8 121.548 -170.982)
(2398.87 130.213 -197.205)
(2535.42 134.901 -199.268)
(2681.47 138.956 -228.846)
(2840.13 136.962 -241.482)
(2989.42 145.739 -246.464)
(3254.27 149.976 -262.056)
(-1457.36 -333.339 -186.49)
(-1249.87 -431.547 -183.587)
(-1181.01 -532 -176.845)
(-1145.69 -749.939 -199.997)
(1908.72 -218.118 -167.133)
(2128.99 110.04 -192.327)
(2131.19 180.816 -191.762)
(2116.01 283.745 -176.377)
(2163.7 358.003 -178.177)
(2244.51 388.339 -190.443)
(2344.91 392.435 -209.057)
(2467.08 376.412 -213.845)
(2605.99 367.734 -250.96)
(2761.36 346.643 -259.413)
(2912.15 337.575 -264.813)
(3185.28 347.951 -281.384)
(-1505.34 -80.5769 -193.579)
(-1340.09 -150.358 -188.873)
(-1275.74 -206.802 -180.358)
(-1180.04 -330.876 -203.154)
(2356.75 273.812 -209.477)
(2493.95 389.297 -195.131)
(2483.61 401.305 -193.42)
(2446.42 422.555 -188.901)
(2420.04 479.944 -188.432)
(2446.05 517.834 -198.216)
(2500.57 544.918 -211.275)
(2583.56 543.097 -216.407)
(2691.69 545.707 -248.592)
(2824.1 530.95 -257.827)
(2959.9 518.672 -269.181)
(3207.74 534.409 -289.163)
(-1538.17 201.499 -201.113)
(-1379.27 170.032 -198.065)
(-1298.19 145.086 -186.66)
(-1190.76 38.9869 -206.634)
(2634.07 600.536 -196.895)
(2754.76 682.01 -182.297)
(2748.89 679.218 -186.983)
(2730.22 681.153 -189.596)
(2694.37 697.757 -187.182)
(2676.66 728.09 -198.798)
(2691.76 745.14 -209.135)
(2729.21 745.548 -214.383)
(2795.27 751.613 -239.003)
(2894.98 741.237 -249.905)
(3011.3 728.43 -264.745)
(3234.22 745.546 -287.385)
(-1556.61 511.779 -205.729)
(-1388.96 539.398 -200.222)
(-1302.46 578.554 -184.708)
(-1208.62 446.145 -211.504)
(2836.48 873.397 -198.157)
(2966.83 967.382 -184.33)
(2999.89 946.786 -193.582)
(2998.79 928.078 -198.496)
(2977.91 921.462 -199.325)
(2938.77 920.716 -201.772)
(2904.8 937.546 -216.101)
(2903.25 948.31 -224.313)
(2923.91 955.952 -236.729)
(2978.88 952.392 -246.09)
(3065.79 944.934 -262.8)
(3258 962.958 -288.177)
(-1537.03 905.43 -206.649)
(-1306.99 1062.79 -202.099)
(-1144.77 1246.3 -183.417)
(-1088.75 1229.96 -217.692)
(-204.715 1900.62 -229.659)
(253.253 2304.44 -228.215)
(570.362 2618.6 -217.351)
(854.103 2843.61 -203.971)
(2396.72 2336.62 -183.478)
(2845.92 1625.56 -176.884)
(2972.03 1475.6 -199.029)
(3039.64 1381.48 -207.649)
(3083.43 1311.92 -206.382)
(3083.58 1257.31 -200.74)
(3061.29 1223.24 -209.434)
(3045.58 1200.77 -230.182)
(3052.7 1197.19 -243.989)
(3082.53 1185.29 -251.023)
(3142.21 1176.88 -266.208)
(3293.33 1190.64 -290.778)
(-1425.55 1233.54 -206.554)
(-1049.41 1455.37 -202.71)
(-779.841 1680.55 -179.694)
(-336.558 1979.75 -199.082)
(87.8167 2103.98 -214.098)
(364.453 2467.08 -217.01)
(666.774 2748.27 -198.804)
(963.919 2963.38 -192.799)
(1616.86 2851.34 -175.486)
(2286.34 2306.24 -166.191)
(2647.01 1924.75 -164.419)
(2873.29 1817.49 -205.299)
(3012.92 1727.43 -210.778)
(3072.88 1637.38 -200.341)
(3101.25 1562.96 -203.74)
(3127.7 1497.2 -219.634)
(3147.75 1468.52 -249.557)
(3177.24 1444.35 -259.153)
(3221.74 1432.71 -272.373)
(3334.11 1439.31 -294.913)
(-1287.45 1500.43 -206.846)
(-799.799 1709.85 -203.087)
(-498.76 1877.59 -172.188)
(-123.211 2030.56 -186.592)
(159.671 2095.75 -217.474)
(373.969 2453.51 -217.051)
(663.833 2740.39 -201.909)
(937.686 2991.7 -197.615)
(1469.88 2974.24 -197.812)
(1923.17 2666.73 -162.887)
(2283.08 2298.08 -180.974)
(2613.19 2104.2 -198.575)
(2841.55 2040.29 -223.779)
(2958.03 1963.18 -213.775)
(3038.89 1885.14 -201.631)
(3118.36 1805.27 -205.082)
(3185.31 1763.5 -243.088)
(3227.95 1726.82 -250.284)
(3263.64 1717.74 -268.898)
(3373.09 1710.94 -297.261)
(-1165.45 1722.55 -207.891)
(-617.214 1889.16 -207.103)
(-318.066 2001.85 -170.308)
(18.6567 2083.19 -177.367)
(261.126 2082.71 -204.437)
(398.293 2410.81 -213.367)
(661.761 2718.14 -202.142)
(917.875 2986.66 -198.713)
(1372.66 3036.11 -203.564)
(1816.38 2883.73 -199.086)
(2108.79 2630.38 -195.052)
(2410.31 2419.29 -242.852)
(2660.5 2288.07 -227.255)
(2828.87 2220.35 -199.217)
(2956.21 2167.61 -175.337)
(3066.1 2107.15 -185.721)
(3163.71 2078.69 -231.409)
(3231.15 2033.02 -241.032)
(3295.49 2015.46 -281.657)
(3474.74 1965.54 -316.356)
(-1062.88 1916.73 -209.336)
(-506.343 2044.74 -213.06)
(-217.58 2124.13 -177.518)
(80.9908 2171.68 -181.723)
(334.863 2135.29 -203.106)
(456.155 2385.33 -211.924)
(676.645 2677.99 -198.031)
(907.75 2960.73 -197.436)
(1298.5 3070.14 -200.654)
(1719.28 3012.44 -203.576)
(2045.93 2855.06 -210.85)
(2289.19 2675.55 -215.233)
(2525.06 2531.76 -205.62)
(2730.07 2451.48 -161.011)
(2886.14 2421.19 -163.382)
(2997.86 2392.98 -213.694)
(3120.49 2380.34 -268.613)
(3242.46 2305.05 -282.68)
(3380.56 2280.7 -326.54)
(3606.98 2221.12 -330.116)
(-979.897 2095.31 -209.568)
(-442.87 2193.14 -216.732)
(-163.181 2252.37 -185.302)
(114.524 2280.24 -190.149)
(368.425 2223.83 -209.896)
(494.167 2414.83 -218.069)
(706.582 2659.64 -206.54)
(904.895 2916.97 -200.253)
(1240.95 3065.62 -196.692)
(1624.95 3066.02 -193.208)
(1959.23 2963.85 -195.701)
(2223.76 2842.36 -179.399)
(2455.94 2739.83 -152.39)
(2660.2 2659.7 -168.646)
(2821.4 2621.86 -217.778)
(2962.91 2599.83 -299.127)
(3131.09 2608.29 -330.23)
(3284.42 2543.88 -320.774)
(3429.1 2568.8 -324.262)
(3572.46 2484.21 -279.82)
(-928.897 2268.31 -216.554)
(-411.486 2340.32 -229.532)
(-136.642 2386.99 -203.426)
(126.821 2403.94 -211.655)
(377.736 2330.92 -223.858)
(524.381 2474.17 -227.82)
(723.116 2674.75 -214.416)
(924.03 2883.09 -214.066)
(1206.19 3041.02 -205.851)
(1547.07 3091.63 -195.188)
(1874.11 3040.55 -186.723)
(2162.86 2962.77 -157.69)
(2422.82 2888.48 -153.869)
(2626.41 2820.73 -215.859)
(2794.55 2789.88 -317.327)
(2990.58 2803.15 -366.532)
(3163.1 2851.5 -312.403)
(3216.3 2808.91 -255.938)
(3300.31 2783.76 -222.837)
(3458.84 2547.2 -175.319)
(-868.24 2436.86 -208.52)
(-385.292 2490.33 -221.9)
(-115.406 2530.33 -201.173)
(134.9 2541.23 -209.9)
(363.801 2457.4 -225.032)
(523.955 2562.1 -230.06)
(725.298 2714.12 -218.673)
(934.871 2883.75 -220.099)
(1186.79 3025.04 -224.816)
(1481.24 3114.07 -212.617)
(1791.5 3114.61 -194.621)
(2096.63 3066.79 -173.924)
(2385.95 2999.74 -204.296)
(2602.51 2963.32 -295.791)
(2812.08 2983.46 -363.805)
(3033.48 3020.85 -327.039)
(3092.14 3001.4 -209.259)
(3076.19 2855.47 -141.209)
(3181.13 2714.01 -107.369)
(3338.9 2384.9 -76.9151)
(-860.123 2609.14 -225.479)
(-383.478 2643.82 -238.611)
(-114.076 2679.97 -224.21)
(141.713 2688.07 -236.762)
(358.795 2599.37 -260.331)
(532.134 2673.71 -259.434)
(734.234 2783 -242.821)
(944.13 2906.28 -232.816)
(1184.7 3032.31 -236.125)
(1453.57 3130.89 -241.983)
(1748.76 3176.17 -232.61)
(2064.41 3161.51 -219.655)