/*--------------------------------*- C++ -*----------------------------------*\
  =========                 |
  \\      /  F ield         | OpenFOAM: The Open Source CFD Toolbox
   \\    /   O peration     | Website:  https://openfoam.org
    \\  /    A nd           | Version:  9
     \\/     M anipulation  |
\*---------------------------------------------------------------------------*/
FoamFile
{
    format      ascii;
    class       volScalarField;
    location    "0.006";
    object      alpha.C4;
}
// * * * * * * * * * * * * * * * * * * * * * * * * * * * * * * * * * * * * * //

dimensions      [0 0 0 0 0 0 0];

internalField   nonuniform List<scalar> 
9720
(
0.999918
0.999943
0.99995
0.999954
0.999956
0.999957
0.999958
0.999959
0.99996
0.99996
0.999959
0.999958
0.999956
0.999953
0.999949
0.999942
0.999934
0.999921
0.999906
0.999864
0.999941
0.999954
0.999957
0.999958
0.999958
0.999959
0.99996
0.999961
0.999963
0.999963
0.999961
0.999959
0.999957
0.999955
0.999952
0.999948
0.999941
0.999933
0.999924
0.999894
0.999949
0.999956
0.999956
0.999953
0.999952
0.999952
0.999954
0.999955
0.999958
0.999947
0.999927
0.999913
0.999911
0.999914
0.999921
0.999928
0.999932
0.999931
0.999927
0.999906
0.999955
0.999959
0.999953
0.999921
0.999917
0.999916
0.99992
0.999922
0.99992
0.999793
0.999739
0.999719
0.999723
0.999736
0.99976
0.999793
0.999829
0.999859
0.999877
0.999875
0.999959
0.999961
0.999955
0.999922
0.999679
0.999432
0.999432
0.999434
0.999442
0.999456
0.99948
0.999516
0.99957
0.999633
0.999694
0.999752
0.999961
0.999963
0.999957
0.999924
0.999388
0.999189
0.999182
0.999173
0.99917
0.999172
0.999178
0.999194
0.999226
0.999281
0.999354
0.999474
0.999962
0.999964
0.999959
0.999929
0.999126
0.998865
0.99886
0.998855
0.998851
0.998849
0.998849
0.998852
0.998863
0.99889
0.998939
0.999064
0.999963
0.999965
0.999961
0.999932
0.998814
0.998507
0.998508
0.998513
0.998515
0.998514
0.99851
0.998505
0.998499
0.998501
0.998515
0.998589
0.999965
0.999967
0.999964
0.99993
0.999767
0.999588
0.999418
0.999217
0.998626
0.99833
0.998256
0.998193
0.998167
0.998164
0.998162
0.998156
0.998141
0.998113
0.998081
0.998097
0.999966
0.999968
0.999955
0.999842
0.999602
0.999434
0.999211
0.998986
0.99864
0.998372
0.998167
0.998011
0.99792
0.997875
0.997845
0.997813
0.997772
0.997716
0.997654
0.997593
0.999966
0.999967
0.99994
0.999801
0.999591
0.999419
0.999198
0.998978
0.99869
0.998399
0.998155
0.997958
0.997798
0.997671
0.997569
0.997477
0.997389
0.9973
0.997213
0.997074
0.999965
0.999966
0.999931
0.999789
0.999588
0.999406
0.999185
0.998966
0.998698
0.998411
0.998149
0.997922
0.997711
0.99751
0.997325
0.997154
0.997008
0.996876
0.99676
0.996537
0.999963
0.999965
0.999931
0.999792
0.99959
0.999395
0.999172
0.998951
0.998694
0.998411
0.998135
0.997868
0.997605
0.997343
0.997083
0.996839
0.996634
0.996451
0.996293
0.995961
0.999961
0.999964
0.999934
0.999802
0.999596
0.999387
0.999161
0.998934
0.998685
0.998409
0.998112
0.997798
0.997476
0.997152
0.996833
0.99653
0.996262
0.996004
0.99577
0.995291
0.999958
0.999962
0.999939
0.999819
0.99961
0.999388
0.99915
0.998917
0.998673
0.998399
0.998081
0.997723
0.997339
0.996953
0.996583
0.996219
0.995863
0.995485
0.995138
0.994489
0.999952
0.999958
0.999944
0.999842
0.999635
0.999395
0.999145
0.998902
0.998655
0.998375
0.998038
0.997649
0.99722
0.996776
0.996334
0.995874
0.995384
0.994833
0.994343
0.993523
0.999944
0.999952
0.999947
0.999868
0.999672
0.999415
0.999148
0.998887
0.998628
0.998336
0.997987
0.997583
0.997131
0.996637
0.996098
0.99549
0.994815
0.994048
0.9934
0.9924
0.999933
0.999945
0.999946
0.99989
0.999717
0.999451
0.99916
0.998872
0.998591
0.998283
0.997924
0.997511
0.997042
0.996496
0.995843
0.995054
0.994152
0.993163
0.992355
0.991097
0.999919
0.999937
0.999941
0.999901
0.999762
0.999503
0.99919
0.998876
0.998548
0.998224
0.997856
0.997433
0.996945
0.99635
0.995607
0.994687
0.993625
0.992466
0.991477
0.989831
0.999878
0.999909
0.999921
0.999898
0.9998
0.999586
0.999272
0.998914
0.998542
0.99815
0.997726
0.997249
0.996691
0.995999
0.995143
0.994102
0.992889
0.991481
0.990113
0.987441
0.999945
0.999965
0.999972
0.999977
0.999979
0.999979
0.99998
0.99998
0.999981
0.999981
0.999979
0.999977
0.999974
0.999972
0.999968
0.999963
0.999956
0.999947
0.999936
0.999905
0.999964
0.999978
0.999983
0.999986
0.999987
0.999987
0.999987
0.999988
0.999988
0.999985
0.999981
0.999977
0.999974
0.999972
0.99997
0.999966
0.999961
0.999954
0.999947
0.999925
0.999971
0.999983
0.999988
0.999992
0.999993
0.999992
0.999993
0.999993
0.999991
0.999967
0.999935
0.999912
0.999906
0.99991
0.999919
0.99993
0.999939
0.999943
0.999943
0.999931
0.999977
0.999986
0.999992
0.999997
0.999998
0.999998
0.999998
0.999998
0.999992
0.999759
0.999684
0.999652
0.999656
0.999672
0.999701
0.999743
0.999792
0.999836
0.999869
0.999883
0.99998
0.999988
0.999993
0.999998
0.999576
0.999279
0.999279
0.999282
0.999292
0.99931
0.999338
0.999382
0.999447
0.999531
0.999615
0.99971
0.999981
0.999988
0.999993
0.999998
0.999159
0.998979
0.998975
0.998969
0.998964
0.998964
0.998969
0.998985
0.99902
0.999083
0.999179
0.999345
0.999982
0.999989
0.999994
0.999998
0.99881
0.998584
0.998586
0.998586
0.998584
0.998579
0.998575
0.998576
0.998585
0.998612
0.99867
0.998831
0.999983
0.99999
0.999994
0.999998
0.998405
0.998165
0.998176
0.998192
0.998192
0.998186
0.998177
0.99817
0.998164
0.998164
0.998177
0.998265
0.999984
0.99999
0.999992
0.999991
0.999635
0.999337
0.999056
0.998728
0.998074
0.997867
0.997856
0.997812
0.997776
0.997776
0.997783
0.997779
0.997761
0.997722
0.997675
0.997697
0.999984
0.999988
0.999969
0.999779
0.999379
0.999124
0.998786
0.998438
0.998017
0.9978
0.997581
0.997464
0.997455
0.997453
0.997436
0.997391
0.997331
0.99726
0.997188
0.997125
0.999983
0.999984
0.99994
0.999715
0.999382
0.999128
0.998802
0.998469
0.998092
0.997743
0.997476
0.997376
0.997299
0.9972
0.997083
0.996962
0.996869
0.996786
0.996696
0.996543
0.999981
0.999981
0.999922
0.999699
0.99939
0.99913
0.998812
0.998496
0.998122
0.99774
0.997494
0.997336
0.997148
0.996924
0.996717
0.996549
0.996426
0.996309
0.996184
0.995932
0.999979
0.999979
0.99992
0.999705
0.999403
0.999132
0.998818
0.998501
0.998132
0.997767
0.997498
0.997235
0.996912
0.996606
0.996376
0.996185
0.996014
0.995842
0.995666
0.995296
0.999977
0.999978
0.999924
0.999721
0.999422
0.999135
0.998819
0.998499
0.998153
0.997819
0.997479
0.99708
0.996664
0.996328
0.996081
0.995847
0.995602
0.99534
0.995081
0.994559
0.999974
0.999976
0.999932
0.999748
0.999449
0.999144
0.99882
0.998497
0.998176
0.99783
0.997426
0.996959
0.996516
0.996144
0.995834
0.995506
0.995138
0.994742
0.994381
0.993698
0.99997
0.999973
0.999943
0.999786
0.999488
0.999161
0.998824
0.998495
0.998173
0.997814
0.997365
0.996888
0.996432
0.995994
0.995568
0.995093
0.994573
0.994016
0.993528
0.99268
0.999964
0.999969
0.999951
0.999828
0.999545
0.999193
0.998835
0.998492
0.998156
0.997776
0.997326
0.996855
0.996373
0.995853
0.995273
0.994621
0.993919
0.993154
0.992513
0.991491
0.999956
0.999963
0.999955
0.999866
0.999616
0.999249
0.99886
0.998492
0.998121
0.99772
0.997284
0.99681
0.996299
0.995697
0.994968
0.99413
0.993198
0.992187
0.991389
0.990126
0.999946
0.999956
0.999954
0.999893
0.999685
0.99933
0.998911
0.998503
0.998081
0.997665
0.997227
0.996735
0.99619
0.99552
0.994704
0.993741
0.992636
0.991443
0.990465
0.988826
0.999916
0.999937
0.999944
0.999902
0.999759
0.999461
0.999041
0.998575
0.998097
0.997611
0.997103
0.996536
0.9959
0.995124
0.994201
0.993109
0.991835
0.990382
0.989018
0.986367
0.999981
0.999991
0.999994
0.999996
0.999997
0.999997
0.999997
0.999997
0.999997
0.999997
0.999996
0.999994
0.999993
0.999992
0.99999
0.999987
0.999984
0.99998
0.999974
0.999958
0.99999
0.999997
0.999998
0.999999
0.999999
0.999999
0.999999
0.999999
0.999999
0.999997
0.999994
0.999988
0.999986
0.999985
0.999985
0.999986
0.999984
0.999982
0.999978
0.999966
0.999993
0.999998
1
1
1
1
1
1
0.999997
0.999961
0.999913
0.999872
0.999869
0.999876
0.999893
0.999915
0.999936
0.999951
0.99996
0.99996
0.999996
0.999999
1
1
1
1
1
1
0.99999
0.999648
0.99954
0.999484
0.999488
0.999508
0.999548
0.999609
0.999686
0.999762
0.999822
0.999875
0.999997
0.999999
1
1
0.999479
0.99899
0.99897
0.998969
0.998975
0.99899
0.999022
0.999077
0.999164
0.999285
0.999414
0.999586
0.999997
0.999999
1
1
0.998981
0.998587
0.998568
0.998552
0.998536
0.998525
0.998526
0.998541
0.998578
0.998652
0.998778
0.999026
0.999997
0.999999
1
1
0.998546
0.998064
0.998055
0.998046
0.998035
0.998022
0.998006
0.998002
0.998009
0.998033
0.998097
0.998304
0.999997
0.999999
1
1
0.998047
0.997525
0.997527
0.997537
0.997535
0.997521
0.9975
0.997485
0.997472
0.997465
0.997475
0.997573
0.999998
0.999999
0.999998
0.999991
0.999508
0.999062
0.998673
0.998225
0.997477
0.997136
0.997128
0.99708
0.997025
0.99702
0.997026
0.99702
0.996994
0.996939
0.996863
0.996875
0.999997
0.999998
0.999968
0.9997
0.999118
0.998763
0.998302
0.99784
0.997317
0.997051
0.996786
0.996624
0.996625
0.996639
0.996625
0.996565
0.996475
0.996381
0.996291
0.996199
0.999996
0.999995
0.999924
0.999602
0.999114
0.998756
0.998306
0.997854
0.997388
0.996953
0.996576
0.996473
0.996419
0.996323
0.996178
0.996018
0.995909
0.995826
0.99573
0.99553
0.999995
0.99999
0.999887
0.999555
0.999117
0.99875
0.998309
0.997872
0.997397
0.996912
0.996591
0.996419
0.996211
0.995922
0.99566
0.995492
0.995392
0.995281
0.995131
0.994807
0.999994
0.999987
0.999884
0.999559
0.999128
0.998748
0.998309
0.997874
0.997391
0.996924
0.996593
0.996285
0.995871
0.99545
0.995216
0.99507
0.994918
0.994718
0.994496
0.994055
0.999993
0.999988
0.999891
0.999578
0.999148
0.998749
0.998308
0.99787
0.997397
0.996959
0.996548
0.996051
0.995498
0.99511
0.994892
0.994677
0.994405
0.994082
0.993781
0.993216
0.999992
0.999988
0.999907
0.999615
0.999179
0.998756
0.998307
0.997864
0.997416
0.996965
0.996455
0.995852
0.995317
0.994926
0.994614
0.994258
0.993824
0.99337
0.992992
0.99228
0.99999
0.999988
0.999927
0.99967
0.999229
0.998774
0.998309
0.997859
0.997415
0.99694
0.996356
0.995752
0.995229
0.994743
0.994268
0.993734
0.993155
0.992583
0.992097
0.99119
0.999987
0.999988
0.999946
0.999736
0.999304
0.99881
0.99832
0.997853
0.997398
0.996887
0.996296
0.995712
0.995144
0.994523
0.993849
0.993136
0.992428
0.991695
0.991037
0.989895
0.999983
0.999985
0.999959
0.999801
0.999406
0.998877
0.998346
0.99785
0.99736
0.99682
0.996249
0.995655
0.995018
0.99427
0.993433
0.99256
0.991657
0.990656
0.989797
0.988388
0.999978
0.999982
0.999967
0.999851
0.999513
0.998984
0.998405
0.99786
0.997302
0.996752
0.996184
0.995554
0.994855
0.994035
0.993118
0.992115
0.990995
0.989751
0.988709
0.986975
0.999963
0.999972
0.999967
0.999895
0.999651
0.999185
0.998578
0.997945
0.997314
0.996679
0.996027
0.995297
0.994497
0.993577
0.992541
0.991346
0.989953
0.988383
0.986978
0.984332
0.999996
0.999999
0.999999
1
1
1
1
1
1
1
0.999999
0.999999
0.999998
0.999998
0.999997
0.999996
0.999995
0.999993
0.99999
0.99998
0.999999
1
1
1
1
1
1
1
1
0.999998
0.999992
0.999984
0.999981
0.999983
0.999986
0.99999
0.999992
0.999992
0.999991
0.999985
0.999999
1
1
1
1
1
1
1
0.999996
0.999943
0.999868
0.999803
0.999799
0.999811
0.99984
0.999879
0.999915
0.999941
0.999959
0.999969
1
1
1
1
1
1
1
1
0.999973
0.999484
0.999325
0.999241
0.999245
0.999273
0.999333
0.999425
0.99954
0.999658
0.99975
0.999843
1
1
1
1
0.999077
0.998532
0.998527
0.998531
0.998546
0.998573
0.998618
0.998693
0.998811
0.998978
0.999161
0.999418
1
1
1
1
0.998412
0.998001
0.99799
0.997981
0.997971
0.997969
0.997974
0.997994
0.998042
0.998133
0.998287
0.998624
1
1
1
1
0.997827
0.997338
0.997333
0.997328
0.997322
0.997314
0.997306
0.997306
0.997315
0.997344
0.997416
0.997665
1
1
1
1
0.997187
0.996666
0.996667
0.996677
0.996681
0.996674
0.996659
0.996646
0.996636
0.996635
0.996645
0.996749
1
1
0.999997
0.999981
0.999286
0.998704
0.998195
0.997627
0.996595
0.99624
0.996214
0.99616
0.996097
0.996081
0.996078
0.996071
0.996046
0.995998
0.995915
0.995913
1
0.999998
0.999957
0.999604
0.998858
0.998411
0.997849
0.997296
0.996592
0.996212
0.995915
0.995698
0.995639
0.995629
0.995601
0.995535
0.995442
0.995343
0.995245
0.995121
0.999999
0.999994
0.999899
0.99948
0.998844
0.998398
0.997847
0.997308
0.996691
0.996169
0.995706
0.995491
0.995385
0.995263
0.995107
0.994932
0.994796
0.994691
0.994584
0.994353
0.999999
0.999987
0.999845
0.999406
0.998845
0.998386
0.997843
0.997319
0.996735
0.996149
0.995698
0.995419
0.99516
0.99485
0.994556
0.99434
0.994201
0.994064
0.9939
0.993537
0.999999
0.999985
0.999839
0.999406
0.998852
0.998373
0.997837
0.997317
0.996737
0.996156
0.995693
0.995297
0.994852
0.994397
0.994079
0.993859
0.993662
0.993422
0.993171
0.992679
0.999998
0.999986
0.999848
0.999424
0.998869
0.998369
0.997829
0.997308
0.996741
0.996176
0.995653
0.995099
0.99451
0.994037
0.99372
0.993428
0.993096
0.99271
0.992362
0.991737
0.999998
0.999988
0.99987
0.999468
0.9989
0.998372
0.99782
0.997293
0.99674
0.996174
0.995574
0.994901
0.994273
0.993788
0.993395
0.992978
0.992489
0.99195
0.991506
0.990725
0.999997
0.999992
0.999901
0.999537
0.998955
0.998385
0.997818
0.997277
0.99673
0.996149
0.995476
0.994758
0.994112
0.993539
0.993008
0.992437
0.991794
0.991126
0.990573
0.98959
0.999995
0.999993
0.99993
0.999625
0.999043
0.998419
0.997821
0.997261
0.996706
0.996095
0.995393
0.994672
0.993975
0.993263
0.992542
0.991785
0.99101
0.990213
0.989511
0.988275
0.999993
0.999993
0.999951
0.999717
0.999169
0.998487
0.997839
0.99724
0.996665
0.996024
0.995318
0.994581
0.993807
0.992949
0.992033
0.991091
0.990151
0.989151
0.988271
0.986735
0.999991
0.999992
0.999965
0.999791
0.999309
0.998604
0.99789
0.997242
0.996595
0.995942
0.995236
0.994467
0.993626
0.992666
0.991629
0.990539
0.989396
0.988172
0.987105
0.985234
0.999982
0.999986
0.999974
0.999867
0.999514
0.998864
0.998078
0.997312
0.996571
0.995825
0.995047
0.994188
0.993235
0.99215
0.990963
0.989651
0.988191
0.986576
0.985106
0.982354
0.999998
1
1
1
1
1
1
1
1
1
1
0.999999
0.999999
0.999999
0.999998
0.999997
0.999996
0.999995
0.999992
0.999984
0.999999
1
1
1
1
1
1
1
1
0.999997
0.99999
0.99998
0.999978
0.999979
0.999984
0.999989
0.999992
0.999993
0.999993
0.999987
1
1
1
1
1
1
1
1
0.999995
0.999931
0.999841
0.999762
0.999757
0.999771
0.999807
0.999855
0.9999
0.999933
0.999955
0.999969
1
1
1
1
1
1
1
1
0.999971
0.999379
0.999196
0.999095
0.999098
0.999129
0.9992
0.999312
0.999451
0.999594
0.999706
0.999819
1
1
1
1
0.998875
0.998243
0.998242
0.998248
0.998268
0.998303
0.998358
0.998447
0.998588
0.998784
0.999
0.999313
1
1
1
1
0.997974
0.997588
0.997583
0.997579
0.99758
0.997585
0.997598
0.997627
0.997686
0.997792
0.997966
0.998362
1
1
1
1
0.997241
0.996777
0.996785
0.996792
0.996798
0.996802
0.996807
0.996816
0.996834
0.996874
0.996955
0.997238
1
1
1
1
0.996453
0.995975
0.99599
0.99601
0.996028
0.996035
0.996036
0.996037
0.996039
0.996045
0.996061
0.996181
1
1
0.999996
0.999976
0.999143
0.998457
0.997872
0.997231
0.995892
0.995466
0.995418
0.995388
0.99537
0.995361
0.995354
0.995345
0.995327
0.995299
0.995237
0.995232
1
0.999998
0.999943
0.999499
0.99861
0.998096
0.997461
0.99685
0.995997
0.995484
0.995163
0.994963
0.994869
0.99482
0.994776
0.99472
0.994649
0.994566
0.994472
0.994336
1
0.999992
0.999871
0.999356
0.998597
0.998083
0.997463
0.99687
0.996121
0.995511
0.99503
0.994721
0.994536
0.994392
0.994253
0.994106
0.993963
0.993824
0.993701
0.993463
0.999999
0.999984
0.999805
0.999269
0.9986
0.998072
0.997462
0.996886
0.996204
0.995546
0.994999
0.994599
0.994292
0.994018
0.993754
0.993504
0.993294
0.9931
0.992929
0.992577
0.999999
0.999981
0.999798
0.999269
0.99861
0.998062
0.997459
0.996887
0.996243
0.995582
0.994994
0.994499
0.994068
0.993673
0.993307
0.992967
0.992677
0.992396
0.992146
0.991648
0.999999
0.999982
0.999808
0.99929
0.998632
0.998062
0.997455
0.996883
0.996264
0.995613
0.994982
0.994391
0.993844
0.993356
0.992919
0.992501
0.992103
0.991685
0.99131
0.990632
0.999998
0.999986
0.999836
0.999343
0.998671
0.998067
0.997452
0.996874
0.996263
0.995613
0.994948
0.994267
0.99362
0.993052
0.992552
0.992061
0.991538
0.990947
0.990421
0.989541
0.999997
0.99999
0.999875
0.999429
0.998736
0.998084
0.997453
0.996862
0.996254
0.9956
0.994891
0.994135
0.993402
0.992746
0.992162
0.991567
0.990891
0.990115
0.989442
0.988354
0.999996
0.999993
0.999912
0.999538
0.998842
0.998125
0.997459
0.996849
0.996235
0.995568
0.994821
0.994022
0.993225
0.992461
0.991732
0.990961
0.990107
0.989172
0.988375
0.987056
0.999995
0.999994
0.99994
0.999652
0.998993
0.998204
0.997481
0.99683
0.996203
0.995514
0.994737
0.993908
0.993052
0.99216
0.99123
0.990229
0.98919
0.988114
0.987192
0.985567
0.999992
0.999993
0.999959
0.999744
0.999163
0.998335
0.997536
0.996832
0.996147
0.995439
0.994651
0.993801
0.992891
0.991883
0.990784
0.989605
0.988401
0.987165
0.986073
0.984068
0.999984
0.999988
0.999972
0.999841
0.999415
0.998643
0.997745
0.996902
0.99611
0.995312
0.994466
0.993548
0.992528
0.991365
0.990079
0.988681
0.987196
0.985575
0.984043
0.981097
0.999998
1
1
1
1
1
1
1
1
1
1
0.999999
0.999999
0.999999
0.999998
0.999997
0.999996
0.999995
0.999992
0.999984
0.999999
1
1
1
1
1
1
1
1
0.999997
0.99999
0.99998
0.999978
0.99998
0.999984
0.999989
0.999993
0.999993
0.999993
0.999987
1
1
1
1
1
1
1
1
0.999994
0.999929
0.999836
0.999759
0.999755
0.999769
0.999806
0.999856
0.999901
0.999934
0.999955
0.999969
1
1
1
1
1
1
1
1
0.999968
0.999359
0.999171
0.999071
0.999075
0.999109
0.999183
0.999299
0.999442
0.999588
0.999702
0.999816
1
1
1
1
0.998808
0.998187
0.998184
0.99819
0.99821
0.998247
0.998305
0.998398
0.998545
0.998749
0.998974
0.999296
1
1
1
1
0.997794
0.997499
0.997493
0.997487
0.997487
0.997492
0.997506
0.997537
0.997599
0.997712
0.997894
0.998308
1
1
1
1
0.996964
0.99664
0.99665
0.996658
0.996662
0.996666
0.996671
0.996682
0.996704
0.996747
0.996834
0.997133
1
1
1
1
0.99607
0.995785
0.995809
0.995832
0.995848
0.995854
0.995856
0.995859
0.995864
0.995873
0.995892
0.996021
1
1
0.999996
0.999981
0.999015
0.998157
0.997509
0.996811
0.995461
0.995189
0.995137
0.995142
0.995146
0.995142
0.995135
0.995124
0.995106
0.99508
0.995023
0.995023
1
0.999998
0.999938
0.999449
0.998463
0.997917
0.997247
0.996607
0.995731
0.9952
0.994872
0.994698
0.994615
0.994564
0.994516
0.99446
0.99439
0.994309
0.994218
0.994081
1
0.999991
0.999856
0.999288
0.998464
0.997916
0.997263
0.996646
0.995867
0.995233
0.994757
0.994444
0.99425
0.994107
0.993972
0.993828
0.993681
0.993533
0.993404
0.993165
0.999999
0.999982
0.999784
0.999198
0.998473
0.997917
0.997276
0.996674
0.995962
0.995283
0.994724
0.994307
0.993995
0.99373
0.993472
0.993214
0.992987
0.992775
0.992598
0.992244
0.999999
0.999979
0.999778
0.9992
0.998492
0.997919
0.997285
0.996691
0.99602
0.995334
0.994726
0.994213
0.993784
0.9934
0.993027
0.992662
0.992345
0.992045
0.991786
0.991281
0.999999
0.99998
0.99979
0.999228
0.998524
0.997926
0.997292
0.996701
0.996052
0.995378
0.994726
0.994124
0.993582
0.993093
0.992637
0.99219
0.991763
0.991321
0.990931
0.990233
0.999998
0.999984
0.999821
0.999289
0.998573
0.997938
0.997298
0.996701
0.996074
0.995401
0.99471
0.994023
0.993375
0.992797
0.992273
0.991752
0.991201
0.990579
0.990023
0.989108
0.999997
0.999989
0.999865
0.999386
0.998649
0.997964
0.997307
0.996698
0.996073
0.995395
0.994671
0.993911
0.993169
0.992498
0.991891
0.991266
0.990562
0.989745
0.989028
0.987889
0.999996
0.999992
0.999906
0.999505
0.998767
0.998014
0.997322
0.996692
0.996061
0.995374
0.994617
0.993811
0.993
0.99222
0.991472
0.990679
0.989795
0.98881
0.98796
0.98658
0.999995
0.999993
0.999936
0.99963
0.998933
0.998103
0.997353
0.996687
0.996039
0.995333
0.994546
0.993705
0.992833
0.991927
0.990988
0.989974
0.988901
0.987772
0.986797
0.985101
0.999992
0.999993
0.999957
0.999729
0.999116
0.998247
0.997416
0.996692
0.99599
0.995269
0.994468
0.993604
0.992678
0.991663
0.990562
0.989366
0.988128
0.986846
0.985707
0.98362
0.999984
0.999988
0.999971
0.999833
0.999386
0.998577
0.997643
0.996773
0.995966
0.995155
0.994294
0.993362
0.992332
0.991166
0.989873
0.988456
0.986947
0.985297
0.983728
0.980682
0.999996
0.999999
0.999999
1
1
1
1
1
1
1
0.999999
0.999999
0.999998
0.999998
0.999997
0.999996
0.999995
0.999993
0.99999
0.99998
0.999999
1
1
1
1
1
1
1
1
0.999998
0.999992
0.999983
0.999981
0.999983
0.999986
0.99999
0.999992
0.999992
0.999991
0.999984
0.999999
1
1
1
1
1
1
1
0.999995
0.999937
0.999853
0.999787
0.999785
0.9998
0.999833
0.999876
0.999914
0.999941
0.999958
0.999969
1
1
1
1
1
1
1
1
0.999971
0.999418
0.999243
0.999157
0.999163
0.999198
0.999268
0.999374
0.999503
0.999634
0.999735
0.999834
1
1
1
1
0.99885
0.998335
0.998332
0.998337
0.998355
0.998389
0.998445
0.998535
0.998675
0.998867
0.999075
0.999365
1
1
1
1
0.99786
0.997703
0.997694
0.997684
0.997678
0.997681
0.997691
0.997719
0.997779
0.99789
0.99807
0.998462
1
1
1
1
0.997056
0.996912
0.996915
0.996915
0.996913
0.996908
0.996907
0.996912
0.996928
0.996969
0.997057
0.997353
1
1
1
1
0.99619
0.996116
0.996131
0.996153
0.996155
0.996149
0.99614
0.996132
0.996131
0.996133
0.996149
0.996279
1
1
0.999996
0.999976
0.999014
0.998207
0.997556
0.996851
0.995676
0.99552
0.995483
0.995456
0.99544
0.995438
0.995438
0.995433
0.995412
0.995371
0.995295
0.9953
1
0.999998
0.999944
0.999499
0.998605
0.998082
0.997428
0.996798
0.995976
0.995488
0.995135
0.994938
0.994894
0.994881
0.994852
0.994789
0.994701
0.994605
0.994505
0.994377
0.999999
0.999992
0.999872
0.999355
0.998598
0.998073
0.997436
0.996829
0.996107
0.995497
0.994992
0.994729
0.994587
0.994452
0.994295
0.994122
0.993971
0.993843
0.993724
0.993482
0.999999
0.999984
0.999808
0.999274
0.998601
0.998064
0.997442
0.996852
0.99618
0.995514
0.995
0.994652
0.994349
0.994031
0.993726
0.993473
0.993288
0.993115
0.992937
0.99256
0.999999
0.999981
0.999803
0.999276
0.998614
0.998062
0.997446
0.996865
0.996212
0.995554
0.995019
0.99455
0.994072
0.993609
0.99323
0.992932
0.992676
0.992393
0.992119
0.991591
0.999998
0.999983
0.999814
0.999301
0.998641
0.998065
0.997449
0.996867
0.996238
0.995614
0.995012
0.994395
0.99378
0.993259
0.992854
0.992476
0.992078
0.991633
0.991238
0.990546
0.999998
0.999986
0.999843
0.999357
0.998684
0.998074
0.997452
0.996865
0.996264
0.995631
0.994963
0.994242
0.993567
0.993012
0.992534
0.992032
0.991466
0.990841
0.990313
0.989427
0.999997
0.99999
0.999881
0.999445
0.998756
0.998099
0.997459
0.996862
0.996263
0.995618
0.994893
0.994132
0.993423
0.992781
0.992169
0.99151
0.990777
0.989986
0.989314
0.988188
0.999995
0.999992
0.999916
0.999555
0.998868
0.998148
0.997474
0.996858
0.99625
0.995582
0.994833
0.994064
0.993304
0.992526
0.991735
0.990896
0.990011
0.989064
0.988223
0.986808
0.999993
0.999992
0.999942
0.999668
0.999025
0.998237
0.997508
0.996856
0.996221
0.995529
0.994773
0.993984
0.993148
0.99223
0.99126
0.990238
0.989176
0.988027
0.987
0.98524
0.999991
0.999992
0.99996
0.999757
0.999197
0.998382
0.997576
0.996864
0.996163
0.995461
0.994702
0.993881
0.992978
0.991968
0.990876
0.989697
0.988437
0.987078
0.985865
0.983725
0.999981
0.999986
0.999971
0.999848
0.999442
0.998695
0.997806
0.996957
0.99616
0.995361
0.994528
0.993616
0.992609
0.991478
0.990225
0.988818
0.987258
0.985529
0.983916
0.980837
0.999981
0.999991
0.999994
0.999996
0.999997
0.999997
0.999997
0.999997
0.999997
0.999997
0.999996
0.999995
0.999993
0.999992
0.99999
0.999988
0.999985
0.99998
0.999975
0.999958
0.99999
0.999997
0.999998
0.999999
0.999999
0.999999
0.999999
0.999999
0.999999
0.999997
0.999993
0.999988
0.999985
0.999985
0.999986
0.999986
0.999985
0.999982
0.999978
0.999966
0.999993
0.999998
1
1
1
1
1
1
0.999997
0.999954
0.999895
0.999852
0.999852
0.999862
0.999885
0.999911
0.999934
0.99995
0.999959
0.99996
0.999996
0.999999
1
1
1
1
1
1
0.999978
0.999563
0.999428
0.999375
0.999384
0.999414
0.999468
0.999549
0.999644
0.999736
0.999805
0.999866
0.999997
0.999999
1
1
0.999073
0.998722
0.998714
0.998718
0.998732
0.998761
0.998809
0.998886
0.999002
0.999156
0.999318
0.999525
0.999997
0.999999
1
1
0.998255
0.998209
0.998195
0.998181
0.998172
0.998173
0.998181
0.998207
0.998263
0.998364
0.998529
0.998844
0.999997
0.999999
1
1
0.997572
0.997551
0.997547
0.997544
0.997538
0.99753
0.997526
0.997529
0.997544
0.997585
0.997676
0.997947
0.999997
0.999999
1
1
0.996835
0.996879
0.996885
0.996904
0.996905
0.996893
0.996879
0.996871
0.996867
0.99687
0.996889
0.997027
0.999998
0.999999
0.999997
0.999986
0.99923
0.998533
0.997955
0.997316
0.996478
0.996411
0.996368
0.996289
0.99624
0.996243
0.996267
0.996268
0.996248
0.996192
0.996118
0.996147
0.999997
0.999997
0.999957
0.999614
0.998909
0.998485
0.997937
0.9974
0.996736
0.996355
0.995955
0.995732
0.995741
0.995768
0.995758
0.99569
0.99559
0.995485
0.99539
0.995304
0.999996
0.999993
0.9999
0.999494
0.998901
0.998474
0.997939
0.997416
0.996841
0.99628
0.995806
0.995635
0.995538
0.995403
0.995218
0.99502
0.994889
0.994798
0.994695
0.99448
0.999995
0.999987
0.999855
0.999439
0.998903
0.998463
0.997939
0.997435
0.996863
0.996262
0.995851
0.995613
0.995329
0.994956
0.994612
0.994389
0.99427
0.994146
0.993975
0.993606
0.999994
0.999984
0.999853
0.999443
0.998914
0.998457
0.997938
0.997436
0.996864
0.996296
0.995889
0.995496
0.994968
0.994431
0.994107
0.993916
0.993733
0.993489
0.993218
0.992706
0.999993
0.999985
0.999861
0.999466
0.998936
0.998459
0.997936
0.997429
0.99688
0.996372
0.995873
0.995261
0.99457
0.994069
0.993781
0.993507
0.993165
0.992757
0.992386
0.991732
0.999992
0.999986
0.999882
0.999512
0.998973
0.998466
0.997936
0.99742
0.996912
0.996389
0.995792
0.995071
0.994418
0.993924
0.993525
0.993073
0.992527
0.991953
0.991492
0.99067
0.999989
0.999987
0.999909
0.999581
0.999034
0.998487
0.997939
0.997415
0.996912
0.996365
0.995691
0.99499
0.994369
0.993781
0.993191
0.992522
0.991798
0.991091
0.990509
0.98945
0.999987
0.999987
0.999933
0.999666
0.999127
0.998531
0.997952
0.997411
0.996893
0.996308
0.995632
0.994965
0.994309
0.993579
0.992771
0.991906
0.991042
0.990164
0.989378
0.988016
0.999983
0.999984
0.99995
0.99975
0.999255
0.998611
0.997984
0.997411
0.99685
0.996235
0.995586
0.994915
0.994185
0.993322
0.99235
0.991329
0.990271
0.9891
0.988064
0.986364
0.999978
0.999981
0.999961
0.999814
0.999391
0.998742
0.998055
0.997424
0.996787
0.996162
0.995519
0.99481
0.994012
0.993077
0.992033
0.990883
0.989596
0.988155
0.986909
0.984841
0.999962
0.99997
0.999963
0.999872
0.999569
0.998995
0.998266
0.997526
0.996803
0.996084
0.99535
0.99453
0.993627
0.992597
0.991432
0.990079
0.988505
0.98672
0.985098
0.982061
0.999946
0.999966
0.999972
0.999977
0.99998
0.99998
0.999981
0.999981
0.999982
0.999982
0.99998
0.999978
0.999976
0.999973
0.999969
0.999964
0.999958
0.999949
0.999938
0.999905
0.999964
0.999978
0.999983
0.999986
0.999987
0.999988
0.999988
0.999988
0.999989
0.999986
0.999982
0.999978
0.999976
0.999974
0.999971
0.999967
0.999963
0.999956
0.999948
0.999926
0.99997
0.999983
0.999988
0.999992
0.999993
0.999993
0.999993
0.999993
0.999991
0.999966
0.999932
0.999909
0.999906
0.999911
0.999921
0.999932
0.999941
0.999945
0.999945
0.999932
0.999976
0.999986
0.999992
1
1
1
1
1
0.999994
0.999729
0.999646
0.999618
0.999625
0.999645
0.999679
0.999727
0.999782
0.99983
0.999865
0.99988
0.999979
0.999987
0.999993
1
0.999371
0.999163
0.999166
0.999174
0.999189
0.999212
0.999246
0.999301
0.999379
0.999479
0.999577
0.999685
0.99998
0.999988
0.999993
1
0.998763
0.998783
0.998787
0.998787
0.998787
0.998789
0.998797
0.99882
0.998864
0.998944
0.999063
0.999261
0.999981
0.999988
0.999993
1
0.998231
0.998285
0.998303
0.998318
0.998322
0.998321
0.998319
0.998322
0.998338
0.998375
0.998451
0.99865
0.999982
0.999989
0.999994
1
0.997636
0.997756
0.997792
0.997837
0.997846
0.997841
0.997836
0.997835
0.997835
0.997837
0.997857
0.997972
0.999983
0.999989
0.999991
0.999991
0.999407
0.99893
0.998504
0.998021
0.997374
0.997396
0.997373
0.997321
0.997302
0.997318
0.99736
0.997363
0.997346
0.997298
0.997251
0.997286
0.999983
0.999987
0.999962
0.99973
0.999255
0.99896
0.998567
0.99817
0.99769
0.997402
0.997057
0.996903
0.99692
0.996945
0.996939
0.996889
0.996815
0.99673
0.996655
0.9966
0.999982
0.999983
0.999926
0.999653
0.999256
0.998959
0.998579
0.998198
0.997785
0.99735
0.996992
0.996867
0.996776
0.996652
0.996494
0.996335
0.996239
0.99616
0.996069
0.995904
0.99998
0.999979
0.9999
0.999626
0.999261
0.998956
0.998584
0.99822
0.997795
0.997336
0.997032
0.996846
0.996606
0.996302
0.996026
0.995825
0.99571
0.995598
0.995457
0.99517
0.999978
0.999976
0.999897
0.999631
0.999271
0.998952
0.998583
0.998217
0.997795
0.997369
0.997052
0.996733
0.996306
0.995895
0.995616
0.995414
0.99524
0.995055
0.994847
0.994419
0.999976
0.999975
0.999902
0.999648
0.999288
0.998952
0.998579
0.998205
0.997808
0.997426
0.997034
0.996547
0.996002
0.995571
0.995288
0.995038
0.994765
0.994463
0.994157
0.993559
0.999973
0.999973
0.999913
0.999679
0.999316
0.998956
0.998573
0.998192
0.99782
0.997429
0.996966
0.996401
0.995846
0.995384
0.995023
0.994648
0.994214
0.993752
0.99334
0.992575
0.999968
0.999971
0.999928
0.999724
0.999359
0.998971
0.998572
0.998182
0.997811
0.997402
0.996879
0.996309
0.99576
0.995231
0.994724
0.99416
0.99354
0.992904
0.992365
0.99142
0.999962
0.999967
0.99994
0.999778
0.999423
0.999003
0.998579
0.998173
0.997783
0.997341
0.996814
0.99626
0.995691
0.995075
0.994387
0.993613
0.992791
0.991925
0.991211
0.990063
0.999954
0.99996
0.999947
0.999827
0.999509
0.999063
0.998601
0.998162
0.997732
0.997262
0.996751
0.996196
0.995597
0.994891
0.994038
0.993062
0.991989
0.990838
0.989931
0.988504
0.999944
0.999953
0.999947
0.999863
0.999595
0.999156
0.998655
0.998171
0.997668
0.997182
0.996671
0.996097
0.99546
0.994681
0.993735
0.992626
0.99136
0.989996
0.98888
0.987036
0.999914
0.999933
0.999938
0.999882
0.999694
0.999318
0.998805
0.998247
0.997678
0.997101
0.996504
0.995842
0.995102
0.994205
0.993143
0.991892
0.990439
0.988788
0.987247
0.984305
0.999918
0.999944
0.999951
0.999956
0.999958
0.999959
0.99996
0.999961
0.999963
0.999963
0.999962
0.99996
0.999958
0.999955
0.999951
0.999945
0.999936
0.999924
0.999909
0.999865
0.999941
0.999954
0.999957
0.999959
0.99996
0.99996
0.999962
0.999962
0.999965
0.999965
0.999964
0.999962
0.99996
0.999958
0.999955
0.99995
0.999944
0.999935