/*--------------------------------*- C++ -*----------------------------------*\
  =========                 |
  \\      /  F ield         | OpenFOAM: The Open Source CFD Toolbox
   \\    /   O peration     | Website:  https://openfoam.org
    \\  /    A nd           | Version:  9
     \\/     M anipulation  |
\*---------------------------------------------------------------------------*/
FoamFile
{
    format      ascii;
    class       volScalarField;
    location    "0.006";
    object      p;
}
// * * * * * * * * * * * * * * * * * * * * * * * * * * * * * * * * * * * * * //

dimensions      [1 -1 -2 0 0 0 0];

internalField   nonuniform List<scalar> 
9720
(
3.58108e+06
3.46347e+06
3.46549e+06
2.74359e+06
2.3756e+06
2.24562e+06
2.13968e+06
1.84345e+06
1.46682e+06
1.16547e+06
950134
815413
765932
779051
802099
836060
880841
925123
965698
997983
3.46593e+06
3.34004e+06
3.28206e+06
2.03266e+06
1.91848e+06
2.11726e+06
2.10602e+06
1.74243e+06
1.17133e+06
758764
559192
500775
525865
579500
654074
720048
783580
838106
886351
915479
3.44588e+06
3.3443e+06
1.92238e+06
1.35734e+06
1.74624e+06
2.15074e+06
2.16176e+06
1.72064e+06
951586
512198
408772
427765
463427
532906
642030
769904
872179
933777
976008
977862
2.7364e+06
2.01742e+06
1.3445e+06
1.06115e+06
1.39007e+06
2.15629e+06
2.30112e+06
1.97119e+06
903757
249037
267530
311610
370981
441874
542288
690959
861749
1.01348e+06
1.07661e+06
1.06097e+06
2.33971e+06
1.85582e+06
1.67791e+06
1.36462e+06
187511
278814
303369
327876
355270
389958
438342
517169
666924
887228
1.07723e+06
1.12321e+06
2.18104e+06
2.03787e+06
2.07705e+06
2.08016e+06
373522
376590
371896
372315
375661
384233
400054
432779
500027
631021
846502
1.04352e+06
2.07325e+06
2.02654e+06
2.08042e+06
2.22827e+06
407196
375194
370975
367032
363121
364185
368591
379945
406380
467392
588865
853159
1.78407e+06
1.67228e+06
1.64389e+06
1.89693e+06
335181
247784
262379
270429
275933
283147
292877
306322
326507
361198
422752
632632
1.41582e+06
1.11454e+06
891920
807981
183740
360237
392441
317324
41352.1
66509.7
105276
140695
169314
192252
212458
229324
247389
273049
309233
446129
1.12476e+06
724457
486511
240989
268601
363147
358681
237717
71072.6
29830.8
38579.6
62270.4
93247.9
121485
144547
166258
185908
208066
234754
327951
915222
537417
401816
262725
293098
356635
354252
253679
110626
41257.7
26657.4
31372
46106.4
67251.8
90281.8
115300
139393
160912
181489
248539
786647
485576
421909
308915
318115
357029
349917
262007
145083
67311.6
33125
28013.2
30207.3
39385.2
57477
80918.7
103254
123651
139600
190592
743674
511777
455381
366903
346854
361041
349294
268026
172150
99009.1
50742
31180.9
31309.1
35672.1
45724
60677.4
76576.4
94512.3
110515
152876
761389
567572
520572
435444
382262
370582
351303
275754
194152
127285
73489.4
42493.6
36311.2
38702.1
42934.1
48662.9
58476.5
75076.9
91949.2
128025
789348
646104
626790
529788
429991
387440
357368
286035
213771
150718
97614.4
62719.5
47976.5
43392
43755.3
46416
52714.9
66073.7
81194
110168
825773
715888
756247
671354
505244
420486
370788
300196
230496
172712
123726
87819.9
64861.7
51043.2
46953.9
48407.4
53862.1
63681.5
73667.4
95397.6
870483
778455
862250
839199
645238
486467
399458
321460
249127
192419
148254
111042
82168.3
62766.2
54286.8
54823.6
58001.5
64623.3
70986.9
87428.6
912799
831080
924428
991111
857051
614153
461167
357423
275979
215015
169971
131913
101134
80483.4
69601.4
66161
65941.9
67586.4
71730.5
87655.5
950568
877002
964729
1.05506e+06
1.0415e+06
822126
582079
420165
313735
242703
190986
148217
117857
98243.7
86219.7
77825.4
73253.2
73153.2
76029.3
90089.7
977570
901361
963365
1.04147e+06
1.09483e+06
1.01254e+06
835398
626494
451287
337543
259214
200659
162348
136643
117423
101730
91697
90913.5
92611.5
101718
3.48898e+06
3.36985e+06
3.29823e+06
2.56002e+06
2.21586e+06
2.13824e+06
2.04817e+06
1.76632e+06
1.40028e+06
1.10687e+06
898775
766296
713487
726502
751790
784763
828108
872056
914210
948488
3.38822e+06
3.26809e+06
2.95111e+06
1.85647e+06
1.8124e+06
2.03445e+06
2.02875e+06
1.68086e+06
1.1219e+06
717744
527214
464734
485460
534586
606246
671380
733503
788517
839053
871713
3.31614e+06
3.07109e+06
1.68393e+06
1.24261e+06
1.6986e+06
2.08734e+06
2.0948e+06
1.66466e+06
909009
476324
377785
396298
429339
490924
588120
708411
813297
880864
930682
935470
2.58025e+06
1.85704e+06
1.22751e+06
965229
1.4234e+06
2.0685e+06
2.21981e+06
1.90228e+06
873329
229241
244003
282845
336586
400991
491853
627314
789496
939804
1.02292e+06
1.01476e+06
2.19678e+06
1.75073e+06
1.60098e+06
1.26584e+06
187224
259365
278872
298226
321093
351227
394178
463223
593004
797879
986222
1.06648e+06
2.0744e+06
1.95221e+06
2.0124e+06
2.00901e+06
345050
350622
344036
339877
341069
346567
358857
385917
441552
552642
747590
962503
1.98285e+06
1.95279e+06
2.02172e+06
2.15504e+06
376629
348933
342151
336143
329666
329195
331512
340131
360987
409435
510914
758848
1.70675e+06
1.61895e+06
1.60353e+06
1.84009e+06
309693
228869
241084
246408
248801
253591
261478
272863
289688
317805
366419
547886
1.34974e+06
1.074e+06
865374
802156
176173
332551
362152
290213
38670.8
60130.8
94017.5
124611
150397
170246
187155
201569
217183
239466
269451
384332
1.06404e+06
684820
456499
224627
250367
337740
333054
218196
64036.1
26379
33330.5
54152
81557.3
106074
125386
144466
162564
182160
204636
281966
864478
503085
364582
240118
270083
330371
326918
231769
98157.6
35621.4
23221.8
27367.6
40086.9
58188.4
77707.3
99460.8
120429
139388
157440
214435
738186
446089
383299
277842
289166
326804
321493
238130
128345
58240.5
28573.1
23157
24835.7
32883.8
48445.4
67617.3
87095.6
106482
121723
165582
693134
468470
414149
328644
311533
328371
317155
241750
152908
85842.9
43126.4
25587.9
25415.1
28565
36278.4
48971.7
64628.9
82271.9
96749.8
132929
710057
521198
473761
389117
340736
334264
317691
247488
172079
110721
62994
35504.7
29210.8
30629.3
34418
40666.5
50144.6
64934
79537.5
110700
738590
598295
572379
473102
381504
346526
321047
255558
188767
131278
84251.2
53070
38422.5
34925
35901.2
38421.6
43876.5
55273.8
68323.4
95453.2
772808
665948
694964
603925
446194
372682
330719
266695
203438
151543
107933
74554
53236.4
42866.9
39035.1
40012
44646.8
52818.9
62136
83570.9
814053
724107
798063
766757
569593
426242
352372
283640
219487
170302
130115
95676
70472.7
54291.4
45504.9
45670.9
48053.8
53738
60833
77451.2
853474
774189
863239
915880
770489
536294
401234
312379
242382
190217
149470
115734
89038.2
70273.2
58805.2
54777.5
55082.5
57513.6
62319.1
77401.1
890753
820413
908716
996860
954779
725802
503113
362554
273345
212953
167626
130947
104028
85521.5
72939
65480.2
62977.1
63686
66652.7
79003.6
919026
847769
909573
988530
1.03617e+06
933371
743284
543851
389717
291455
225039
175457
141801
118349
101756
88934.9
81316.6
80089.5
81091.2
88406.5
3.50179e+06
3.41385e+06
3.32809e+06
2.47061e+06
2.12323e+06
2.09146e+06
2.01301e+06
1.73471e+06
1.37528e+06
1.08235e+06
877786
747113
689161
700825
728005
761979
805606
849871
891825
926909
3.42492e+06
3.37957e+06
2.65286e+06
1.72021e+06
1.75732e+06
2.0059e+06
1.99781e+06
1.65048e+06
1.10462e+06
702627
515973
455004
471849
516027
581911
646686
710132
766860
817719
852541
3.31148e+06
2.79107e+06
1.47023e+06
1.15747e+06
1.66722e+06
2.05506e+06
2.06049e+06
1.63091e+06
888266
463448
365900
386963
423531
478821
564391
676307
782726
859963
913108
919370
2.46212e+06
1.70297e+06
1.12624e+06
892268
1.40217e+06
2.02564e+06
2.17546e+06
1.86143e+06
822307
218986
231665
268366
322338
387130
476267
607949
768712
919812
1.01283e+06
1.00618e+06
2.08424e+06
1.67548e+06
1.56454e+06
1.23125e+06
164075
245977
262633
279450
301205
331732
375216
440574
558285
756599
957868
1.05975e+06
2.01827e+06
1.91955e+06
1.97758e+06
1.97119e+06
326550
335382
327630
324122
325591
330924
341832
365465
412673
507501
692381
938504
1.94567e+06
1.93061e+06
1.99582e+06
2.10663e+06
357609
333372
325635
320180
315232
315123
317386
324934
341545
378893
463580
708052
1.67521e+06
1.59949e+06
1.58876e+06
1.80463e+06
291378
217213
227638
233656
236567
241461
249445
260323
274985
297505
335542
495452
1.32517e+06
1.06873e+06
869924
802959
159585
315433
341457
274764
35180.3
56811.5
88188.9
115739
139972
159696
177183
192550
206862
225820
250457
347727
1.03627e+06
670927
446232
210129
237470
322700
317420
205212
56836.3
23630.3
30062.6
48543.3
73758.7
98782.8
118697
137244
155883
173887
192484
255998
836549
482624
341364
220432
253656
315654
310912
216642
88177.5
31520.4
20502.1
24293.5
36617.7
54267.8
73264.2
94200.8
114887
134061
148928
195751
712998
429021
361749
252507
269300
312242
306486
223851
116060
51292.3
25473.4
19848.9
20988.9
28528.2
43532.8
62702.5
82212.1
100493
114277
151539
665871
448789
397250
301936
288599
313713
303072
227783
139846
76586.7
38927.3
21815.7
20818
23020.7
30363.7
43755.2
59124.7
76412.4
90432.5
122669
681630
497850
453663
361271
316118
318993
303693
233496
158570
100881
57037.1
30663.5
23647.8
24720.3
28541.4
34863.8
44513.7
58606.9
72860.4
102642
712072
570773
544819
442522
355845
329215
306524
241525
175195
120265
76493
46912.7
32481.1
29121.9
30258.4
32979.3
38159.4
48801.8
61957.5
88643.3
747687
642628
665721
569731
415401
350753
314343
251462
190094
139398
98473.1
67105.5
47092.2
36845.5
33494.4
34475.2
38837.1
47353.3
56817.7
77769.4
791454
705525
775985
740269
526014
395072
330775
265435
204573
158712
120462
87871.9
63741.8
48144.9
39679.3
39807.5
42432.7
48395.6
55287.1
71237.6
833408
759907
855504
901130
724233
487867
367889
288170
224128
177429
140485
107428
82132.8
63360.7
52115.8
49217.6
49779.5
51944.1
56679.7
71414.9
871446
807593
906149
997288
933686
669648
452446
327558
250016
196879
156069
121708
96889.3
78433.1
66549.9
60260.4
57324.4
57883.8
60752.6
73516.9
899461
834642
905403
990318
1.03872e+06
913355
692663
489554
350169
262716
204431
160328
131106
110197
94995.8
83184.6
74641.2
73743.5
75377.9
84204.5
3.52926e+06
3.43797e+06
3.33268e+06
2.39672e+06
2.06563e+06
2.07337e+06
2.00739e+06
1.72628e+06
1.36134e+06
1.0655e+06
864314
738669
682556
695258
725285
761317
806025
850560
892464
922802
3.43572e+06
3.46257e+06
2.39981e+06
1.60848e+06
1.72286e+06
1.99815e+06
2.00012e+06
1.64456e+06
1.09395e+06
686988
500195
445555
464105
511056
579241
646300
711489
769004
820230
851207
3.3355e+06
2.50941e+06
1.33711e+06
1.10034e+06
1.63942e+06
2.03947e+06
2.05722e+06
1.62366e+06
878572
450667
349870
372370
414085
474078
561191
675343
783892
866050
920451
922703
2.36666e+06
1.57751e+06
1.07241e+06
863460
1.32031e+06
2.00839e+06
2.16054e+06
1.84761e+06
774498
209312
219494
252807
306113
371006
459861
595788
767397
927446
1.02014e+06
1.01389e+06
2.0068e+06
1.64643e+06
1.57019e+06
1.27938e+06
160525
239472
255539
270124
288244
314984
354940
415996
526071
718875
944678
1.06767e+06
1.99371e+06
1.9178e+06
1.974e+06
1.94922e+06
318924
327111
320430
315400
315782
319192
327073
345754
386422
465704
634834
917434
1.93457e+06
1.92834e+06
1.99077e+06
2.09047e+06
348130
324886
317557
311829
306846
304265
305159
309850
321984
349931
416845
653165
1.66595e+06
1.59339e+06
1.58046e+06
1.79107e+06
283212
208995
218231
224902
228037
231687
238117
246749
258361
276095
305392
443319
1.31854e+06
1.06692e+06
862779
775007
160206
309411
333811
268034
33071.4
52080.9
82149.5
108693
131772
151645
168927
183954
197092
212284
231830
312485
1.02853e+06
668497
441966
204765
236289
320536
314594
202066
55415
21455
27099.8
43867.4
67394.4
92402.3
113737
131882
149801
166803
182752
235240
827721
476265
332418
214088
252375
314044
308425
213084
85587.6
29169.6
18809.9
22076.8
33307.9
51253.7
70678.8
90504.5
109776
129879
144291
183459
706987
423648
353177
244725
266778
309825
304335
221049
111759
47353.2
23258.9
17450.6
18969.3
26377.7
40850
58730.2
77067
96834.2
110915
143280
653457
441405
392946
294817
284319
310658
300712
225272
133950
71285.3
36008.9
19902.2
17464.7
19155.9
25738
38863.2
54652.9
72186.2
86989.1
117333
665603
487096
449882
354834
309932
315001
300423
229728
152561
95560.9
54069.7
28277.5
19666.5
20051.6
23182.7
29130.9
39125.5
53703.1
68390.8
97744.2
695966
555177
533799
436836
347895
323541
301972
236553
168895
115416
72965.6
43230.6
27616.7
23891.5
24933.4
28501.5
34021.2
44106.1
57033.9
83956.7
731475
624670
647890
562943
405095
341974
307534
245287
183758
132994
92735.9
61658.3
41962.1
31339
28891.4
30627.4
35156
42970.8
52460.7
73629.8
775771
689310
758172
729955
505302
381136
320361
257336
197565
151424
113109
81192.9
58711.5
42520.9
35190.4
35916.8
38624.6
44283.3
50769
66614.9
819370
746591
845772
897653
687379
456362
348526
275819
213509
169719
134764
102002
77075.8
57887.1
47009.4
44758.8
45457.9
47342.6
51977.7
67177
860181
797695
904281
1.00272e+06
918983
619364
414834
306143
234631
187242
149867
116289
92167.2
73311.7
61332.5
55754.1
52602.7
52946
56069.8
69795.7
888819
827415
904592
998876
1.05253e+06
901668
647226
445624
319284
242785
190673
149685
123891
104189
89803.8
78912.1
69865.8
69118.1
71208.1
81640.4
3.5575e+06
3.46232e+06
3.33882e+06
2.35331e+06
2.03602e+06
2.06471e+06
2.00361e+06
1.72247e+06
1.3517e+06
1.05169e+06
852056
734719
678554
691473
724330
764275
811008
855732
897506
927788
3.45136e+06
3.52488e+06
2.27885e+06
1.55416e+06
1.72984e+06
2.00774e+06
2.01072e+06
1.65075e+06
1.09027e+06
676423
484466
439081
459147
507848
579644
651300
718480
776757
827662
857675
3.35458e+06
2.37335e+06
1.28601e+06
1.08038e+06
1.66964e+06
2.05249e+06
2.06671e+06
1.63267e+06
872998
440347
335405
359234
403946
468222
558941
677873
790030
877709
932497
931307
2.32236e+06
1.52223e+06
1.05054e+06
845906
1.33628e+06
2.01023e+06
2.16701e+06
1.85962e+06
781976
203966
213468
245064
297244
361039
449134
587502
766137
939423
1.03681e+06
1.02875e+06
1.9813e+06
1.63916e+06
1.56542e+06
1.26245e+06
164806
233683
250984
266005
283360
308619
346536
405423
510881
701006
941924
1.08254e+06
1.98721e+06
1.91926e+06
1.97693e+06
1.95516e+06
310188
316946
312134
308816
309359
312895
320222
337037
375242
446859
601758
904562
1.93598e+06
1.93456e+06
1.99728e+06
2.09317e+06
335811
313917
308977
305039
301636
299559
300240
303974
314548
338443
395129
619982
1.66528e+06
1.59575e+06
1.58358e+06
1.79604e+06
274365
200506
210950
218605
223300
227345
233457
241123
251799
267948
293228
415801
1.31503e+06
1.0631e+06
854662
763976
152923
313726
336401
266536
31678.9
49324.1
78332.8
104935
127662
147500
164621
179611
193133
207408
224734
294973
1.02562e+06
665052
437799
204464
238676
322387
314923
200163
54712.7
20688.9
25770.2
41026.6
63790.8
89248
111088
129429
147055
163745
178819
225302
826842
476481
332274
214423
255417
316155
309241
211287
84532.7
28407.6
17648.4
20982.8
32474.4
50164.1
69466.1
87637.9
106336
127858
142576
177851
707416
424179
353420
245189
269702
311475
304924
220060
110541
45447.6
22366.9
17347
19149.7
25981.1
39054.1
56362.4
75009.6
95505.6
110052
140240
648520
440978
395277
295357
286473
311948
301546
225472
132134
68917.6
35325.8
20039.1
15809.9
16951.5
23463
37545
53860.4
71414.1
86380.4
115544
659250
485313
452914
355419
310403
315404
301151
230260
151099
93783.5
53590.5
28016.1
17478.3
17640.9
20875.6
27160.4
37435.3
52077.1
66819.7
95858.7
688433
549762
532938
438089
346257
322583
302376
236983
168340
114757
72906.5
41695.3
25167.4
21502.1
22597.1
26431.1
32177.7
42139
55476
82745.7
722982
615277
640184
564860
401578
338870
306681
245063
183709
132990
91052.9
59634.3
40342.8
29038.7
26817.4
28895.2
33549.3
41870.7
51984.8
73288.8
765765
680107
748410
728595
498985
375870
317386
255769
197260
150929
110644
79266.3
57632.4
40333.5
33070.2
34080
37233.8
43428.9
49615.6
64804
808644
737666
837624
894657
671744
443516
341086
271678
211852
168639
133680
100779
75967.6
55613.7
44208.8
43185.1
44233.2
46035.3
50235.4
64886
849210
788828
898470
999011
903209
590421
396863
296827
229975
184811
148987
115590
91288.2
71059.7
59065.5
55016.2
51099.4
50910.3
53644.1
68121.4
877545
817760
899234
997128
1.05177e+06
885118
616314
420175
303032
233767
185426
146230
121246
101615
88511.7
78479.1
67655.7
66394.1
69270.9
82412.9
3.55762e+06
3.45693e+06
3.33045e+06
2.34606e+06
2.03202e+06
2.06297e+06
2.00172e+06
1.72133e+06
1.35136e+06
1.05004e+06
848396
732578
678419
692287
726319
767097
815478
861598
903978
933044
3.45809e+06
3.52899e+06
2.26211e+06
1.5443e+06
1.73863e+06
2.01186e+06
2.01176e+06
1.65077e+06
1.09079e+06
676195
482457
437328
457748
506946
579550
653018
722521
782444
833746
862333
3.36611e+06
2.365e+06
1.27485e+06
1.07502e+06
1.68824e+06
2.05528e+06
2.06454e+06
1.63209e+06
872287
441239
334784
358744
404509
467801
557322
677848
793778
884684
938961
936676
2.31884e+06
1.51025e+06
1.04326e+06
834877
1.40155e+06
2.02035e+06
2.16822e+06
1.86664e+06
778417
203626
213680
245387
297089
360477
447178
585077
768881
945787
1.04151e+06
1.03283e+06
1.979e+06
1.62948e+06
1.5508e+06
1.21308e+06
151051
231819
249521
264857
282290
307247
344433
402468
507245
697472
941601
1.08356e+06
1.98631e+06
1.91605e+06
1.97469e+06
1.95987e+06
302295
314937
310009
306917
307635
311293
318453
334795
372416
443165
597491
903249
1.93586e+06
1.93327e+06
1.99892e+06
2.09877e+06
325642
311111
306355
302818
299906
298255
298993
302471
312503
335466
391242
615302
1.66295e+06
1.59484e+06
1.58597e+06
1.80039e+06
265095
199221
209248
216877
221684
226113
232411
239818
250111
265908
290809
412316
1.3135e+06
1.06374e+06
858426
787078
147471
311894
334004
265459
31954.8
50368
79017.2
104845
126779
146519
163767
178793
191867
205637
222744
292551
1.02536e+06
665126
438571
202075
234814
320101
314239
200063
53704.1
20825.1
26131.8
41119
63582.1
88303.7
110080
128255
145349
161786
177002
223781
827440
476770
333590
212439
252371
314642
309050
211245
83520.6
28064.9
17580.9
20906.5
32039
49314.9
68477.6
86547.7
105025
125803
140379
176073
708118
425596
354532
243880
267660
310955
305233
219497
109620
44989.2
22214.4
16992.9
18670.4
25424.4
38575.2
55753.6
73891.3
93731.5
108198
138354
650013
442598
396301
294657
284970
311647
302214
224715
131695
68420.7
34906.2
19631.1
15700
17030.4
23356.9
36808
52777.8
70164.3
85000.1
114083
660703
487306
454611
355541
309735
315483
301971
230064
151056
93128.6
53126.6
27667.8
17533.3
17665.1
20524.1
26594.4
36707.8
51240
66046.6
94601.7
689729
552331
536011
439848
346947
323012
303280
237319
167671
114165
72351.8
41651.9
25097.2
21141.5
22201.4
26040.7
31806.6
41867.7
55028.5
81815.8
723869
617542
644589
569357
403423
339871
307760
245511
182724
132232
91015.3
59535.9
39764.3
28407
26447.8
28556.1
33348.3
41446.5
51520.3
72805.7
765335
681331
751567
735061
503038
377598
318447
255987
196591
150596
110652
78755.7
57018.1
39772.2
32857.3
33886.4
36964.1
42948.7
49236.9
64448.6
806853
737152
838091
898834
678542
446353
342539
271978
211656
168491
133004
100448
75775.6
55412.6
43989.9
42693.2
43741.7
45678.9
49896.4
64597.9
846276
786086
895245
997568
903886
591327
398402
297185
230179
184590
148505
115582
91286.6
71045.4
58595.5
54358.9
50617.1
50564.1
53379.3
67885.9
874431
814530
895104
993633
1.05043e+06
879820
612724
417481
302286
232735
185234
146468
121478
101538
88006.4
78135.7
67465.3
66379.2
69283.6
82407.5
3.52974e+06
3.42917e+06
3.31591e+06
2.37976e+06
2.05654e+06
2.07063e+06
2.00398e+06
1.72425e+06
1.35613e+06
1.05879e+06
858912
737405
683162
696543
727504
764491
811309
857990
902330
933249
3.44666e+06
3.47337e+06
2.36534e+06
1.59152e+06
1.74293e+06
2.00745e+06
2.00199e+06
1.64506e+06
1.0892e+06
679314
491353
442261
461714
510205
579532
647596
714771
774758
828098
859970
3.35497e+06
2.49862e+06
1.32177e+06
1.0896e+06
1.68292e+06
2.04562e+06
2.05471e+06
1.62467e+06
871153
443581
342675
366669
410650
471210
558251
673349
784266
871671
928279
929746
2.36693e+06
1.56239e+06
1.05986e+06
839368
1.3997e+06
2.00671e+06
2.15061e+06
1.85663e+06
774417
205589
216494
250514
303983
368705
456877
592850
766968
932955
1.02702e+06
1.02024e+06
2.00088e+06
1.62711e+06
1.54306e+06
1.20931e+06
153414
234820
251386
266192
284478
310836
349495
409527
517750
711017
945316
1.0713e+06
1.9866e+06
1.90724e+06
1.9684e+06
1.953e+06
310265
320595
313445
308258
308687
312124
319915
338074
377625
454561
624290
915105
1.9301e+06
1.92175e+06
1.99225e+06
2.09683e+06
335981
317495
310117
304707
300274
298519
299461
303790
315066
341228
405741
642041
1.65807e+06
1.58688e+06
1.5778e+06
1.79772e+06
271363
203966
213112
220148
223919
227480
233496
241713
253159
270730
299222
434631
1.3099e+06
1.05593e+06
850607
760772
150300
308250
332999
267272
31650.5
52400.2
81952.1
107506
129486
148700
165602
180316
193197
208102
227220
306249
1.026e+06
662786
435980
205040
234371
319356
314412
200503
52872
21196.9
27204.9
43659.8
66596.2
91175
111870
128861
146256
163093
178737
230232
829364
477682
336037
215589
250978
312758
308233
211373
82867.4
28167.5
18469.2
21901.8
33194.2
50501.7
68925.6
88295.6
107385
127313
141227
179079
709366
425581
356910
247415
265572
307901
303680
219663
109054
45648.6
22677.7
17319.5
18772.3
25742.9
39830.7
57632.9
75832.8
95426.7
108603
139684
656136
444367
396363
297560
283112
308491
299604
223851
131480
69282.9
35062.5
19529.3
17129.6
18878
25437.2
38459.3
54203.6
71127.2
85324.4
115068
669032
491070
454262
358413
308679
312327
299035
228084
150548
93854.8
53056.6
27613.5
19312.8
19770.9
22939.3
29052.1
38758.3
53017.2
67486.9
96290.3
699189
560259
539765
442946
346840
320346
300293
234716
167619
114474
72112.4
42573.2
27111.1
23479.3
24629.1
28070.2
33623.1
43850.3
56584.6
83075.4
734216
628442
655063
574144
404830
338842
305346
243145
182829
132340
92260.3
61256
41385
30769.3
28419.9
30179
34857.1
42701.8
52172.7
73120.6
776164
692302
763572
743471
509379
378816
317582
254662
196382
150928
112857
81007.6
58407
41805.8
34651.5
35448.5
38250.4
44043
50429.4
65902.7
816602
746614
846699
906764
694716
454873
345314
272617
212048
169019
134528
102151
76848.9
57618.7
46484
44139.4
45083
47131.1
51524.9
66500.6
854487
793753
898145
995331
919620
618449
411266
302409
232447
185966
149665
116521
92457.6
73567.4
60934.9
55391.6
52305
52616.1
55720.3
69441.7
880931
820230
897285
988534
1.0445e+06
896576
641253
439954
315370
240779
190151
149975
124696
104895
90184.6
79272.6
70007.7
69373.2
71541.1
81977.9
3.49666e+06
3.39375e+06
3.30749e+06
2.45835e+06
2.11941e+06
2.09665e+06
2.01645e+06
1.73711e+06
1.37001e+06
1.07612e+06
874973
749369
694890
707407
734272
768284
812217
856994
899164
934296
3.43238e+06
3.37642e+06
2.60018e+06
1.71343e+06
1.7699e+06
2.01789e+06
2.00684e+06
1.65548e+06
1.09874e+06
692512
506341
452457
472387
519402
586367
651269
714871
771698
822425
857657
3.32417e+06
2.79118e+06
1.45502e+06
1.15478e+06
1.68693e+06
2.05971e+06
2.06812e+06
1.63682e+06
884106
454541
357152
380105
419698
478183
566603
678938
784816
862398
915549
922284
2.44969e+06
1.68171e+06
1.11812e+06
870749
1.40672e+06
2.01001e+06
2.15941e+06
1.85872e+06
787856
213172
226175
263977
318575
383823
473681
608452
772924
924201
1.01462e+06
1.00732e+06
2.06911e+06
1.65584e+06
1.54824e+06
1.21907e+06
160591
237794
255238
272433
294371
324656
367277
432533
552073
753890
957872
1.05972e+06
2.0048e+06
1.90557e+06
1.9713e+06
1.95835e+06
309153
324013
317469
314428
315911
321200
332072
355632
402683
498028
685861
935984
1.93685e+06
1.91995e+06
1.99228e+06
2.09696e+06
338705
322627
316144
311314
307088
306985
309034
316001
331869
368116
452761
699827
1.66496e+06
1.58913e+06
1.5808e+06
1.79565e+06
274533
208421
219908
226913
230101
234873
242631
253175
267662
289958
327806
487709
1.3159e+06
1.05635e+06
855552
791828
150411
311810
337519
270210
34391.3
54909.3
85227.8
111992
135687
155601
173343
188457
202413
221146
245623
342598
1.03279e+06
665718
440442
208914
237956
325877
321455
207411
56969.9
23098
29022.7
46944
72119.5
97187.6
116600
134518
152942
171014
189651
252866
835905
482045
342105
220822
255570
318680
315148
218914
88170.3
30398.1
19889.2
23856.6
36291.4
53488.7
71698.4
92111.6
113130
132505
147343
193646
713564
429476
362591
255263
272309
314875
310522
226403
115636
49707.4
24772
19593.8
20722.2
28027.7
42883.1
61901.6
81269
99301.3
112808
149970
667505
450186
398682
306528
292310
316251
306724
229979
139483
75431.7
38168.5
21364.8
20356.6
22661.5
30258.4
43668
58634.8
75504.6
89530
122194
684055
500817
458193
367443
320375
321395
307154
235190
158814
100710
56467.2
29846.5
23160
24425.3
28459.6
34735
44144.6
58188.6
72581.8
102575
714679
575992
552347
451381
360500
331530
309675
243007
176091
120701
76009.6
46312.5
32179.2
28967.8
30141.4
32803.6
37968.8
48893.4
62304.6
88784.6
750455
647019
675796
584617
420992
353420
317110
253184
191177
139541
98300.7
67171.4
47247.9
36650.7
33303.1
34318.4
38861.9
47796.1
57284.2
77760.9
793637
709504
784652
758516
534811
398496
332968
267389
205521
158994
120999
88422.6
64010.6
47918.8
39499.8
39822.8
42782.7
48894.9
55415.4
70914.8
834551
762517
862254
918555
734239
490693
369277
290016
224896
178079
141594
108095
82567.8
63607.3
52340
49796.8
50241.2
52129.8
56699.5
71245.6
872066
808503
907328
1.00148e+06
943280
672789
453241
328904
250571
197594
157097
122368
97791.2
79354.9
67395.5
61136.9
57670.8
58054.7
60858.9
73600.4
898281
834123
905686
991613
1.04314e+06
918113
694150
489519
350208
263370
205115
161161
132612
111860
96526
84492.8
75489.2
74504.2
76132.8
84900.6
3.48228e+06
3.35319e+06
3.30042e+06
2.56914e+06
2.22706e+06
2.15501e+06
2.06007e+06
1.77776e+06
1.40767e+06
1.11081e+06
903349
771160
719430
732187
755747
786645
827574
870427
912621
949516
3.38912e+06
3.26105e+06
2.87967e+06
1.87366e+06
1.83689e+06
2.05619e+06
2.04317e+06
1.69304e+06
1.12945e+06
719236
528474
467179
489104
538777
608146
669247
729125
782777
833106
868599
3.2916e+06
3.08432e+06
1.67259e+06
1.26153e+06
1.72214e+06
2.10467e+06
2.11037e+06
1.67702e+06
916017
476304
378151
398367
432487
493222
588496
703841
803923
869474
919254
927825
2.54577e+06
1.82199e+06
1.20191e+06
920273
1.4291e+06
2.04729e+06
2.20495e+06
1.89085e+06
849259
227271
242171
281951
335747
401376
494913
632459
792820
937025
1.01394e+06
1.0058e+06
2.16827e+06
1.72145e+06
1.57992e+06
1.23002e+06
167139
251771
270439
289335
312570
343726
388479
461078
596589
802125
981120
1.05811e+06
2.05073e+06
1.92892e+06
1.99653e+06
1.97815e+06
319228
341106
334565
330574
331870
337384
349998
378207
435535
551554
748581
958020
1.96612e+06
1.93582e+06
2.01033e+06
2.11636e+06
350509
339873
333163
327204
321084
320650
322959
331731
353270
403260
508640
757083
1.6912e+06
1.60635e+06
1.59578e+06
1.81351e+06
285277
222632
234734
240047
242649
247761
255814
267296
284381
313111
363438
547520
1.33616e+06
1.06516e+06
863626
785372
163249
321875
351348
283084
36990.6
59731.7
92739.4
122402
147405
167152
184206
198623
214331
236966
267730
384873
1.05371e+06
676694
450698
221136
250960
342776
338929
221407
63065.9
25964.5
32857.9
53378.5
80424
104788
124095
143194
161373
181323
204290
282876
855726
495030
360689
236699
271044
334999
332512
235148
97391.5
34764.3
22877.7
27099.9
39859.9
57788.4
77181.5
99048.8
120540
139629
157696
214985
733554
442078
379663
275454
290544
330314
326811
241436
127916
57098.3
28133.2
22889.6
24567.1
32729.7
48610.8
68203.5
87811.3
106739
121731
165989
692510
466008
411289
328470
313168
331512
321556
244247
152923
85190.3
42512.5
25090.3
25043.7
28402.7
36638.1
49561.7
65111.9
82637.4
97106.2
133832
711790
522179
473728
391117
342967
336955
321710
249246
172546
110499
62044.2
34742.2
28917.7
30583.5
34483.3
40762.3
50335.9
65271.7
80072.3
111606
742987
604967
578180
476808
384376
348862
324528
256942
189198
130645
83035.6
52413.5
38347.3
34928.8
35941.2
38492
44045.2
55789.7
69134
96312.5
780427
677637
709222
612982
449387
374770
333636
267915
203287
150250
106704
74161.1
53200.2
42775.8
39059.3
40116.9
44952.4
53481.7
62955.2
84171.1
824067
738532
816601
786659
574761
428217
354209
284558
218694
168913
129294
95387.7
70421.7
54293.6
45674.2
45988.4
48614.7
54361.6
61261.1
77463.3
864310
789395
887097
943321
781271
537020
401481
312726
241198
189131
149267
115693
89291.2
70546.5
59364.6
55532.4
55697.1
57849.4
62557.8
77590.4
901646
834860
926389
1.01612e+06
973422
729539
502168
361781
271888
212155
167592
131293
104802
86376
74014.2
66492.7
63347.3
63871.5
66791.5
79234.9
925882
857753
922879
1.00317e+06
1.05224e+06
944947
746112
542213
387788
290703
225079
176290
143340
120004
103326
90041.5
81724
80537.6
81575.1
88989.9
3.575e+06
3.44569e+06
3.45815e+06
2.74443e+06
2.38339e+06
2.26686e+06
2.15825e+06
1.86316e+06
1.48166e+06
1.1737e+06
956165
818697
768733
781138
802461
834479
877102
920347
960400
995718
3.4681e+06
3.33232e+06
3.19093e+06
2.04556e+06
1.94537e+06
2.14506e+06
2.12588e+06
1.76192e+06
1.18583e+06
765482
565462
504206
528893
580633
651783
714901
776454
830205
877750
909558
3.4218e+06
3.3689e+06
1.90922e+06
1.37935e+06
1.78509e+06
2.17745e+06
2.18097e+06
1.73733e+06
963714
517169
414167
435292
471026
535756
638275
760804
860215
919845
963743
969145
2.70612e+06
1.98215e+06
1.30582e+06
989456
1.45979e+06
2.11324e+06
2.26686e+06
1.94485e+06
889067
250208
269101
314693
373966
446729
549528
697358
862727
1.00634e+06
1.06417e+06
1.04988e+06
2.30975e+06
1.81812e+06
1.63878e+06
1.26365e+06
187357
272861
296096
320287
349176
386465
438479
522998
678783
895181
1.07034e+06
1.1122e+06
2.14804e+06
2.00238e+06
2.05139e+06
2.01738e+06
342346
368557
363395
363714
367142
375844
392829
428378
500034
638485
853881
1.03844e+06
2.04805e+06
2.00082e+06
2.05971e+06
2.15982e+06
374724
366455
362016
357699
353615
354646
359432
371932
401245
466914
595506
857477
1.76194e+06
1.65371e+06
1.62924e+06
1.84938e+06
306769
241329
255913
263710
269117
276280
286148
300116
321500
358338
423866
638270
1.39606e+06
1.0973e+06
877985
793721
177660
343324
374256
300500
40310.4
64991.7
102956
137843
166049
188570
208362
225209
244019
270934
309084
450399
1.10944e+06
710979
476881
240203
269448
366167
362341
239830
70632
29592.7
38269.1
61765.6
92270.8
119898
142524
164227
184074
207102
235005
331156
903182
524351
392576
261265
294155
358930
357852
256096
110448
40848.2
26554.1
31415.1
46165.2
66999.8
89750.8
114738
139010
160971
182306
251176
780145
477361
412058
306380
319236
358993
353710
264736
145378
66803.9
32875.8
27867.7
30106.3
39452
57613.2
81059.6
103682
124449
140748
192959
741629
505583