/*--------------------------------*- C++ -*----------------------------------*\
  =========                 |
  \\      /  F ield         | OpenFOAM: The Open Source CFD Toolbox
   \\    /   O peration     | Website:  https://openfoam.org
    \\  /    A nd           | Version:  9
     \\/     M anipulation  |
\*---------------------------------------------------------------------------*/
FoamFile
{
    format      ascii;
    class       surfaceScalarField;
    location    "0.006";
    object      phi;
}
// * * * * * * * * * * * * * * * * * * * * * * * * * * * * * * * * * * * * * //

dimensions      [0 3 -1 0 0 0 0];

internalField   nonuniform List<scalar> 
28500
(
-158.13
-158.258
-1.9003
-128.16
-168.589
-0.51872
-116.716
-171.04
-0.9003
-97.0572
-224.602
-5.58147
-53.5842
-288.924
-8.66082
6.11527
-291.103
-7.72928
69.2697
-287.27
-9.08727
143.578
-291.694
-7.70846
214.562
-279.093
-9.24373
267.364
-238.245
-8.05373
305.115
-191.548
-6.56537
330.349
-156.882
-4.67162
346.67
-133.072
-8.01643
356.695
-114.986
-7.44287
366.129
-99.1188
-4.9821
374.95
-92.0492
-4.11177
384.314
-85.0536
-5.18469
395.309
-79.6225
-6.27289
408.494
-73.2702
-6.18456
-65.3719
-7.98858
-167.88
-128.041
0.0429196
-140.444
-138.534
2.82939
-158.352
-183.351
2.25652
-134.897
-229.287
-6.50971
-68.8738
-290.454
-9.66987
1.04695
-287.47
-7.97391
71.3087
-285.065
-8.34737
166.57
-288.643
-8.33998
262.561
-262.691
-7.74192
325.08
-195.817
-4.55919
358.947
-142.758
-4.40872
375.938
-116.162
-2.61434
382.636
-105.164
-8.01802
380.77
-85.7944
-7.84061
381.536
-73.518
-3.61008
386.597
-64.3483
-2.37642
393.26
-58.4693
-3.15864
402.227
-60.0282
-4.78175
414.158
-58.2758
-5.30586
-52.3575
-7.03445
-171.257
-114.575
1.42675
-185.161
-154.636
3.37837
-215.865
-213.367
-0.421861
-163.921
-60.3812
-8.73153
-65.5289
-61.8886
-67.076
-72.6648
-69.4859
-7.96386
-70.8599
-70.5694
-71.6569
3.27229
-70.2855
-7.32686
-70.038
-71.0834
-70.8198
77.71
-69.7478
-7.04787
-69.8488
-70.4171
-70.5485
181.192
-69.8258
-6.90007
-69.9051
-70.5489
-70.7812
286.963
-62.5162
-6.3976
-48.5952
-63.8101
-49.6452
345.615
-166.154
-2.92392
374.943
-145.029
-2.72386
393.465
-126.007
-5.01838
408.38
-110.3
-9.67343
413.097
-91.9587
-10.8454
406.967
-73.2287
-7.56571
401.068
-56.4846
-4.27739
400.664
-46.4612
-3.38189
405.314
-40.1496
-4.21194
414.688
-39.6264
-4.8321
-37.976
-5.09179
-224.917
-94.1174
-1.58229
-231.078
-133.441
-2.5299
-61.9695
-163.335
-3.84409
-66.3605
-61.8809
-66.5248
-59.3694
-58.1138
-2.11883
-30.9699
-2.7258
49.7041
-17.4258
-16.9371
-16.9499
-17.4059
19.4793
-8.05351
-1.90128
-17.3477
-17.5754
-17.5936
-17.3378
-1.1676
10.1963
-2.31941
-17.4716
-17.2031
-17.2182
-17.4594
-21.0686
31.8131
-2.13241
-17.6743
-17.3023
-17.34
-17.6329
-54.7339
68.3496
-58.1127
-2.91829
463.823
-131.68
-11.4757
-91.0065
-111.803
-91.1231
-112.771
487.083
-129.726
-15.6292
493.116
-120.956
-12.0041
493.019
-108.788
-10.4009
489.246
-96.6157
-12.7967
477.948
-79.668
-14.6457
456.826
-59.1311
-11.8678
433.888
-36.8078
-7.45289
425.052
-21.4131
-9.08964
425.021
-14.8459
-11.1172
-11.5738
-12.8611
-287.681
-52.3299
-8.21604
-289.853
-68.9745
-8.85216
-69.4765
-72.907
-7.21309
-71.0271
-70.2568
-71.5268
-30.688
-1.78019
50.3956
-17.4765
-17.5713
-17.7616
-17.4203
6.06219
29.6424
-7.75954
-1.29695
568.944
-78.9018
-14.9295
-137.774
-141.616
-139.934
-144.014
570.304
-75.7367
-16.1144
569.339
-72.3923
-16.6071
565.788
-67.3567
-16.1064
558.637
-61.5761
-17.1314
549.086
-53.5557
-16.7046
532.396
-37.9887
-15.901
500.903
-16.92
-18.7382
466.971
-1.85609
-14.3089
454.608
13.2077
-11.922
19.4596
-13.9727
-290.938
6.47622
-8.18448
-287.1
1.24856
-8.38069
-70.3169
3.08524
-7.71335
-70.1828
-70.8855
-70.855
19.5438
-8.08988
-2.13572
-17.3603
-17.616
-17.6205
-17.348
4.18826
35.8148
-3.12682
-1.15968
583.056
-4.3075
-15.7552
-143.684
-144.85
-146.058
-147.311
583.364
-4.79996
-16.5932
583.441
-5.16052
-17.0972
583.567
-4.5825
-17.2491
582.916
-2.53239
-17.9484
580.874
0.694792
-18.1031
576.034
4.668
-16.1973
563.292
14.1467
-17.8392
534.675
31.1173
-17.5293
496.222
49.2809
-8.54731
55.5843
-12.0627
-287.936
69.582
-10.6183
-286.091
71.895
-10.008
-69.783
78.287
-8.08403
-69.778
-70.4441
-70.4433
-1.23995
10.2634
-2.60987
-17.5152
-17.2494
-17.2694
-17.5016
0.160696
36.2012
0.820471
-1.10925
594.048
73.4398
-15.336
-146.484
-147.497
-148.867
-149.957
595.265
70.5661
-16.594
596.924
67.6129
-17.1921
598.446
66.827
-16.982
599.307
65.6887
-17.0103
598.804
65.6691
-17.9042
596.398
65.1663
-17.7182
590.953
66.7295
-16.6167
578.325
71.3254
-18.9462
550.552
86.0485
-13.7779
96.7663
-11.335
-292.516
144.199
-9.11978
-289.673
167.448
-10.0908
-69.7636
181.932
-8.21785
-69.7107
-70.6418
-70.6885
-21.1653
31.9893
-2.48532
-17.5706
-17.4011
-17.4121
-17.4457
-4.10466
36.8781
5.61009
-1.1199
604.726
196.984
-18.5166
-148.622
-149.096
-150.996
-151.426
607.504
185.329
-15.6972
610.623
174.704
-13.4571
614.072
165.377
-16.1096
614.902
157.238
-18.9846
615.539
148.501
-18.7243
614.62
139.617
-16.8393
610.927
132.687
-14.7584
604.112
126.915
-15.5182
590.675
130.511
-14.206
138.973
-10.7227
-278.722
215.341
-11.4791
-261.947
263.889
-11.4195
-61.989
288.521
-11.4256
-48.5471
-63.9172
-50.2383
-54.354
-57.793
70.1172
-3.83551
8.70347
-7.13832
32.7529
-1.81734
4.19095
-3.06824
35.044
-1.17809
0.0300455
0.956886
35.4031
-1.15674
-4.23089
5.71081
36.1237
-1.13819
-10.1422
-12.6053
124.627
130.57
-4.34135
-16.5583
-9.31834
-15.7702
-17.5856
-14.7954
-18.5413
574.399
361.93
-7.4172
-136.865
-120.907
-138.403
-122.303
584.934
320.154
-11.0531
592.773
291.279
-24.9796
601.249
264.291
-24.7591
609.36
244.405
-20.1207
612.714
230.544
-14.2195
616.87
216.071
-15.3818
619.098
203.599
-16.9576
615.211
191.489
-18.2227
608.281
184.357
-16.2079
186.472
-12.0157
-236.789
267.728
-11.4804
-194.157
325.495
-10.801
-167.36
345.747
-10.1342
-136.375
462.643
-16.2133
-91.9166
-112.82
-91.8042
-112.455
-79.8522
558.463
-16.7423
-135.921
-138.647
-137.674
-140.846
-2.046
570.635
-16.1141
-140.527
-141.596
-142.686
-143.946
76.7567
582.26
-15.5264
-143.258
-144.381
-145.695
-146.979
203.421
592.746
-16.9648
-146.46
-147.187
-149.25
-150.455
342.91
570.959
-10.5673
-139.196
-126.704
-141.954
-129.59
476.445
492.101
3.81612
539.552
421.993
-33.7574
551.986
379.81
-27.873
559.942
345.89
-15.6679
573.834
317.835
-10.6182
588.429
302.228
-14.4514
599.264
282.496
-18.1215
610.881
265.54
-19.675
617.426
251.267
-20.1484
616.68
236.81
-16.6744
230.621
-12.9994
-191.059
305.325
-9.48183
-142.142
359.187
-9.37034
-146.507
374.81
-8.00076
-132.717
482.561
-19.3147
-76.2624
560.088
-17.9265
-2.7161
571.174
-17.0296
73.139
583.704
-16.8733
186.253
594.138
-14.5153
310.028
577.389
-11.3942
405.77
534.387
-27.1037
489.272
497.339
-30.7668
520.946
443.476
-1.72708
528.975
408.56
-2.14656
543.432
379.91
-10.535
563.42
363.349
-20.1862
576.04
341.461
-26.7733
585.668
321.835
-20.6283
597.64
304.831
-17.8046
604.28
289.253
-17.3689
273.021
-12.8282
-157.566
330.639
-7.67583
-116.63
376.501
-7.26398
-128.123
393.181
-8.957
-122.664
488.199
-14.976
-72.4358
559.323
-17.966
-3.12708
571.105
-17.8173
69.2385
585.288
-17.7234
174.028
596.847
-12.7884
280.812
586.303
-19.8891
363.389
543.979
-28.1457
428.74
513.587
-8.37624
487.54
489.544
5.25629
522.373
460.731
-9.21478
534.303
432.844
-14.9644
540.399
408.995
-17.7739
549.684
384.899
-24.6289
561.857
370.95
-19.1774
578.114
352.784
-14.6705
595.068
341.601
-16.7281
316.495
-13.2996
-134.156
346.548
-11.3436
-107.88
382.993
-11.5658
-112.675
408.803
-12.1017
-109.884
488.56
-12.4063
-67.4475
555.911
-17.3909
-2.94011
570.987
-18.1325
67.4859
586.896
-17.3984
164.29
600.186
-15.716
258.896
594.865
-19.2816
333.692
555.601
-16.9388
391.471
517.359
-9.76082
444.714
511.137
-14.2592
496.352
498.35
-23.3285
510.08
465.629
-19.4938
511.84
437.257
-17.953
521.687
412.902
-15.7079
539.723
408.474
-9.84762
559.237
394.693
-0.502507
576.599
382.561
-5.95128
354.756
-9.34739
-115.851
356.052
-11.1516
-88.4729
380.225
-11.373
-94.9309
414.185
-12.2119
-97.2696
485.49
-13.4598
-61.195
549.326
-17.7195
-1.06978
570.309
-18.805
65.6646
588.058
-17.5529
155.182
601.002
-18.2107
240.099
602.073
-15.4517
309.917
571.071
-9.04992
368.347
535.186
-10.3599
416.307
519.143
-18.3221
457.622
500.48
-22.6505
478.599
476.167
-26.6343
492.229
456.675
-15.0494
508.865
439.265
-1.14989
525.209
436.236
1.9547
537.21
422.375
2.91283
551.552
411.522
-9.73254
387.767
-13.457
-98.9363
365.419
-8.71476
-74.9683
380.199
-7.50996
-76.3372
407.937
-9.04931
-80.2532
475.549
-14.7445
-53.0982
540.661
-16.5675
2.04389
568.335
-18.6885
65.242
587.89
-18.3207
145.909
601.91
-18.525
226.509
603.999
-10.8713
295.413
585.355
-9.1208
352.668
557.541
-16.0331
393.199
528.914
-17.5246
425.044
499.982
-21.0925
450.226
485.268
-15.8213
478.122
478.393
2.61293
497.176
464.208
7.87815
511.739
453.466
-3.46107
519.453
436.333
-7.65855
530.075
427.68
-10.5358
414.204
-8.93983
-91.9142
374.326
-7.88462
-66.514
384.992
-6.86628
-59.3831
400.503
-7.01876
-59.9924
455.145
-11.0619
-37.7892
525.099
-15.5373
6.11489
563.929
-16.7777
64.5016
585.898
-17.8442
136.984
601.209
-17.0599
211.853
607.012
-11.9057
277.058
594.825
-11.3622
332.89
571.295
-20.9953
374.33
541.994
-20.822
404.324
511.24
-14.2695
430.742
498.704
-2.40129
458.607
492.907
6.98738
480.104
480.023
-3.30756
490.944
464.83
-12.9251
498.237
445.371
-11.1334
510.524
440.506
-4.08628
433.434
-1.95875
-85.4773
383.704
-9.11664
-59.5224
392.08
-7.97222
-48.3152
399.722
-8.15536
-38.9319
432.169
-6.02827
-17.0006
495.169
-16.9948
15.6492
551.783
-18.3432
66.0124
580.768
-16.8203
130.196
597.795
-14.9458
198.813
608.279
-14.0685
260.596
604.908
-13.9784
315.222
581.076
-15.387
363.76
556.307
-12.9334
402.197
532.221
-5.54327
429.009
515.899
2.84169
447.305
505.642
-3.24997
461.89
487.953
-12.9005
472.68
473.161
-18.1009
481.703
456.899
-15.4463
496.297
453.715
-4.58095
448.396
0.941108
-80.154
394.765
-10.1969
-60.9234
401.351
-9.62456
-41.9124
404.224
-9.20601
-23.7206
423.282
-9.67687
-3.13246
461.821
-10.61
30.6154
524.408
-15.9149
70.4765
568.323
-18.6136
124.744
591.147
-15.3309
186.361
603.858
-16.315
245.888
610.211
-15.5726
298.725
592.659
-11.5544
346.859
573.199
-7.84931
388.824
552.989
4.17201
416.499
530.465
3.67906
431.664
513.937
-8.66898
442.133
494.367
-11.3272
454.529
480.562
-14.8639
468.165
469.956
-9.59893
486.868
466.505
5.34736
458.236
5.32804
-73.7278
408.062
-10.0568
-59.3708
413.525
-10.0863
-41.2129
413.629
-9.88399
-16.5891
423.239
-13.3133
12.1877
450.384
-10.6429
47.9643
487.776
-7.19741
83.9844
540.972
-11.9353
128.651
577.748
-12.9257
179.883
596.816
-14.6831
231.615
608.607
-13.0778
283.352
598.419
-11.2595
336.244
589.705
-10.3063
376.892
571.352
-2.01681
405.959
546.25
-8.38425
424.558
525.139
-10.1123
439.13
506.577
-3.55201
452.787
493.665
-4.36751
466.118
487.34
3.74152
475.73
475.627
9.4161
467.632
5.521
-65.798
-11.3975
-53.5605
-11.2694
-39.5552
-9.77512
-13.6955
-15.5255
17.2945
-14.025
53.4536
-11.9448
94.381
-10.1905
136.298
-9.33994
182.034
-10.7539
225.808
-10.0649
268.093
-8.86496
311.471
-8.70235
349.395
-5.92848
382.563
-10.3264
410.992
-6.37819
431.994
-0.201033
448.314
1.59834
459.286
4.54487
468.723
5.28602
4.87121
-157.723
-158.467
1.92497
-127.818
-169.202
4.69102
-118.651
-175.056
8.51597
-99.9659
-232.364
4.40113
-55.1699
-297.375
0.182448
5.46735
-296.758
-1.58261
69.0249
-292.491
-3.071
144.181
-297.309
-2.13406
215.523
-283.962
-2.59038
268.667
-242.081
-1.43435
306.867
-195.034
0.290761
332.045
-159.949
2.76018
347.971
-135.424
0.0801766
357.802
-116.974
-0.435329
367.171
-100.509
0.814459
376.035
-92.6111
1.81967
385.096
-85.7828
0.609017
395.674
-80.3908
-0.577569
408.57
-74.0229
-1.20565
-66.323
-3.02641
-167.705
-128.101
4.47417
-143.486
-143.412
8.71814
-167.004
-195.154
16.0893
-137.408
-242.807
4.76714
-67.9963
-298.985
-0.744683
1.49313
-294.41
-1.91908
71.6325
-291.182
-2.73146
167.007
-295.454
-2.9538
263.795
-268.836
-0.680257
326.986
-201.586
2.74313
362.023
-147.489
2.06766
379.177
-118.699
5.94577
385.984
-106.608
1.33353
383.683
-87.4191
-0.0808651
383.556
-74.0791
2.33092
387.924
-65.1608
3.56834
394.24
-58.2172
2.33153
402.719
-59.5984
0.675618
414.192
-58.5633
-0.541504
-53.0326
-2.51579
-173.135
-116.36
7.55383
-193.967
-163.18
13.3986
-219.739
-219.55
11.9854
-166.318
-63.857
1.08621
-69.1026
-64.5057
-69.8597
-71.4601
-72.4726
0.102561
-73.2903
-73.0187
-74.0316
3.63979
-72.6858
-1.22922
-72.5122
-73.228
-73.0802
78.1685
-71.9433
-1.97896
-72.0435
-72.5108
-72.6767
181.716
-72.0592
-1.66564
-72.368
-72.5854
-72.9414
288.933
-65.332
1.35883
-51.3817
-65.3732
-51.2211
349.173
-170.1
5.96569
379.623
-148.685
3.63625
397.659
-128.767
3.59514
411.895
-112.072
-0.260083
417.219
-93.244
-2.45026
411.32
-74.1048
0.569333
403.591
-56.8711
3.18474
402.539
-45.9672
1.75331
406.193
-40.0044
0.542028
415.064
-38.5943
-0.498714
-37.737
-1.06221
-230.548
-96.6291
5.69214
-240.743
-137.012
4.12461
-63.5685
-166.372
-1.57611
-68.4111
-64.95
-68.9629
0.641129
-60.2841
-60.1134
-0.147957
1.84987
-29.9839
-0.828409
50.4053
-18.4935
-18.5773
-18.3218
-18.6157
0.882165
19.3662
-8.13816
-0.330131
-18.0122
-18.192
-17.9509
-18.1999
1.41999
-1.1503
10.1962
-0.912131
-18.0804
-17.7881
-18.0406
-17.8277
1.17879
-21.1073
31.6491
-0.673289
-18.2653
-17.9064
-18.2521
-17.9725
-54.8423
0.635999
68.5663
-60.9653
-0.170998
474.362
-133.76
0.792138
-92.4443
-114.105
-93.0451
-116.461
498.156
-131.871
-3.50334
503.206
-122.724
-0.664625
502.01
-110.217
1.74042
497.323
-97.9148
-0.227953
486.03
-81.2276
-3.78194
464.861
-60.3253
-2.11967
440.125
-37.4911
2.8666
427.597
-21.0583
-0.682363
427.043
-14.011
-6.21191
-11.1131
-8.40685
-294.945
-53.8678
-0.989032
-297.063
-69.039
-3.52847
-71.4359
-73.5311
-3.52624
-72.862
-71.994
-73.5195
0.849598
-31.0278
-0.822248
49.7489
-17.7504
-17.248
-17.7983
-17.3049
0.430641
5.92385
29.8349
-7.64967
-0.284309
582.339
-79.0476
-7.19684
-142.233
-146.18
-143.174
-146.532
583.254
-75.7436
-7.8805
581.771
-72.6241
-7.69739
577.438
-67.9378
-6.35572
569.389
-62.287
-6.13031
559.124
-54.4864
-5.35973
543.03
-39.5701
-4.45998
512.544
-18.5179
-7.33939
475.641
-2.41704
-1.34173
458.587
14.2793
-1.1998
20.8565
-8.26522
-296.332
5.64771
-2.29193
-293.448
1.32223
-3.23262
-72.1579
3.42488
-2.99454
-72.2738
-72.5743
-72.6972
1.2189
19.652
-8.12286
-0.65598
-17.9372
-18.0533
-17.9024
-18.0957
0.72793
4.11868
37.067
-3.0726
-0.621501
596.728
-4.02919
-7.36544
-148.315
-149.594
-148.822
-150.083
596.063
-4.58853
-7.14205
595.342
-5.14651
-6.72568
594.999
-4.60786
-6.21704
594.13
-2.72609
-6.40384
591.927
0.318688
-6.37544
586.96
3.95167
-3.65225
575.061
12.3987
-4.92078
548.204
28.9378
-4.94227
505.896
48.6729
7.7213
57.3752
-1.31897
-293.216
68.9884
-4.59377
-291.745
71.485
-4.40211
-71.8968
78.3896
-3.11581
-71.8194
-72.4794
-72.5303
1.75049
-1.19487
10.1976
-1.22895
-18.0809
-17.8008
-18.0438
-17.8318
0.689476
0.17432
37.4823
0.783845
-0.592148
608.717
73.6188
-6.78938
-151.205
-152.299
-151.884
-153.111
609.207
70.5169
-6.84513
610.07
67.2905
-6.76335
610.814
66.5081
-6.07867
611.298
65.4468
-5.50094
610.762
65.2856
-6.0946
608.497
64.7803
-6.28707
603.644
65.6513
-4.46141
592.436
70.1106
-6.61571
565.711
83.095
0.734649
96.5052
2.90278
-298.135
144.541
-3.51564
-296.259
167.326
-4.71538
-72.0419
181.656
-3.29236
-72.2261
-72.5739
-72.8787
1.58967
-21.0493
31.6507
-1.08399
-18.1313
-17.957
-18.0964
-18.0021
0.69438
-3.97989
38.092
5.45387
-0.589405
620.459
195.307
-9.36313
-153.479
-153.716
-154.451
-155.109
621.698
186.026
-6.64874
623.759
175.393
-2.54076
626.806
165.815
-3.54956
627.399
157.398
-6.47288
627.509
148.96
-6.63917
626.746
140.39
-5.44653
623.141
133.077
-2.74809
616.871
126.906
-2.87255
604.903
128.869
-0.428903
137.859
4.31671
-284.28
216.113
-5.13136
-268.538
264.736
-4.97489
-64.3173
289.676
-4.19898
-50.4353
-65.179
-51.0837
-54.0372
1.46329
-60.234
69.4745
-1.25766
0.623622
8.37912
-7.25479
32.938
-0.851884
0.745371
4.14246
-3.02152
36.3803
-0.636368
0.731992
0.0533869
0.913265
36.8567
-0.623732
0.697676
-4.11248
5.56756
37.7492
-0.592074
-9.3195
-13.7573
2.34441
127.118
136.686
-1.02819
-15.7529
-9.2742
-15.6969
-18.8002
-13.6664
-18.6633
589.286
366.259
3.20667
-140.501
-123.904
-141.916
-126.162
601.711
319.716
3.22059
609.935
292.713
-11.2847
616.696
266.068
-14.309
623.396
246.135
-8.18541
626.078
231.595
0.733446
629.075
217.238
0.891568
631.305
205.123
-2.56046
628.41
192.817
-6.15014
622.316
184.059
-3.50323
185.403
2.29534
-241.961
268.953
-4.9048
-200.683
327.292
-3.25954
-169.315
349.454
-1.96194
-136.555
473.918
-5.50791
-92.7804
-115.557
-93.0809
-116.633
-80.2412
576.224
-7.91509
-141.171
-144.177
-142.514
-145.63
-2.08299
589.802
-7.047
-146.09
-147.469
-147.691
-149.108
76.9576
602.943
-6.44887
-149.338
-150.763
-151.036
-152.484
204.726
614.991
-8.14347
-153.092
-154.45
-154.935
-156.449
345.881
592.105
-0.0386356
-145.832
-132.147
-147.32
-133.482
480.489
504.229
24.756
551.964
425.931
-20.3272
568.892
381.183
-21.2456
576.927
349.206
-3.76521
588.4
320.265
7.76978
601.426
303.812
4.33758
611.927
284.725
-5.08486
622.514
268.038
-6.99536
629.464
253.355
-8.02655
629.089
238.156
-4.02524
230.455
0.977067
-195.439
307.059
-3.95806
-148.615
362.59
-4.23796
-149.175
380.234
-1.22343
-134.033
495.977
-7.60062
-76.5929
576.881
-8.46364
-2.44977
588.534
-7.12782
73.6021
602.569
-6.82513
187.746
613.985
-5.49709
312.53
597.89
2.81887
409.916
555.819
-15.9909
491.532
506.03
-31.1642
530.609
449.337
9.47801
539.147
410.819
18.8225
554.711
382.591
4.35919
577.827
366.655
-10.0852
591.12
345.247
-16.6097
599.375
325.892
-5.51609
609.195
306.06
1.501
615.413
290.808
-2.76081
273.331
-0.266065
-161.623
332.65
-1.59989
-120.707
380.507
0.124206
-131.158
398.814
-0.537271
-124.919
501.27
-3.37719
-73.1966
575.393
-7.68808
-3.28641
586.975
-7.22366
69.261
602.804
-6.79087
175.391
615.081
-2.27638
284.193
605.179
-8.43823
368.283
565.824
-19.6383
433.973
529.55
9.58435
487.49
493.704
36.1188
526.106
461.08
6.67764
546.387
436.295
-15.9595
555.863
415.828
-12.8463
563.518
389.251
-4.96213
572.59
371.999
5.01053
585.391
352.408
2.7061
603.036
342.415
-8.30819
318.002
-4.41024
-137.037
347.959
-3.46907
-110.517
386.681
-2.45129
-115.518
414.086
-2.56266
-112.293
500.559
-0.568408
-68.5125
571.165
-6.06009
-3.05695
586.067
-7.01864
67.533
603.086
-6.07063
164.826
617.6
-4.00916
261.168
612.058
-10.6232
339.806
573.919
-3.25838
399.359
532.947
14.8985
447.003
519.937
6.02696
502.394
508.366
-23.2502
525.628
478.91
-18.1194
527.082
446.825
5.27745
532.114
417.19
14.3716
544.598
408.221
8.51483
563.505
394.935
6.43897
585.938
386.079
0.175835
357.526
1.40998
-118.18
356.943
-3.34417
-90.7256
382.791
-3.26036
-97.5159
419.47
-3.79487
-99.8944
496.178
-0.921472
-62.6966
563.351
-5.47821
-1.41601
584.832
-7.31063
65.7715
603.372
-5.70518
155.822
617.508
-6.6311
242.115
618.261
-5.16576
313.094
585.833
8.29046
371.526
548.619
4.69081
420.374
531.969
-14.5102
467.958
517.906
-18.28
491.394
490
-2.27782
501.103
464.757
15.2577
512.287
440.708
14.9277
530.669
438.156
7.29854
547.685
428.802
8.4338
561.994
416.652
1.92162
390.233
0.573401
-99.9482
366.181
-1.65002
-75.5984
381.723
-0.512418
-78.404
412.838
-0.380553
-83.5245
485.361
-3.07198
-55.2287
553.545
-4.33141
1.32566
582.479
-7.01069
65.0917
602.879
-6.25215
146.915
617.215
-6.83518
227.97
619.871
2.09247
297.559
598.765
6.00242
357.48
571.84
-6.46022
402.853
542.709
-9.99348
436.331
514.096
3.31693
459.726
492.772
13.5757
482.104
481.912
22.4735
504.465
470.748
17.2155
522.901
462.076
3.45384
528.948
446.722
6.03901
538.592
431.951
8.71096
415.05
5.7177
-92.3135
375.29
-0.267253
-67.1697
386.036
1.47425
-60.5107
403.485
2.82969
-62.9554
463.72
-0.632657
-40.7879
537.889
-3.34242
4.84842
577.747
-4.47513
64.2948
600.733
-6.09088
138.287
616.286
-5.85107
213.482
622.028
1.52665
279.712
608.441
-1.67436
337.258
585.343
-12.532
378.803
554.108
-4.83304
407.855
521.114
11.8679
432.474
501.552
12.5944
464.143
499.582
15.8529
492.21
492.329
4.70491
502.492
475.759
-0.0529766
507.305
454.012
12.0588
516.795
441.523
16.133
433.867
10.9476
-86.1271
384.588
-0.985986
-59.8443
393.012
1.00379
-48.5014
401.78
1.36092
-40.7291
438.274
5.77548
-19.8649
507.731
-5.22675
13.1408
566.241
-5.5436
65.019
595.792
-4.25235
130.853
612.527
-3.22895
200.354
623.451
-1.76235
262.803
617.978
-4.2983
319.003
594.029
-2.93794
364.919
566.573
6.57334
402.159
536.964
10.8005
430.87
520.021
8.71919
455.154
515.763
3.70556
473.011
498.504
-0.560417
482.033
481.115
3.20991
489.638
461.04
9.69601
500.201
454.863
10.9572
450.265
10.068
-80.9358
395.301
-1.7724
-60.997
401.919
-0.295569
-42.6292
405.026
0.113221
-24.0849
425.933
1.46581
-3.96519
470.615
2.57867
28.5195
539.468
-3.553
69.2116
584.156
-5.84902
124.543
606.103
-3.14169
187.39
619.68
-5.4872
247.491
623.776
-6.05378
300.24
604.46
3.87382
347.158
581.004
6.45433
390.141
557.795
11.1817
423.351
540.002
9.93871
441.111
521.868
4.73978
450.384
502.311
10.481
459.302
487.17
10.4177
471.059
471.984
5.6723
489.103
468.821
12.5722
461.49
14.4595
-74.6011
408.262
-2.3715
-60.1479
413.614
-1.63028
-41.3285
413.987
-1.30665
-16.8318
425.198
-6.39446
12.4602
454.489
1.34103
47.1856
498.43
9.53007
81.4828
556.58
3.14743
126.749
593.62
0.318942
179.156
613.054
-2.84819
232.583
622.612
-1.97892
285.023
610.41
1.17051
337.573
598.692
-2.59979
380.983
580.668
4.71118
411.353
555.796
4.40904
428.547
532.367
9.95152
439.642
511.441
17.671
453.614
496.571
12.0598
468.405
488.498
11.3385
480.165
479.814
20.2761
470.839
19.9733
-66.9469
-4.15663
-54.7972
-3.66555
-40.3091
-2.1902
-14.0735
-8.92759
18.093
-7.00032
54.9068
-0.431131
94.1637
4.72236
135.028
5.54395
180.866
3.03903
225.391
3.19247
268.225
3.40166
312.979
0.866934
352.262
5.6611
385.008
5.09834
411.568
10.0273
432.133
14.2772
449.928
11.9981
462.427
14.274
472.061
20.6552
21.2313
-160.766
-160.06
2.62492
-129.848
-170.622
5.01702
-124.006
-187.559
8.67431
-105.384
-244.069
4.72326
-56.7237
-306.157
1.26673
4.9549
-302.636
-0.415682
69.2576
-298.866
-1.12034
145.466
-304.446
-0.556933
217.47
-290.285
-0.666342
270.948
-246.784
0.292142
309.478
-198.927
1.80972
335.169
-163.451
4.10286
351.687
-140.009
2.64902
361.312
-121.753
2.0923
369.954
-105.665
2.60418
378.73
-95.5936
3.41209
387.781
-88.3403
2.27466
398.125
-83.0609
1.22035
410.661
-77.1377
0.544964
-70.1515
-1.30729
-170.34
-128.273
5.29134
-153.275
-149.898
8.59898
-182.849
-212.435
16.7405
-142.577
-259.56
4.10658
-67.5355
-304.554
-0.0968886
1.40361
-299.798
-0.890009
72.1525
-297.137
-1.07422
168.459
-301.769
-1.56666
266.139
-273.603
-0.318875
329.658
-204.083
2.76181
365.012
-150.884
2.59651
383.038
-121.606
6.61107
391.754
-108.272
4.04231
390.515
-91.8653
2.58639
388.629
-76.9692
3.53499
391.909
-66.9464
4.77312
397.469
-59.6047
3.46297
405.44
-60.5441
1.90831
416.439
-60.2354
0.829359
-55.8473
-0.881773
-182.502
-120.648
7.67305
-213.703
-177.989
14.1612
-226.788
-226.198
8.12714
-169.487
-66.5013
0.723924
-70.423
-66.8149
-70.4799
-71.4645
-74.0078
0.860183
-74.9875
-74.4129
-75.2947
4.02485
-73.9296
-0.133939
-73.9439
-73.9738
-74.0978
79.0878
-73.47
-0.47838
-73.5695
-73.7407
-73.6845
182.643
-73.496
-0.600815
-73.8662
-73.6676
-73.7929
290.702
-66.7834
0.235279
-52.474
-66.0544
-51.8837
351.938
-171.799
5.70992
385.433
-152.765
2.85566
403.875
-132.47
4.78306
417.278
-114.129
3.05115
424.531
-94.9012
0.984882
420.374
-74.5088
2.56984
410.581
-56.5805
4.28172
408.067
-46.162
2.3654
409.996
-40.8224
1.29751
418.243
-38.4991
0.520907
-38.7521
0.234203
-240.14
-102.384
5.22246
-255.598
-141.538
2.93719
-66.5007
-170.115
-2.06329
-69.6074
-66.7852
-69.5933
-0.30823
-61.6791
-61.5036
0.654555
0.319398
-29.6901
0.348818
50.4295
-18.7475
-19.0058
-18.7247
-19.0527
0.012888
19.356
-8.23769
0.190368
-18.362
-18.5018
-18.3296
-18.5479
0.583959
-1.09259
10.2016
-0.361873
-18.4566
-18.1642
-18.4128
-18.2087
0.255043
-21.2154
31.852
0.0599016
-18.6313
-18.2321
-18.5799
-18.2697
-55.4688
-0.20507
69.4143
-62.6964
0.955586
483.914
-136.648
0.002971
-93.6928
-115.492
-94.4597
-120.101
512.641
-135.501
-3.01753
519.002
-125.637
-0.618828
518.011
-112.315
2.12957
513.097
-99.8077
1.77009
502.08
-84.0986
-1.17146
481.11
-63.6975
-0.280967
456.2
-40.2065
4.92557
438.193
-22.3285
2.88132
435.985
-15.2093
-3.99728
-11.0848
-5.95042
-305.077
-56.7601
0.211335
-304.478
-68.7918
-1.76793
-72.9606
-73.5675
-1.86076
-74.4007
-73.5536
-74.6925
0.63592
-31.1106
-0.895601
50.3472
-18.2005
-17.6498
-18.0834
-17.705
0.181703
5.88097
30.4681
-7.62163
-0.188141
597.852
-80.3113
-4.28688
-144.523
-148.271
-148.503
-151.363
600.813
-77.1673
-5.11823
600.87
-73.5927
-5.68966
597.196
-69.4863
-5.1153
589.381
-64.9513
-4.96638
578.657
-58.1266
-4.51073
564.211
-44.5462
-2.76939
536.534
-23.3599
-5.15676
499.419
-6.04072
-0.857932
474.522
12.1175
1.91255
21.2801
-5.81253
-302.684
4.17539
-0.766161
-299.714
0.67418
-1.74852
-73.4614
3.71002
-1.68381
-73.5558
-73.8996
-73.8483
0.222136
19.6864
-8.16906
-0.0067849
-18.3028
-18.3766
-18.2329
-18.407
0.367034
4.13331
37.4227
-3.08804
-0.308882
613.333
-4.81943
-4.53377
-150.646
-152.124
-153.604
-155.177
613.856
-5.19024
-4.21375
614.061
-5.93808
-4.40032
614.405
-5.80303
-4.4885
614.388
-4.43146
-5.00781
613.23
-1.50945
-5.83299
609.341
2.2313
-3.9264
599.851
8.49455
-3.61283
577.547
23.7869
-5.96691
534.268
45.982
6.42751
57.4855
1.35644
-299.029
67.9592
-2.30684
-297.128
70.7805
-2.21657
-73.4445
78.4476
-1.50826
-73.5536
-73.6599
-73.8324
0.813713
-1.18967
10.2434
-0.507186
-18.4488
-18.1495
-18.4045
-18.1837
0.345094
0.154745
37.9946
0.799052
-0.298837
627.995
73.5845
-4.02581
-154.155
-155.645
-157.244
-158.815
629.663
70.3538
-3.9559
631.216
66.5999
-4.22366
632.372
65.1677
-4.50604
633.401
64.3648
-4.45797
633.765
63.6694
-5.12958
632.551
63.4218
-6.0596
629.201
63.546
-4.35971
620.963
66.668
-5.6714
599.237
77.7278
-0.307259
94.5962
3.69766
-304.459
144.668
-1.55964
-301.737
167.334
-2.57637
-73.4789
181.584
-1.50845
-73.8508
-73.7581
-74.1736
0.736857
-21.1083
31.6243
-0.429807
-18.6663
-18.2469
-18.5827
-18.297
0.300798
-3.96243
38.8133
5.44817
-0.243519
641.234
195.798
-5.70216
-157.24
-157.6
-160.46
-161.091
643.061
186.265
-4.6102
644.979
176.441
-0.805363
647.898
166.217
-1.06716
649.717
157.225
-5.01651
650.25
148.618
-6.48682
650.502
140.216
-6.81741
648.44
133.083
-4.43284
643.909
126.702
-3.40672
635.138
125.807
-1.35418
135.37
3.74262
-291.16
216.959
-1.97864
-275.022
264.747
-0.974736
-66.8408
287.905
-0.464554
-53.0165
-67.2598
-53.3305
-55.1084
1.46812
-62.6036
69.0635
-0.222305
0.491686
5.91202
-7.74414
30.3965
-0.435523
0.360134
4.07875
-2.98471
37.2441
-0.288217
0.339085
0.0360431
0.917342
37.7989
-0.268481
0.302436
-4.0737
5.52387
38.7224
-0.23894
-12.058
-10.7999
0.357326
137.149
133.31
0.379416
-17.028
-11.9351
-17.0872
-17.6045
-10.4681
-17.3199
610.717
363.036
4.16978
-146.964
-131.456
-148.214
-131.967
625.008
316.052
10.1749
634.999
293.447
-3.89056
639.87
268.669
-10.9072
645.103
247.704
-6.29781
649.932
232.618
1.40317
653.314
218.419
2.70126
656.536
206.75
-0.472091
655.393
194.924
-5.79465
651.151
183.35
-4.18403
183.225
1.26316
-248.053
270.83
-1.96649
-205.302
328.805
1.00896
-173.201
350.12
2.47807
-135.137
477.444
-1.92381
-93.2735
-114.963
-93.5402
-116.02
-78.5467
590.42
-3.00892
-143.208
-147.004
-144.876
-148.87
-2.39181
606.96
-3.4501
-149.537
-151.091
-151.533
-153.183
76.3422
621.349
-3.14058
-153.068
-154.518
-155.183
-156.722
203.776
634.49
-4.17415
-156.868
-158.549
-159.003
-160.236
361.323
608.084
1.04874
-146.066
-130.3
-149.205
-134.954
496.654
511.876
27.9991
568.088
421.234
-11.5823
590.919
377.764
-19.5635
601.6
352.865
-2.67288
612.304
325.104
12.3936
624.078
305.466
11.2301
634.494
287.597
-1.23432
643.796
268.957
-5.73666
652.049
254.84
-7.13951
653.955
239.72
-4.14631
230.29
1.48348
-201.309
309.89
-2.07931
-155.155
365.736
-2.43912
-156.546
385.381
0.284214
-136.259
508.636
-2.71186
-75.5349
594.201
-3.91446
-2.52818
607.07
-3.2223
73.6073
622.472
-3.09003
188.877
635.322
-3.11893
320.78
618.916
5.43723
419.241
572.503
-9.38438
491.35
501.475
-31.8208
546.676
448.809
8.32482
561.375
417.725
23.2861
575.905
386.583
11.9489
596.147
369.513
-4.58328
608.676
346.703
-14.9533
619.737
329.279
-6.51872
630.961
308.658
4.84374
639.148
295.531
2.0147
274.934
1.01161
-167.004
335.852
0.222798
-127.307
384.391
1.36915
-138.939
405.122
0.809724
-128.489
516.786
-0.671457
-72.2679
595.082
-3.85965
-3.07927
606.847
-3.43123
69.6721
623.611
-3.17103
177.335
637.061
0.078847
290.43
627.221
-5.26975
376.263
586.169
-18.4943
442.124
543.716
9.52348
496.29
500.419
39.5909
537.078
464.456
20.257
555.884
437.001
-16.8059
565.013
418.654
-15.7522
580.315
395.477
-5.6122
594.115
378.517
6.26559
605.625
357.397
10.2927
621.904
347.097
-4.6216
321.395
-4.97433
-142.858
351.575
-0.499209
-114.556
392.064
0.461703
-122.252
419.652
-0.121806
-115.8
516.639
0.896529
-68.0213
592.551
-2.83297
-3.31147
606.913
-3.46992
67.6419
624.826
-3.22949
167.068
640.089
-0.329
265.308
632.726
-10.4153
348.24
596.089
-4.43489
412.206
554.219
19.1936
457.504
531.719
17.32
514.189
516.903
-20.6308
538.49
486.189
-28.2797
545.342
459.529
1.99414
549.726
428.658
17.6885
561.615
416.27
15.7075
579.048
399.326
6.55943
601.998
390.941
-3.06564
362.303
-0.0799184
-123.751
360.312
-0.68408
-96.8277
389.467
-0.683553
-104.188
427.327
-0.958308
-103.665
512.415
0.786457
-63.5972
585.461
-2.72637
-2.42472
606.76
-3.69257
65.9069
625.988
-3.16326
157.508
640.933
-3.48083
245.327
639.651
-5.98228
320.49
607.876
8.94296
381.396
571.343
7.7127
428.539
545.014
-16.0871
477.392
532.767
-27.2219
512.094
510.564
-6.31439
522.345
484.128
22.6987
529.405
454.561
21.2189
544.409
444.318
4.49074
561.516
434.949
-1.10009
578.607
424.4
-2.1385
396.436
1.0802
-106.1
368.773
0.118562
-80.0822
386.397
0.564855
-83.468
422.927
0.141236
-88.5652
502.758
-0.860671
-57.6739
575.408
-2.5484
0.149963
605.706
-3.95727
64.8347
626.652
-3.68999
148.739
640.383
-4.42301
230.84
644.529
0.783754
303.061
621.534
7.58869
364.866
593.213
-6.15848
411.524