/*--------------------------------*- C++ -*----------------------------------*\
  =========                 |
  \\      /  F ield         | OpenFOAM: The Open Source CFD Toolbox
   \\    /   O peration     | Website:  https://openfoam.org
    \\  /    A nd           | Version:  9
     \\/     M anipulation  |
\*---------------------------------------------------------------------------*/
FoamFile
{
    format      ascii;
    class       volScalarField;
    location    "0.006";
    object      rho;
}
// * * * * * * * * * * * * * * * * * * * * * * * * * * * * * * * * * * * * * //

dimensions      [1 -3 0 0 0 0 0];

internalField   nonuniform List<scalar> 
9720
(
7.96898
7.75451
7.74775
6.47498
5.84549
5.60899
5.40233
4.80865
4.00879
3.3072
2.77502
2.42172
2.27098
2.29584
2.34314
2.41734
2.51839
2.61599
2.70943
2.77754
7.76293
7.51525
7.37911
5.11121
4.94328
5.35143
5.33185
4.59174
3.34293
2.32726
1.791
1.61224
1.67336
1.8066
1.98922
2.14743
2.29653
2.42003
2.5337
2.59788
7.71566
7.49914
4.88335
3.71452
4.58685
5.41521
5.43687
4.53445
2.7951
1.64381
1.33473
1.38138
1.47599
1.65828
1.93476
2.24695
2.48735
2.62167
2.72366
2.73005
6.463
5.07934
3.68607
3.05971
3.82367
5.42655
5.71402
5.044
2.68321
0.893203
0.950532
1.0809
1.25147
1.4442
1.70343
2.06925
2.46495
2.79286
2.94095
2.90959
5.77431
4.81535
4.44366
3.76752
0.692114
1.01606
1.09
1.16122
1.23715
1.33103
1.45965
1.66362
2.03111
2.53335
2.94542
3.04868
5.47974
5.19131
5.26657
5.27268
1.29403
1.30024
1.28781
1.28913
1.29801
1.32143
1.36456
1.45262
1.62856
1.95523
2.45259
2.88404
5.26819
5.17139
5.27279
5.56867
1.38559
1.29664
1.28603
1.27617
1.26608
1.26941
1.28192
1.31337
1.38564
1.54887
1.85862
2.47188
4.68502
4.44352
4.37262
4.89293
1.18669
0.931516
0.978731
1.00594
1.02365
1.04543
1.07351
1.1115
1.16838
1.26548
1.43483
1.9567
3.89708
3.21101
2.64965
2.44627
0.690793
1.25691
1.34567
1.13638
0.176955
0.282745
0.43803
0.574824
0.680929
0.761751
0.82953
0.883955
0.939886
1.01654
1.12272
1.48824
3.21164
2.24007
1.57654
0.871281
0.985972
1.26251
1.25056
0.905525
0.305384
0.131776
0.170417
0.270232
0.395484
0.507317
0.59719
0.678237
0.746965
0.818227
0.900882
1.16674
2.6949
1.73625
1.31545
0.938515
1.05994
1.2444
1.23895
0.954956
0.463754
0.182072
0.122711
0.14265
0.205687
0.296275
0.393219
0.492062
0.581024
0.656909
0.726596
0.933409
2.35164
1.57144
1.36654
1.07579
1.13276
1.24561
1.22785
0.981775
0.595621
0.292208
0.150338
0.130826
0.140277
0.178748
0.252759
0.347136
0.436896
0.517536
0.578433
0.749455
2.21663
1.63595
1.45789
1.24278
1.21291
1.25662
1.22692
1.00044
0.694258
0.420973
0.22547
0.14429
0.144356
0.160791
0.199707
0.260146
0.327246
0.402179
0.466624
0.616682
2.25077
1.77536
1.63132
1.43036
1.30961
1.28308
1.23273
1.02347
0.770072
0.53221
0.322571
0.192295
0.163556
0.171422
0.187487
0.21087
0.252057
0.319304
0.386932
0.520598
2.31088
1.96842
1.90057
1.67522
1.43741
1.32945
1.24979
1.0532
0.834819
0.621533
0.422769
0.275539
0.209428
0.189426
0.191382
0.20241
0.227273
0.278659
0.337864
0.448342
2.39143
2.13566
2.21526
2.02457
1.6333
1.419
1.28705
1.09344
0.888203
0.701384
0.524074
0.376145
0.278023
0.22083
0.204609
0.210196
0.230834
0.266202
0.304533
0.38761
2.4922
2.28151
2.46281
2.41441
1.97917
1.59289
1.36566
1.15353
0.945359
0.768587
0.613259
0.467949
0.350445
0.269859
0.233568
0.234641
0.245376
0.26896
0.293284
0.354543
2.58514
2.40018
2.59881
2.7446
2.46673
1.9141
1.53123
1.25429
1.02499
0.840136
0.688447
0.548623
0.428634
0.341144
0.292579
0.275489
0.273598
0.279729
0.295771
0.353683
2.67275
2.50934
2.69663
2.89312
2.87026
2.39835
1.84026
1.4269
1.13514
0.925096
0.758301
0.609306
0.494739
0.411389
0.357265
0.319992
0.301115
0.30067
0.311272
0.360625
2.72969
2.56339
2.69525
2.86523
2.9857
2.81588
2.43043
1.94144
1.50157
1.19375
0.96577
0.781796
0.649037
0.550627
0.474299
0.410267
0.369294
0.364555
0.368925
0.397387
7.80464
7.58625
7.43347
6.12152
5.52933
5.39181
5.215
4.64484
3.86162
3.17271
2.65008
2.30251
2.14215
2.16855
2.22335
2.29616
2.39483
2.49284
2.59029
2.66379
7.62206
7.38641
6.77507
4.7576
4.72201
5.17976
5.17076
4.45929
3.22655
2.22174
1.70153
1.51344
1.56447
1.68885
1.8684
2.02812
2.17669
2.30278
2.42141
2.49439
7.46674
6.99005
4.39829
3.46247
4.48447
5.28299
5.29806
4.41433
2.688
1.54329
1.24564
1.29149
1.38067
1.546
1.79781
2.09827
2.35052
2.49966
2.61582
2.62931
6.15887
4.75448
3.42693
2.8343
3.89595
5.24606
5.54895
4.90153
2.60601
0.831388
0.879497
0.997576
1.155
1.33346
1.57285
1.91258
2.297
2.62622
2.81564
2.80103
5.48954
4.59403
4.27812
3.54785
0.691273
0.958788
1.01937
1.07686
1.14128
1.22432
1.34082
1.52326
1.84936
2.3285
2.74107
2.9185
5.26276
5.0125
5.13156
5.12652
1.21356
1.2285
1.21094
1.19929
1.2022
1.21751
1.25188
1.32661
1.47608
1.76145
2.22424
2.70108
5.08145
5.01676
5.15042
5.41993
1.3013
1.22448
1.20658
1.1908
1.17309
1.17276
1.17938
1.20385
1.26236
1.39555
1.66248
2.25128
4.51923
4.32828
4.28465
4.77371
1.11354
0.875098
0.915772
0.935633
0.944372
0.959718
0.983123
1.01591
1.06426
1.14478
1.2825
1.74647
3.74985
3.11533
2.58276
2.42991
0.663062
1.17769
1.26015
1.05619
0.160708
0.256469
0.398392
0.522073
0.620586
0.692561
0.751031
0.799082
0.84902
0.917635
1.0083
1.32437
3.07263
2.13849
1.49156
0.818897
0.931509
1.19131
1.17873
0.845608
0.275316
0.113984
0.147339
0.236979
0.351365
0.452415
0.531209
0.60553
0.671763
0.737738
0.809849
1.03759
2.56939
1.63962
1.21144
0.869709
0.992771
1.17081
1.1623
0.888947
0.417828
0.156836
0.105489
0.123685
0.179966
0.259855
0.344801
0.43434
0.51595
0.586488
0.65028
0.832142
2.23261
1.46356
1.2586
0.98559
1.04985
1.16101
1.1479
0.910501
0.538609
0.254166
0.128788
0.108462
0.116295
0.151132
0.216644
0.297206
0.378617
0.457881
0.518067
0.670631
2.09207
1.51944
1.34353
1.13573
1.11352
1.16523
1.13654
0.922474
0.631234
0.370006
0.192846
0.119343
0.118421
0.130534
0.1617
0.214858
0.28174
0.356547
0.416527
0.550323
2.126
1.65401
1.50559
1.30528
1.19491
1.18192
1.13841
0.940292
0.699568
0.471904
0.279771
0.1623
0.133231
0.138193
0.153311
0.179058
0.219294
0.280783
0.340987
0.460464
2.18935
1.84793
1.76194
1.52874
1.30661
1.21647
1.14831
0.964394
0.756456
0.55389
0.370725
0.236557
0.170931
0.155363
0.159586
0.170294
0.192168
0.237158
0.289854
0.395403
2.26596
2.01388
2.06754
1.85902
1.47927
1.28924
1.17595
0.996888
0.804931
0.630569
0.466321
0.325973
0.232814
0.188187
0.172755
0.176594
0.194468
0.225021
0.261415
0.344422
2.36008
2.15236
2.31478
2.24707
1.79281
1.43448
1.23696
1.04597
0.855911
0.697337
0.551028
0.412627
0.305953
0.236571
0.198718
0.198557
0.206868
0.227831
0.255137
0.317802
2.44768
2.26655
2.45958
2.57662
2.26761
1.71984
1.37194
1.12859
0.925953
0.763105
0.621483
0.492839
0.383996
0.302727
0.251335
0.232447
0.232862
0.241602
0.260129
0.315831
2.53451
2.37595
2.56717
2.76074
2.67593
2.17416
1.64093
1.27092
1.01906
0.835234
0.684299
0.551408
0.445184
0.364987
0.308408
0.274334
0.262924
0.265079
0.276085
0.320516
2.59532
2.43736
2.57035
2.74445
2.85378
2.63695
2.21419
1.73563
1.3382
1.06457
0.864795
0.703118
0.58173
0.488604
0.419125
0.364717
0.331921
0.325097
0.327663
0.35136
7.81544
7.65239
7.46243
5.93984
5.34352
5.29426
5.14052
4.57563
3.80374
3.11298
2.59365
2.25091
2.07645
2.10055
2.16123
2.23717
2.3373
2.43665
2.53358
2.60957
7.67781
7.57258
6.24817
4.48152
4.60645
5.1181
5.1016
4.38987
3.18105
2.17777
1.66254
1.47787
1.51922
1.63216
1.80001
1.96202
2.11638
2.24752
2.36644
2.44473
7.42622
6.47482
3.95604
3.27198
4.41476
5.21218
5.22326
4.33745
2.62862
1.50058
1.20161
1.25307
1.3512
1.5022
1.72848
2.0132
2.274
2.44659
2.56783
2.58539
5.91754
4.44049
3.1986
2.65882
3.8452
5.15273
5.45338
4.81049
2.47331
0.79621
0.838909
0.951927
1.11019
1.29036
1.52654
1.85816
2.24276
2.57565
2.78259
2.77181
5.26055
4.43199
4.19643
3.46661
0.615023
0.91894
0.971812
1.02253
1.08443
1.16914
1.28768
1.46108
1.75937
2.22942
2.66948
2.89242
5.14443
4.93982
5.05493
5.04381
1.16215
1.18664
1.16559
1.15499
1.15863
1.17357
1.20437
1.27039
1.39885
1.64662
2.09325
2.64013
5.00121
4.96496
5.09229
5.31616
1.25059
1.18229
1.16123
1.14664
1.13304
1.13359
1.14031
1.16207
1.20917
1.31316
1.54042
2.12745
4.44826
4.28237
4.24942
4.69295
1.0627
0.841211
0.876739
0.898367
0.908775
0.924647
0.949011
0.980987
1.02343
1.0882
1.1974
1.61282
3.69244
3.09976
2.59039
2.4308
0.601451
1.12973
1.20409
1.01313
0.144039
0.243139
0.37641
0.491053
0.586647
0.65985
0.720703
0.77198
0.818109
0.877204
0.952865
1.22578
3.0068
2.1001
1.45886
0.771735
0.891783
1.14945
1.13553
0.805149
0.244279
0.101267
0.132241
0.212629
0.319841
0.423625
0.505423
0.57864
0.648364
0.711369
0.772791
0.964111
2.49594
1.57776
1.13955
0.807249
0.943968
1.12967
1.11772
0.843697
0.37841
0.137645
0.0917737
0.108647
0.162807
0.239989
0.322583
0.410558
0.493487
0.56717
0.621788
0.775174
2.16662
1.40871
1.18916
0.907601
0.992392
1.12019
1.10586
0.868168
0.49475
0.223517
0.113242
0.0913298
0.0970776
0.129936
0.193721
0.274176
0.356911
0.434206
0.490882
0.624762
2.02038
1.45831
1.28424
1.05559
1.04838
1.12403
1.09681
0.88118
0.588457
0.331845
0.17223
0.100358
0.0960288
0.104838
0.134695
0.190474
0.256437
0.329976
0.388881
0.512399
2.05291
1.58496
1.43908
1.22395
1.12573
1.13883
1.09893
0.899108
0.65751
0.433608
0.251744
0.138818
0.107271
0.111254
0.12642
0.152265
0.192809
0.251791
0.311305
0.427363
2.12175
1.77162
1.68087
1.44306
1.23534
1.16775
1.10749
0.923696
0.714938
0.513186
0.336427
0.207886
0.143544
0.128779
0.133425
0.144594
0.165299
0.207471
0.260701
0.365563
2.20208
1.95151
1.98861
1.76799
1.39562
1.22824
1.13022
0.953419
0.764352
0.587629
0.428038
0.293151
0.204872
0.160553
0.146596
0.150413
0.167272
0.198997
0.235803
0.317672
2.30282
2.10419
2.25867
2.17985
1.68047
1.35
1.17719
0.994522
0.810736
0.658514
0.514942
0.380565
0.276112
0.208132
0.171392
0.171098
0.180345
0.202299
0.228705
0.289117
2.39641
2.22857
2.43694
2.53872
2.15731
1.59517
1.28128
1.06058
0.871437
0.722823
0.590408
0.461729
0.353805
0.27183
0.221051
0.206164
0.20749
0.215265
0.233238
0.287552
2.4846
2.33989
2.55345
2.75177
2.62131
2.03969
1.50979
1.17426
0.950789
0.786268
0.64642
0.519161
0.415127
0.334319
0.279563
0.249326
0.236292
0.237721
0.248115
0.293643
2.54568
2.40101
2.55292
2.73891
2.84954
2.58552
2.09062
1.59683
1.23144
0.983142
0.802592
0.655241
0.543334
0.45588
0.390176
0.338509
0.301719
0.295845
0.300188
0.328656
7.85034
7.68034
7.45346
5.78867
5.22818
5.25654
5.1283
4.55647
3.77185
3.07237
2.55823
2.22728
2.05661
2.08207
2.14989
2.23131
2.3345
2.43463
2.5316
2.59749
7.6781
7.71731
5.80191
4.2443
4.53524
5.10224
5.10221
4.37502
3.15474
2.13777
1.61642
1.44519
1.49121
1.61175
1.78628
1.95527
2.11537
2.24892
2.3687
2.43842
7.44839
5.97602
3.6699
3.14042
4.35244
5.17749
5.21398
4.31948
2.60342
1.46497
1.14911
1.20313
1.31301
1.47704
1.70929
2.00187
2.27041
2.45525
2.57991
2.58762
5.72375
4.17826
3.07818
2.5848
3.66103
5.11616
5.42023
4.77912
2.34656
0.760475
0.796456
0.90063
1.0587
1.24083
1.47765
1.82074
2.23184
2.58621
2.79066
2.78081
5.10377
4.37117
4.20627
3.57079
0.627371
0.897496
0.949649
0.994979
1.0473
1.12203
1.23153
1.39429
1.675
2.13734
2.63347
2.8997
5.09267
4.93507
5.04458
4.99365
1.14091
1.16254
1.14419
1.13012
1.13074
1.1401
1.1625
1.21524
1.32716
1.53721
1.95339
2.58546
4.97826
4.95521
5.07937
5.27896
1.22486
1.15761
1.13763
1.12247
1.10839
1.10222
1.10515
1.11904
1.15397
1.23302
1.41651
1.99194
4.42781
4.26702
4.22926
4.66219
1.0396
0.813194
0.84712
0.871383
0.882551
0.894584
0.914629
0.940609
0.974814
1.02651
1.11201
1.47725
3.67675
3.09366
2.56867
2.35518
0.610729
1.11164
1.18209
0.992965
0.132848
0.221826
0.350408
0.462671
0.556517
0.63239
0.693996
0.744818
0.787624
0.835516
0.896379
1.12789
2.98784
2.09204
1.44312
0.749296
0.886681
1.14214
1.12638
0.795007
0.237653
0.091292
0.118929
0.192004
0.293134
0.398146
0.486035
0.558089
0.625722
0.686812
0.741023
0.90336
2.47161
1.55652
1.10795
0.782521
0.939185
1.12418
1.10967
0.832477
0.368052
0.126119
0.0823859
0.0979491
0.14728
0.225027
0.308866
0.392599
0.471855
0.550666
0.604997
0.736591
2.14978
1.38872
1.15749
0.879243
0.984524
1.1129
1.09901
0.859393
0.479149
0.206148
0.10232
0.0793647
0.0864081
0.118615
0.18054
0.257031
0.335902
0.419141
0.477556
0.596679
1.98585
1.43301
1.26172
1.02958
1.0358
1.11499
1.08911
0.873358
0.569064
0.309772
0.158048
0.090022
0.0800435
0.0873587
0.115142
0.170209
0.237737
0.312169
0.374423
0.491893
2.01089
1.55113
1.41847
1.20028
1.10788
1.12709
1.08929
0.887448
0.639293
0.412879
0.237105
0.126445
0.0893704
0.0910935
0.103811
0.12812
0.169897
0.230723
0.292274
0.407813
2.08045
1.72678
1.64377
1.42177
1.21245
1.15134
1.09411
0.908575
0.6963
0.49535
0.319879
0.190868
0.122735
0.106606
0.110678
0.124992
0.147057
0.187301
0.239893
0.3461
2.16092
1.90306
1.9379
1.74423
1.36593
1.20336
1.11069
0.93518
0.745401
0.564885
0.404087
0.270101
0.183098
0.137108
0.126337
0.13287
0.150302
0.17973
0.216564
0.299256
2.26336
2.06248
2.21223
2.14902
1.62413
1.31152
1.14794
0.971203
0.789499
0.633412
0.486955
0.353754
0.25485
0.183963
0.151586
0.153187
0.162732
0.183579
0.208439
0.268375
2.3612
2.19502
2.41079
2.52491
2.06635
1.51216
1.22795
1.02551
0.839185
0.697625
0.56987
0.440643
0.332618
0.248087
0.198791
0.186354
0.187912
0.194715
0.212093
0.267659
2.45566
2.31372
2.54326
2.75474
2.58119
1.91712
1.41037
1.11417
0.904647
0.755975
0.625434
0.499279
0.395701
0.31235
0.256841
0.228997
0.215007
0.215602
0.226578
0.274859
2.51898
2.38162
2.54566
2.74927
2.86945
2.55244
1.97825
1.48368
1.14686
0.925869
0.760539
0.620501
0.516692
0.432283
0.368108
0.318802
0.279856
0.274287
0.279669
0.312783
7.89473
7.7188
7.46067
5.70269
5.16911
5.23788
5.119
4.54716
3.75031
3.04029
2.52855
2.21706
2.04573
2.07111
2.14551
2.23611
2.34418
2.44474
2.54124
2.60757
7.69808
7.82867
5.58329
4.13166
4.54863
5.12121
5.1228
4.38847
3.14642
2.11243
1.57624
1.42538
1.47482
1.60003
1.78368
1.96432
2.12977
2.26502
2.38353
2.45155
7.47409
5.73632
3.55771
3.09715
4.41497
5.20244
5.23219
4.33921
2.59013
1.43866
1.10838
1.16516
1.28151
1.45612
1.69743
2.00259
2.28095
2.47815
2.60361
2.6033
5.63318
4.05873
3.02671
2.54155
3.69595
5.11685
5.43124
4.80332
2.37276
0.742171
0.776295
0.875765
1.03152
1.2114
1.44711
1.79671
2.2242
2.60794
2.82202
2.80851
5.0532
4.35724
4.19493
3.53214
0.623491
0.878553
0.934714
0.981947
1.03271
1.10392
1.20837
1.36564
1.63505
2.09314
2.62328
2.92616
5.07975
4.93917
5.05006
5.00577
1.11348
1.1321
1.119
1.11052
1.11186
1.12187
1.14288
1.19057
1.29618
1.48703
1.87192
2.55166
4.9813
4.96707
5.09232
5.28371
1.1878
1.12503
1.11199
1.10217
1.09277
1.08806
1.09046
1.10183
1.13264
1.20079
1.3579
1.90912
4.42592
4.27201
4.23592
4.67206
1.01176
0.78614
0.82395
0.851587
0.867851
0.880964
0.899995
0.92336
0.95531
1.0029
1.07726
1.40506
3.66867
3.08432
2.54707
2.32586
0.580301
1.12285
1.18801
0.9874
0.127512
0.20977
0.335094
0.447928
0.541315
0.618317
0.680404
0.731457
0.775451
0.820352
0.87444
1.07858
2.98036
2.08328
1.43106
0.744714
0.893614
1.14722
1.12699
0.788722
0.233813
0.0874803
0.11296
0.180226
0.278675
0.385942
0.47614
0.548958
0.615474
0.675883
0.727847
0.87383
2.4686
1.55458
1.10281
0.780346
0.948347
1.13036
1.11185
0.826647
0.362976
0.122199
0.0770685
0.092868
0.142967
0.219557
0.303117
0.381196
0.458904
0.543005
0.598604
0.718841
2.14833
1.3874
1.15303
0.877747
0.99348
1.11795
1.10079
0.856304
0.473526
0.197986
0.0979554
0.077855
0.0858825
0.115919
0.172938
0.247486
0.327372
0.41327
0.473705
0.586476
1.97257
1.42903
1.26187
1.02813
1.04253
1.11901
1.0914
0.874024
0.562064
0.299673
0.15411
0.0892415
0.0723999
0.0779458
0.10615
0.164879
0.234127
0.308483
0.371395
0.484741
1.99408
1.54348
1.42014
1.19885
1.1096
1.12849
1.09155
0.889107
0.63467
0.405374
0.233739
0.124168
0.0798843
0.0811584
0.0944811
0.119865
0.162696
0.223568
0.285255
0.400046
2.06083
1.71043
1.63632
1.42161
1.20798
1.14884
1.09548
0.909891
0.695386
0.492521
0.317997
0.183985
0.112782
0.0969364
0.10105
0.116184
0.139218
0.178944
0.23297
0.340415
2.13958
1.87801
1.91535
1.74481
1.35582
1.19487
1.10848
0.934542
0.746051
0.564374
0.396557
0.261291
0.176088
0.127409
0.117519
0.125212
0.143162
0.174399
0.21325
0.296242
2.23909
2.03933
2.18691
2.14153
1.60616
1.29717
1.13972
0.966665
0.789012
0.630867
0.477392
0.345078
0.249563
0.174513
0.142666
0.145264
0.156202
0.178715
0.202378
0.260053
2.3359
2.17369
2.3903
2.51402
2.02657
1.47799
1.20731
1.01358
0.834198
0.693334
0.565402
0.434645
0.327147
0.238085
0.187192
0.179359
0.181661
0.188058
0.203996
0.257828
2.43016
2.29293
2.52814
2.74244
2.54185
1.84549
1.36183
1.08742
0.890284
0.747725
0.621783
0.495733
0.391268
0.302401
0.246838
0.224254
0.20762
0.206405
0.216085
0.266735
2.49324
2.35925
2.53196
2.7417
2.86287
2.51099
1.90112
1.41689
1.10132
0.899319
0.744013
0.609079
0.50648
0.421843
0.361398
0.314665
0.269993
0.262939
0.270582
0.311797
7.89528
7.70989
7.44522
5.688
5.16075
5.2342
5.11481
4.54463
3.74962
3.03662
2.51996
2.21147
2.04549
2.07287
2.1503
2.24289
2.35482
2.45845
2.55637
2.61969
7.71013
7.83718
5.5518
4.11143
4.56636
5.12963
5.12531
4.3884
3.14748
2.11157
1.57134
1.42111
1.47159
1.59815
1.78397
1.96905
2.13999
2.27866
2.39793
2.46253
7.49462
5.72226
3.53391
3.08591
4.45451
5.20812
5.22765
4.33803
2.58771
1.44029
1.10732
1.16452
1.28347
1.4557
1.6941
2.00328
2.29034
2.49406
2.61817
2.61542
5.62655
4.03407
3.01053
2.51698
3.84037
5.13654
5.4332
4.81787
2.36135
0.741363
0.77719
0.876886
1.03096
1.20963
1.44184
1.79052
2.23017
2.62192
2.83218
2.81728
5.04862
4.33692
4.16369
3.423
0.574746
0.872581
0.929981
0.978104
1.02904
1.09942
1.20196
1.35708
1.62493
2.08397
2.62195
2.92797
5.07797
4.93253
5.04558
5.01582
1.09007
1.12628
1.11284
1.10484
1.10663
1.11699
1.1376
1.18406
1.28822
1.47701
1.861
2.5479
4.98103
4.96427
5.09565
5.29488
1.15872
1.11712
1.10453
1.09582
1.0878
1.08436
1.08694
1.09758
1.12688
1.19247
1.34733
1.89716
4.42059
4.27013
4.24148
4.68015
0.984233
0.783475
0.819533
0.846707
0.863235
0.877589
0.897214
0.91976
0.950522
0.997077
1.0704
1.39581
3.66535
3.08581
2.55605
2.38487
0.551514
1.11858
1.18206
0.984785
0.124812
0.214445
0.339295
0.449218
0.53962
0.616168
0.678472
0.729408
0.771772
0.815006
0.868467
1.07175
2.97956
2.08348
1.43309
0.737103
0.882289
1.14152
1.12584
0.788142
0.228703
0.0878402
0.114006
0.181079
0.27856
0.3834
0.473545
0.54576
0.610395
0.669882
0.722237
0.869317
2.46992
1.55449
1.10473
0.774033
0.939484
1.12656
1.112
0.826669
0.357883
0.120763
0.076779
0.0926317
0.141425
0.21677
0.300122
0.378035
0.454911
0.536382
0.591693
0.713676
2.1503
1.39039
1.1545
0.87348
0.987609
1.11677
1.10225
0.854886
0.468844
0.195823
0.097293
0.0763657
0.0840108
0.113878
0.171421
0.245737
0.323774
0.407314
0.46761
0.580621
1.9759
1.43263
1.26343
1.02578
1.0382
1.11844
1.09397
0.872124
0.559481
0.297276
0.152299
0.0875755
0.0720597
0.0781538
0.10572
0.162127
0.230202
0.304111
0.366759
0.480055
1.99739
1.54814
1.42362
1.19889
1.1078
1.12901
1.09434
0.888993
0.633909
0.402354
0.231566
0.122641
0.0800239
0.0811672
0.0929258
0.117534
0.159852
0.220459
0.28257
0.395803
2.06377
1.71657
1.6434
1.42583
1.21008
1.15035
1.09849
0.911358
0.69304
0.489783
0.315321
0.183522
0.112336
0.0953387
0.0993461
0.114546
0.137682
0.177829
0.231185
0.337024
2.14173
1.88347
1.92581
1.75538
1.36098
1.19795
1.11187
0.936222
0.743017
0.561274
0.395663
0.260634
0.173701
0.124755
0.115957
0.123713
0.142115
0.172596
0.211197
0.294231
2.23836
2.04237
2.19428
2.156
1.61662
1.30215
1.14293
0.967529
0.787075
0.629481
0.476593
0.342687
0.246808
0.172047
0.141603
0.144234
0.154921
0.176624
0.20065
0.258517
2.33235
2.17288
2.39129
2.52266
2.04275
1.48572
1.21158
1.01463
0.833761
0.692702
0.562494
0.432675
0.325757
0.236841
0.186063
0.177318
0.179571
0.186434
0.20244
0.256566
2.42439
2.28755
2.52151
2.73935
2.54328
1.84765
1.36623
1.08863
0.891083
0.746963
0.619864
0.494968
0.390649
0.301904
0.244797
0.221673
0.205609
0.204877
0.214837
0.265706
2.48696
2.35264
2.5232
2.73401
2.85952
2.49886
1.89294
1.41032
1.09955
0.896361
0.743281
0.609344
0.506798
0.42105
0.35924
0.31315
0.269033
0.262612
0.270347
0.311646
7.85168
7.66571
7.42363
5.75479
5.20982
5.25068
5.12118
4.55181
3.76049
3.05695
2.5454
2.22408
2.05848
2.08521
2.15524
2.23868
2.34693
2.45223
2.55497
2.62185
7.69828
7.73947
5.74137
4.20922
4.576
5.1213
5.10538
4.37588
3.14429
2.11976
1.59558
1.43721
1.48592
1.61058
1.78786
1.95895
2.12386
2.2631
2.38753
2.45928
7.48243
5.95828
3.63744
3.11928
4.44424
5.18932
5.20831
4.32214
2.58604
1.44746
1.13138
1.18928
1.30514
1.47086
1.70281
1.99761
2.27171
2.46786
2.59702
2.60294
5.72353
4.14715
3.04826
2.5275
3.83637
5.10939
5.39843
4.79721
2.35254
0.749665
0.787788
0.894024
1.05229
1.23367
1.46889
1.81218
2.2291
2.59709
2.80425
2.7933
5.09145
4.33018
4.14807
3.41469
0.584
0.882597
0.936203
0.982088
1.03495
1.10891
1.21524
1.37557
1.65203
2.11687
2.63222
2.90531
5.07816
4.91343
5.03365
5.0023
1.11366
1.14318
1.12346
1.10888
1.10968
1.11937
1.14174
1.19328
1.30252
1.50707
1.92587
2.57712
4.96889
4.94258
5.08307
5.29189
1.18875
1.1362
1.11606
1.10179
1.08917
1.08571
1.08879
1.1017
1.13434
1.20872
1.3865
1.96321
4.41062
4.25373
4.22465
4.67585
1.0035
0.800064
0.832629
0.857417
0.870509
0.882335
0.901227
0.926058
0.959915
1.01135
1.09482
1.45446
3.6576
3.06835
2.53865
2.31784
0.572266
1.10822
1.1798
0.990685
0.126012
0.224182
0.351923
0.460935
0.551178
0.624956
0.685013
0.734403
0.776128
0.823061
0.882785
1.11066
2.9809
2.07805
1.42805
0.748532
0.880808
1.13894
1.12635
0.789218
0.225897
0.0899993
0.118809
0.191587
0.291102
0.395033
0.480858
0.54904
0.615099
0.675774
0.729052
0.888893
2.47536
1.55887
1.1145
0.78568
0.934783
1.12062
1.10965
0.826805
0.355419
0.122165
0.0812851
0.0972064
0.146846
0.222628
0.303429
0.386263
0.465046
0.543061
0.59577
0.723935
2.15586
1.39311
1.16442
0.885843
0.980445
1.10733
1.09769
0.855167
0.466799
0.199044
0.099962
0.0785805
0.0855884
0.116345
0.177303
0.253588
0.331886
0.414611
0.470033
0.585838
1.99254
1.44013
1.26871
1.03599
1.03153
1.10873
1.08633
0.86934
0.558502
0.301202
0.153948
0.0883699
0.0787374
0.086169
0.11388
0.168448
0.236086
0.308627
0.36896
0.48465
2.01894
1.5609
1.42816
1.20844
1.10358
1.11953
1.08596
0.882997
0.631505
0.405186
0.232372
0.12356
0.0878165
0.0897585
0.102451
0.127412
0.168321
0.228189
0.289159
0.403057
2.08799
1.73922
1.65765
1.43593
1.20889
1.14242
1.08983
0.903619
0.691839
0.490637
0.315382
0.187823
0.120372
0.104489
0.109034
0.122901
0.145135
0.185956
0.237854
0.342745
2.16779
1.91233
1.95493
1.77005
1.36459
1.19476
1.10478
0.929184
0.742431
0.561489
0.400853
0.267452
0.179993
0.134237
0.124063
0.130649
0.148522
0.177959
0.214618
0.29684
2.26523
2.07008
2.22476
2.17853
1.63339
1.30524
1.14023
0.963468
0.785868
0.63089
0.484606
0.351285
0.252389
0.180403
0.148899
0.150736
0.160527
0.181664
0.206283
0.265276
2.35653
2.19633
2.41247
2.54259
2.08178
1.5079
1.21905
1.01616
0.834754
0.694813
0.567691
0.439232
0.330249
0.245909
0.195879
0.183276
0.185483
0.192985
0.209646
0.264744
2.44519
2.30711
2.5304
2.73779
2.57973
1.91307
1.40055
1.10338
0.898057
0.751587
0.62375
0.498399
0.395262
0.311945
0.254151
0.22658
0.212962
0.21355
0.22454
0.273027
2.50307
2.36702
2.53013
2.72583
2.85016
2.53871
1.96296
1.46862
1.13581
0.919913
0.75849
0.620387
0.517899
0.433192
0.367987
0.318889
0.279467
0.274388
0.280018
0.31335
7.80662
7.61416
7.42419
5.91568
5.33652
5.30486
5.14845
4.58052
3.79235
3.09858
2.58695
2.25635
2.09082
2.11623
2.17592
2.25172
2.3526
2.45329
2.5507
2.62681
7.69328
7.56886
6.15846
4.46668
4.63313
5.143
5.11833
4.40022
3.16904
2.15471
1.63939
1.47143
1.52125
1.64183
1.81204
1.97354
2.12801
2.25927
2.37762
2.45686
7.44924
6.47587
3.92467
3.26676
4.45582
5.22105
5.23838
4.35029
2.62135
1.4795
1.17845
1.23482
1.34128
1.50085
1.73412
2.01946
2.2786
2.4514
2.57291
2.59195
5.89196
4.39626
3.18088
2.60491
3.85262
5.11789
5.41816
4.80324
2.38718
0.777984
0.82177
0.938356
1.09838
1.27962
1.51758
1.8565
2.2494
2.58243
2.78483
2.77304
5.2288
4.38966
4.16122
3.43753
0.612145
0.892713
0.948052
0.999953
1.06266
1.14722
1.26387
1.43733
1.74049
2.2192
2.66412
2.88922
5.11638
4.91064
5.04184
5.01432
1.11136
1.1534
1.13551
1.12617
1.12995
1.14498
1.1759
1.24205
1.37049
1.62012
2.0735
2.62967
4.98281
4.94374
5.08521
5.29357
1.19739
1.15149
1.13394
1.12101
1.10925
1.10993
1.1161
1.13637
1.18168
1.28317
1.51113
2.10479
4.42623
4.26087
4.23313
4.67196
1.01382
0.81446
0.853362
0.87809
0.889437
0.905007
0.928847
0.960064
1.00227
1.06677
1.17591
1.592
3.67202
3.07121
2.55438
2.4014
0.564966
1.1173
1.19168
0.998892
0.138901
0.23475
0.3649
0.478056
0.573439
0.647876
0.709385
0.759622
0.804643
0.863277
0.938833
1.21172
2.99767
2.08645
1.44192
0.763204
0.891632
1.15703
1.14588
0.811135
0.243689
0.0985958
0.127871
0.206248
0.31368
0.418152
0.498525
0.569813
0.639272
0.702965
0.764798
0.955558
2.4946
1.57465
1.13687
0.80422
0.948231
1.13712
1.12894
0.849735
0.376738
0.132936
0.0893217
0.106618
0.161079
0.236843
0.317184
0.40415
0.488665
0.562996
0.617527
0.769658
2.16854
1.4086
1.18708
0.911949
0.999858
1.12681
1.11678
0.875332
0.491452
0.216758
0.110095
0.0898663
0.095743
0.12779
0.19109
0.271337
0.354136
0.430861
0.486683
0.620578
2.02495
1.46076
1.2847
1.06536
1.05765
1.13042
1.1069
0.887676
0.585894
0.326305
0.168464
0.0981678
0.0939426
0.103208
0.134026
0.189966
0.254937
0.327304
0.386379
0.511363
2.05888
1.59163
1.44809
1.2377
1.13632
1.14501
1.10869
0.904405
0.657729
0.431395
0.248415
0.135117
0.104997
0.10963
0.125561
0.151425
0.191338
0.250474
0.310723
0.427638
2.12792
1.78392
1.69763
1.46337
1.24679
1.17381
1.11641
0.928449
0.717673
0.513335
0.333391
0.204646
0.141652
0.1275
0.132358
0.143457
0.16428
0.207545
0.261735
0.366055
2.20905
1.96203
2.01176
1.80223
1.40909
1.23531
1.1381
0.958813
0.76779
0.587111
0.426245
0.291773
0.204262
0.15895
0.145259
0.149233
0.166681
0.199609
0.236621
0.317237
2.30902
2.11406
2.27829
2.2194
1.70054
1.35882
1.18339
1.00047
0.813831
0.658951
0.51561
0.380774
0.275847
0.206252
0.16996
0.170281
0.180556
0.202992
0.228233
0.287416
2.40111
2.23619
2.45149
2.5742
2.17774
1.60158
1.28509
1.06606
0.873989
0.724835
0.593074
0.462595
0.354001
0.271472
0.22063
0.206901
0.207895
0.214888
0.232399
0.286304
2.48905
2.34478
2.5562
2.75868
2.63785
2.04479
1.51168
1.17821
0.952715
0.788645
0.649065
0.520366
0.416803
0.336227
0.281029
0.250924
0.236282
0.23728
0.247536
0.293149
2.54543
2.40208
2.55379
2.73966
2.85589
2.59329
2.09315
1.59705
1.23212
0.985589
0.804665
0.657285
0.546826
0.460038
0.393862
0.341718
0.303583
0.297485
0.301811
0.330149
7.79203
7.55468
7.4385
6.1413
5.55335
5.42603
5.23977
4.66877
3.87781
3.18159
2.66044
2.31328
2.15606
2.18155
2.23211
2.30006
2.39317
2.48878
2.58587
2.66528
7.62481
7.37307
6.65244
4.79719
4.77408
5.22431
5.19991
4.48459
3.24392
2.22543
1.70487
1.51977
1.57415
1.70017
1.87392
2.02345
2.1665
2.28943
2.40714
2.48654
7.41855
7.01577
4.37624
3.50461
4.53453
5.31806
5.32936
4.44014
2.704
1.54277
1.24659
1.29705
1.38976
1.55318
1.8001
2.08858
2.32878
2.47292
2.58858
2.61168
6.08979
4.68074
3.37089
2.72626
3.90496
5.1991
5.51493
4.87365
2.54178
0.826124
0.874687
0.995678
1.15225
1.33333
1.57897
1.92319
2.30226
2.6166
2.79349
2.77929
5.43032
4.53094
4.23257
3.46531
0.625999
0.9351
0.993015
1.04881
1.11429
1.20052
1.32233
1.51425
1.85407
2.33294
2.72364
2.89657
5.21359
4.96344
5.09852
5.05933
1.14014
1.20119
1.18346
1.17136
1.17451
1.18995
1.22544
1.30367
1.45796
1.75561
2.22109
2.68599
5.04659
4.98155
5.12707
5.33773
1.23039
1.1993
1.18123
1.16524
1.14822
1.14782
1.15443
1.17942
1.24006
1.37784
1.65453
2.24345
4.48593
4.30187
4.26908
4.71464
1.04489
0.857667
0.897243
0.916841
0.926146
0.942374
0.966251
0.999394
1.04862
1.13113
1.27382
1.74379
3.72019
3.0956
2.57953
2.38358
0.616403
1.14745
1.23101
1.03678
0.149765
0.255814
0.394406
0.514969
0.611251
0.683013
0.741883
0.789894
0.840182
0.910061
1.0033
1.32537
3.04809
2.11768
1.47567
0.80548
0.932568
1.20584
1.19606
0.855478
0.270192
0.112105
0.145404
0.233908
0.347214
0.447991
0.526952
0.601524
0.66823
0.735509
0.809253
1.04038
2.54905
1.61726
1.1975
0.856559
0.995191
1.18417
1.17873
0.89939
0.413627
0.153002
0.103835
0.122374
0.178875
0.258265
0.343154
0.433557
0.517022
0.587864
0.651591
0.834114
2.22144
1.45122
1.24547
0.975542
1.0536
1.1712
1.16358
0.921161
0.536376
0.249155
0.126743
0.107248
0.115095
0.150457
0.21721
0.299528
0.381674
0.459475
0.518812
0.672476
2.09175
1.51153
1.33296
1.13275
1.11787
1.1743
1.14956
0.930818
0.631363
0.36695
0.190107
0.11722
0.11681
0.129803
0.16299
0.217174
0.283859
0.358237
0.418055
0.55347
2.13067
1.65552
1.50333
1.30876
1.20077
1.18965
1.15041
0.946495
0.701613
0.470768
0.275952
0.159068
0.131921
0.137777
0.153327
0.17927
0.219933
0.28209
0.343049
0.463717
2.20016
1.86393
1.77492
1.53701
1.31411
1.22321
1.15871
0.969424
0.758473
0.551688
0.366358
0.233544
0.170338
0.15512
0.159477
0.170307
0.192594
0.238858
0.292608
0.398356
2.2847
2.04229
2.10117
1.88024
1.4874
1.29529
1.18474
1.0013
0.805097
0.626553
0.462155
0.324017
0.232361
0.187558
0.17254
0.176669
0.195234
0.226866
0.263856
0.346278
2.38483
2.18704
2.35728
2.29139
1.80511
1.44009
1.24269
1.04938
0.854151
0.693455
0.548317
0.411328
0.305508
0.236198
0.198989
0.199264
0.208308
0.229438
0.256023
0.317289
2.47459
2.30302
2.51287
2.63594
2.29186
1.72196
1.37324
1.1303
0.923173
0.760472
0.620961
0.492665
0.384583
0.303284
0.252874
0.234412
0.234312
0.242125
0.26033
0.315959
2.56203
2.41124
2.60804
2.8027
2.71473
2.1825
1.63931
1.26962
1.01569
0.833612
0.684484
0.552801
0.447576
0.367608
0.311643
0.277169
0.26346
0.265037
0.275886
0.320668
2.61284
2.46181
2.60129
2.77658
2.88807
2.66245
2.22141
1.73275
1.33431
1.06349
0.865567
0.706174
0.586485
0.493754
0.423987
0.36792
0.332587
0.325957
0.328568
0.352479
7.95941
7.72343
7.73743
6.47925
5.86271
5.65185
5.44021
4.84968
4.0407
3.32588
2.78817
2.42871
2.27681
2.29977
2.34309
2.41293
2.50908
2.6044
2.69608
2.77093
7.768
7.50366
7.21656
5.14164
4.99919
5.40762
5.37206
4.63204
3.37508
2.34279
1.80612
1.62105
1.68113
1.80954
1.98384
2.13521
2.2798
2.40137
2.51269
2.58308
7.66347
7.54657
4.86077
3.76437
4.6684
5.46857
5.4752
4.56886
2.82218
1.65547
1.34966
1.40192
1.49745
1.66774
1.92762
2.22711
2.45997
2.58898
2.69315
2.70844
6.40172
5.00627
3.604