/*--------------------------------*- C++ -*----------------------------------*\
  =========                 |
  \\      /  F ield         | OpenFOAM: The Open Source CFD Toolbox
   \\    /   O peration     | Website:  https://openfoam.org
    \\  /    A nd           | Version:  9
     \\/     M anipulation  |
\*---------------------------------------------------------------------------*/
FoamFile
{
    format      ascii;
    class       volScalarField;
    location    "0.006";
    object      rho.C4;
}
// * * * * * * * * * * * * * * * * * * * * * * * * * * * * * * * * * * * * * //

dimensions      [1 -3 0 0 0 0 0];

internalField   nonuniform List<scalar> 
9720
(
7.96964
7.75496
7.74814
6.47527
5.84575
5.60923
5.40255
4.80885
4.00895
3.30733
2.77514
2.42183
2.27108
2.29594
2.34326
2.41748
2.51855
2.61619
2.70968
2.77792
7.76338
7.51559
7.37942
5.11142
4.94349
5.35165
5.33206
4.59192
3.34306
2.32735
1.79107
1.61231
1.67343
1.80668
1.98931
2.14754
2.29666
2.42019
2.53389
2.59815
7.71606
7.49946
4.88357
3.71469
4.58707
5.41547
5.43712
4.53465
2.79521
1.64389
1.33483
1.3815
1.47612
1.65842
1.93491
2.24711
2.48752
2.62185
2.72385
2.73031
6.46329
5.07955
3.68624
3.05995
3.82399
5.42701
5.71447
5.04439
2.68342
0.893387
0.95078
1.08121
1.25181
1.44458
1.70384
2.06968
2.46537
2.79325
2.94131
2.90995
5.77455
4.81554
4.44386
3.76782
0.692336
1.01664
1.09062
1.16188
1.23784
1.33175
1.46041
1.66442
2.03198
2.53428
2.94632
3.04944
5.47995
5.1915
5.2668
5.27308
1.29482
1.3013
1.28887
1.2902
1.29908
1.32253
1.36569
1.45379
1.62982
1.95664
2.45417
2.88556
5.26839
5.17157
5.27301
5.56907
1.38681
1.29811
1.2875
1.27764
1.26753
1.27087
1.2834
1.31488
1.38721
1.55059
1.8606
2.4742
4.68519
4.44368
4.37279
4.89327
1.1881
0.932909
0.980194
1.00744
1.02517
1.04699
1.07511
1.11317
1.17014
1.26738
1.43697
1.95946
3.89721
3.21111
2.64974
2.44644
0.690954
1.25742
1.34645
1.13727
0.177199
0.283218
0.438795
0.575864
0.682179
0.763152
0.831057
0.885589
0.941637
1.01846
1.12488
1.49108
3.21175
2.24014
1.57661
0.871418
0.986364
1.26322
1.25155
0.906444
0.3058
0.131991
0.17073
0.27077
0.396309
0.508397
0.59848
0.679723
0.748634
0.8201
0.903
1.16956
2.69499
1.7363
1.31553
0.938701
1.06037
1.24512
1.23994
0.955933
0.464362
0.182364
0.122938
0.142942
0.206141
0.296967
0.394177
0.493307
0.582544
0.658688
0.728627
0.936148
2.35172
1.5715
1.36664
1.07602
1.13323
1.24635
1.22886
0.982791
0.596398
0.292673
0.150617
0.131099
0.140599
0.179194
0.253437
0.348127
0.438208
0.519157
0.580313
0.752059
2.21672
1.63601
1.45799
1.24304
1.2134
1.25738
1.22794
1.00149
0.695166
0.421643
0.225891
0.144599
0.144703
0.161219
0.200291
0.260971
0.328351
0.403611
0.46836
0.619183
2.25085
1.77542
1.63143
1.43064
1.31013
1.28387
1.23377
1.02456
0.771086
0.533058
0.323181
0.192719
0.163969
0.171911
0.188082
0.211604
0.253003
0.320585
0.388575
0.523061
2.31097
1.96849
1.90069
1.67552
1.43798
1.33026
1.25085
1.05434
0.835928
0.62253
0.423582
0.276168
0.209986
0.190005
0.192038
0.203179
0.228217
0.279923
0.339515
0.450827
2.39155
2.13575
2.21538
2.02489
1.6339
1.41986
1.28815
1.09464
0.8894
0.702525
0.525104
0.377031
0.278798
0.221545
0.205362
0.211067
0.231905
0.267585
0.306266
0.390137
2.49234
2.28162
2.46294
2.41473
1.97982
1.59383
1.36682
1.15482
0.946658
0.769868
0.614496
0.469083
0.351454
0.270769
0.234483
0.235704
0.246655
0.270571
0.295233
0.357258
2.58531
2.40031
2.59895
2.7449
2.46743
1.91515
1.53252
1.2557
1.02644
0.841581
0.689879
0.549992
0.429905
0.342344
0.2938
0.276858
0.275207
0.281655
0.298049
0.35686
2.67297
2.5095
2.69679
2.89341
2.87095
2.39954
1.84175
1.42851
1.13679
0.926742
0.75993
0.610874
0.496255
0.412896
0.358841
0.321701
0.303047
0.302953
0.313948
0.36433
2.73002
2.56362
2.69546
2.86552
2.9863
2.81705
2.4322
1.94355
1.50376
1.19596
0.967972
0.783953
0.651192
0.552839
0.476614
0.412701
0.371939
0.367687
0.372609
0.402441
7.80507
7.58651
7.43368
6.12166
5.52945
5.39192
5.21511
4.64494
3.86169
3.17277
2.65014
2.30256
2.1422
2.16861
2.22342
2.29624
2.39494
2.49297
2.59045
2.66405
7.62233
7.38657
6.77518
4.75766
4.72207
5.17982
5.17083
4.45935
3.22659
2.22177
1.70156
1.51347
1.56451
1.6889
1.86845
2.02819
2.17677
2.30289
2.42154
2.49457
7.46696
6.99017
4.39834
3.46249
4.4845
5.28303
5.2981
4.41436
2.68802
1.54334
1.24572
1.2916
1.3808
1.54614
1.79796
2.09841
2.35066
2.4998
2.61596
2.62949
6.15902
4.75455
3.42696
2.8343
3.89596
5.24607
5.54896
4.90154
2.60603
0.831589
0.879775
0.997923
1.15539
1.33389
1.57332
1.91307
2.29748
2.62665
2.81601
2.80136
5.48965
4.59409
4.27815
3.54786
0.691566
0.95948
1.0201
1.07763
1.14209
1.22516
1.34171
1.5242
1.85038
2.3296
2.74212
2.91935
5.26286
5.01256
5.13159
5.12653
1.21458
1.22976
1.21218
1.20053
1.20345
1.21877
1.25317
1.32796
1.47753
1.76307
2.22606
2.70285
5.08154
5.01682
5.15045
5.41994
1.30285
1.22622
1.20829
1.19248
1.17476
1.17443
1.18107
1.20556
1.26414
1.39749
1.66469
2.25391
4.51931
4.32832
4.28467
4.77372
1.11532
0.876707
0.917446
0.937328
0.946082
0.961462
0.984919
1.01777
1.06621
1.14689
1.28484
1.74951
3.74991
3.11536
2.58278
2.42993
0.663304
1.17847
1.26134
1.05754
0.161018
0.257017
0.399248
0.523218
0.621969
0.694104
0.7527
0.80086
0.850925
0.91973
1.01065
1.32743
3.07268
2.13852
1.4916
0.819078
0.932088
1.19235
1.18017
0.846932
0.275863
0.114235
0.147697
0.237582
0.352261
0.45357
0.532575
0.607113
0.673561
0.739766
0.812133
1.04059
2.56944
1.63964
1.21151
0.869957
0.993385
1.17184
1.1637
0.89031
0.418627
0.15719
0.105756
0.124011
0.180453
0.260585
0.34581
0.435664
0.517571
0.588379
0.652435
0.835029
2.23265
1.46359
1.2587
0.985887
1.05049
1.16202
1.14926
0.911873
0.539623
0.254742
0.129112
0.108752
0.116627
0.151598
0.217358
0.298236
0.379975
0.459577
0.520052
0.67337
2.09211
1.51947
1.34364
1.13607
1.11419
1.16624
1.13788
0.923859
0.632415
0.370834
0.19333
0.119674
0.118787
0.130979
0.162288
0.215681
0.282868
0.358036
0.41834
0.552923
2.12605
1.65404
1.50571
1.30565
1.1956
1.18294
1.13975
0.941705
0.700862
0.472935
0.280478
0.162775
0.133677
0.138703
0.153914
0.179805
0.220263
0.282098
0.342672
0.462983
2.18941
1.84797
1.76206
1.52913
1.30733
1.21752
1.14967
0.965846
0.757839
0.555095
0.371682
0.237278
0.171529
0.155964
0.160254
0.171063
0.193107
0.238412
0.291492
0.39791
2.26602
2.01393
2.06766
1.85942
1.48003
1.29032
1.17733
0.998391
0.806404
0.63195
0.467553
0.326991
0.233648
0.188944
0.173525
0.177465
0.195529
0.226376
0.263117
0.346961
2.36017
2.15243
2.3149
2.24745
1.79362
1.43564
1.2384
1.04755
0.857492
0.698892
0.552506
0.413929
0.307067
0.237556
0.199661
0.19963
0.208133
0.229401
0.257061
0.320529
2.44779
2.26663
2.45969
2.57697
2.26848
1.72113
1.3735
1.13029
0.927696
0.764848
0.623175
0.494415
0.385422
0.304035
0.252606
0.23382
0.234457
0.243504
0.262388
0.318981
2.53465
2.37605
2.56729
2.76104
2.67677
2.17562
1.64272
1.27282
1.02102
0.837189
0.686202
0.553214
0.446887
0.366629
0.31005
0.276062
0.264875
0.267367
0.278743
0.324138
2.59554
2.43751
2.5705
2.74472
2.85447
2.63837
2.21632
1.73811
1.34075
1.06712
0.867308
0.705563
0.584125
0.490998
0.421569
0.367247
0.334653
0.328254
0.331301
0.356216
7.81558
7.65246
7.46247
5.93986
5.34354
5.29427
5.14054
4.57564
3.80375
3.113
2.59367
2.25092
2.07647
2.10057
2.16125
2.2372
2.33734
2.4367
2.53365
2.60968
7.67789
7.5726
6.24818
4.48152
4.60645
5.1181
5.10161
4.38987
3.18106
2.17778
1.66255
1.47788
1.51924
1.63219
1.80003
1.96205
2.11642
2.24756
2.36649
2.44481
7.42626
6.47483
3.95604
3.27198
4.41476
5.21218
5.22326
4.33745
2.62862
1.50064
1.20172
1.25323
1.35138
1.50238
1.72867
2.01337
2.27414
2.44671
2.56794
2.5855
5.91756
4.44049
3.1986
2.65882
3.8452
5.15273
5.45338
4.81049
2.47334
0.796491
0.839295
0.952418
1.11076
1.291
1.52723
1.85889
2.24347
2.57626
2.78309
2.77215
5.26057
4.43199
4.19643
3.46661
0.615344
0.919869
0.972815
1.02359
1.08554
1.17032
1.28894
1.46243
1.76085
2.23102
2.67104
2.89362
5.14445
4.93982
5.05493
5.04381
1.16334
1.18832
1.16726
1.15667
1.16033
1.1753
1.20615
1.27225
1.40084
1.64884
2.09581
2.64271
5.00122
4.96496
5.09229
5.31616
1.25241
1.18458
1.16349
1.14889
1.13527
1.13584
1.14258
1.16439
1.21159
1.31574
1.54336
2.13106
4.44827
4.28237
4.24942
4.69295
1.06478
0.843299
0.878912
0.900585
0.911021
0.926945
0.951389
0.983461
1.02602
1.09097
1.20043
1.61674
3.69245
3.09977
2.59039
2.43082
0.601747
1.13079
1.20569
1.01493
0.144404
0.243837
0.377494
0.492491
0.588398
0.661821
0.722853
0.774287
0.820576
0.879897
0.955864
1.22962
3.0068
2.1001
1.4589
0.771967
0.89257
1.15087
1.13746
0.806892
0.244936
0.101567
0.132668
0.213349
0.320925
0.425054
0.507135
0.580635
0.650657
0.713953
0.775668
0.96779
2.49595
1.57777
1.13964
0.807571
0.944804
1.13108
1.11961
0.845511
0.3794
0.138066
0.0920891
0.109032
0.163392
0.240875
0.323821
0.412199
0.495514
0.569547
0.624454
0.778655
2.16663
1.40873
1.1893
0.908005
0.993269
1.12159
1.10773
0.870019
0.496042
0.224209
0.113629
0.091658
0.0974468
0.130468
0.194566
0.275418
0.358563
0.436265
0.493284
0.628024
2.02039
1.45833
1.28439
1.05606
1.0493
1.12544
1.09866
0.883057
0.589996
0.332869
0.172819
0.100732
0.096427
0.105317
0.135342
0.191418
0.257746
0.331728
0.391033
0.515463
2.05292
1.58498
1.43924
1.22447
1.12669
1.14025
1.10079
0.901026
0.659226
0.434931
0.252616
0.139369
0.107756
0.1118
0.127069
0.153079
0.193894
0.25329
0.313253
0.430281
2.12177
1.77164
1.68103
1.44362
1.23636
1.1692
1.10937
0.925674
0.71679
0.514748
0.337624
0.208752
0.14422
0.129436
0.134147
0.145429
0.166326
0.208856
0.262541
0.368407
2.20211
1.95153
1.98875
1.76858
1.3967
1.22975
1.13214
0.955465
0.766333
0.589433
0.429603
0.294402
0.205854
0.161401
0.147441
0.151362
0.168425
0.200484
0.237681
0.320495
2.30285
2.10421
2.2588
2.18042
1.68164
1.35161
1.17917
0.996662
0.812851
0.660571
0.516856
0.382204
0.27746
0.209278
0.172453
0.17228
0.181721
0.203994
0.230773
0.292069
2.39645
2.22861
2.43704
2.53923
2.15859
1.59696
1.2834
1.06286
0.873743
0.725129
0.592631
0.463744
0.355577
0.273397
0.222512
0.207709
0.209236
0.217295
0.235642
0.29093
2.48466
2.33993
2.55353
2.75218
2.62259
2.04176
1.51221
1.17678
0.953361
0.78883
0.648896
0.521479
0.417273
0.336325
0.2815
0.251308
0.238439
0.240183
0.250949
0.297518
2.54577
2.40108
2.553
2.73919
2.85053
2.58763
2.0936
1.60012
1.23476
0.986417
0.805794
0.658337
0.54634
0.458827
0.393108
0.341464
0.304781
0.299322
0.304149
0.333887
7.85038
7.68035
7.45346
5.78867
5.22818
5.25654
5.1283
4.55647
3.77185
3.07237
2.55824
2.22728
2.05661
2.08207
2.1499
2.23132
2.33451
2.43465
2.53162
2.59754
7.67811
7.71731
5.80191
4.2443
4.53524
5.10224
5.10221
4.37502
3.15474
2.13778
1.61643
1.44521
1.49123
1.61178
1.78631
1.95529
2.11539
2.24893
2.36872
2.43846
7.44839
5.97602
3.6699
3.14042
4.35244
5.17749
5.21398
4.31948
2.60343
1.46505
1.14927
1.20336
1.31328
1.47731
1.70956
2.00211
2.27061
2.45539
2.58002
2.5877
5.72376
4.17826
3.07818
2.5848
3.66103
5.11616
5.42023
4.77912
2.34663
0.760868
0.796994
0.901314
1.0595
1.24173
1.47864
1.82178
2.23287
2.5871
2.79136
2.78125
5.10377
4.37117
4.20627
3.57079
0.62795
0.898816
0.95105
0.996442
1.04882
1.12364
1.23324
1.39611
1.67699
2.13953
2.63569
2.90139
5.09268
4.93507
5.04458
4.99365
1.14272
1.16486
1.14649
1.1324
1.13304
1.14242
1.16486
1.21768
1.32976
1.54008
1.95674
2.58902
4.97826
4.95521
5.07937
5.27896
1.22753
1.1607
1.14068
1.12548
1.11136
1.10519
1.10813
1.12206
1.15707
1.2363
1.42018
1.9966
4.42781
4.26702
4.22926
4.66219
1.04253
0.815914
0.849953
0.874288
0.88549
0.897569
0.917695
0.943774
0.978104
1.02998
1.11575
1.48206
3.67675
3.09366
2.56868
2.35523
0.611165
1.11308
1.18423
0.995327
0.133302
0.222663
0.351739
0.464455
0.558697
0.634878
0.696729
0.747756
0.79075
0.838872
0.900055
1.13251
2.98784
2.09205
1.44318
0.749593
0.887694
1.14396
1.1288
0.797162
0.238466
0.0916392
0.119417
0.192834
0.294418
0.399894
0.488183
0.560592
0.628587
0.690026
0.744564
0.90779
2.47161
1.55653
1.10807
0.782928
0.940272
1.12598
1.11207
0.834724
0.369274
0.126604
0.0827412
0.0983927
0.147963
0.226098
0.310385
0.394598
0.474323
0.553605
0.608291
0.740774
2.14978
1.38874
1.15767
0.879766
0.985663
1.1147
1.10139
0.861703
0.480719
0.206944
0.102762
0.0797299
0.0868283
0.119229
0.181528
0.258494
0.337861
0.421644
0.480487
0.600561
1.98585
1.43303
1.26193
1.03019
1.03699
1.11681
1.09147
0.875707
0.570927
0.310967
0.158732
0.0904474
0.0804577
0.0878508
0.115828
0.171261
0.239254
0.314236
0.376997
0.495521
2.01089
1.55115
1.41869
1.20097
1.10913
1.12893
1.09166
0.889843
0.641383
0.414464
0.23814
0.127068
0.0898637
0.0916399
0.104467
0.128967
0.171078
0.232417
0.294524
0.411211
2.08045
1.7268
1.64398
1.42253
1.21378
1.15322
1.0965
0.911041
0.698577
0.497252
0.321301
0.191846
0.123442
0.107272
0.111414
0.125876
0.14817
0.188821
0.241948
0.34934
2.16093
1.90307
1.93809
1.74504
1.36736
1.20531
1.11312
0.937734
0.747846
0.567069
0.405923
0.271524
0.184182
0.138
0.127227
0.133882
0.151545
0.181339
0.218625
0.302404
2.26337
2.0625
2.21239
2.14983
1.62569
1.31359
1.15045
0.973871
0.792108
0.635895
0.489209
0.355649
0.256395
0.185211
0.152725
0.154456
0.164208
0.185393
0.210648
0.271559
2.36121
2.19503
2.41091
2.52563
2.06807
1.51445
1.2306
1.02835
0.841993
0.70041
0.57255
0.443044
0.334691
0.249849
0.200387
0.188029
0.189781
0.196851
0.21461
0.271257
2.45568
2.31374
2.54334
2.75531
2.58297
1.9198
1.41335
1.11725
0.907738
0.759055
0.628428
0.502057
0.39824
0.314658
0.25901
0.231184
0.217311
0.218183
0.229537
0.278978
2.51903
2.38165
2.54573
2.74964
2.87084
2.55534
1.98205
1.48768
1.15081
0.929751
0.764324
0.624129
0.520211
0.435703
0.371465
0.322136
0.283201
0.278019
0.283898
0.318401
7.89474
7.7188
7.46068
5.70269
5.16911
5.23788
5.119
4.54716
3.75031
3.04029
2.52855
2.21706
2.04574
2.07112
2.14552
2.23612
2.34419
2.44475
2.54126
2.60761
7.69809
7.82867
5.58329
4.13166
4.54863
5.12121
5.1228
4.38847
3.14642
2.11244
1.57625
1.4254
1.47486
1.60006
1.78371
1.96435
2.12978
2.26503
2.38355
2.45158
7.47409
5.73632
3.55771
3.09715
4.41497
5.20244
5.23219
4.33921
2.59014
1.43876
1.10856
1.16544
1.28182
1.45645
1.69776
2.00288
2.28118
2.47832
2.60373
2.60338
5.63318
4.05873
3.02671
2.54155
3.69595
5.11685
5.43124
4.80332
2.37283
0.742632
0.77692
0.876559
1.03245
1.21246
1.44827
1.79795
2.22543
2.609
2.82285
2.80902
5.0532
4.35724
4.19493
3.53214
0.624193
0.8801
0.93636
0.98367
1.0345
1.1058
1.21035
1.36776
1.63736
2.09569
2.6259
2.92817
5.07975
4.93917
5.05006
5.00577
1.11574
1.13483
1.12171
1.11321
1.11456
1.12458
1.14564
1.1934
1.29919
1.49032
1.87574
2.55585
4.9813
4.96707
5.09232
5.28371
1.19109
1.12867
1.11557
1.10572
1.09628
1.09155
1.09396
1.10535
1.13624
1.20455
1.36205
1.9144
4.42592
4.27201
4.23592
4.67206
1.01536
0.789317
0.827268
0.854998
0.871312
0.88447
0.903577
0.927034
0.959109
1.00688
1.08152
1.41045
3.66867
3.08433
2.54708
2.32592
0.580799
1.12459
1.19055
0.990142
0.128038
0.210725
0.336636
0.450003
0.543833
0.621199
0.68358
0.734878
0.779091
0.824226
0.878625
1.08374
2.98036
2.08329
1.43114
0.745087
0.894858
1.14941
1.12985
0.791215
0.234752
0.0878771
0.113509
0.181139
0.280112
0.387951
0.478641
0.551872
0.618785
0.679576
0.731893
0.878808
2.4686
1.55459
1.10296
0.780849
0.949679
1.13253
1.11468
0.829242
0.36439
0.12275
0.0774534
0.0933608
0.143752
0.220796
0.304869
0.383456
0.461691
0.54638
0.602399
0.723571
2.14834
1.38742
1.15326
0.87839
0.994873
1.12011
1.10359
0.858979
0.47533
0.198871
0.0984477
0.0782778
0.0863755
0.116617
0.174025
0.249104
0.329582
0.416141
0.477078
0.590862
1.97257
1.42906
1.26213
1.02889
1.04398
1.12119
1.09418
0.876753
0.564184
0.301002
0.154886
0.0897351
0.0728319
0.078442
0.106865
0.166046
0.235855
0.310847
0.374335
0.488823
1.99409
1.54351
1.42041
1.1997
1.11112
1.13068
1.09434
0.891888
0.63705
0.40716
0.234917
0.124868
0.0803791
0.0817012
0.095155
0.120771
0.163991
0.225442
0.287756
0.403829
2.06083
1.71045
1.63659
1.42254
1.20959
1.15107
1.09828
0.912745
0.697995
0.494692
0.319611
0.185046
0.113506
0.0976146
0.101808
0.117113
0.140406
0.180578
0.235224
0.344013
2.13959
1.87803
1.91559
1.7458
1.35754
1.19717
1.11131
0.937484
0.748856
0.566868
0.398594
0.262832
0.177257
0.12834
0.118447
0.126276
0.144478
0.17614
0.215526
0.299733
2.2391
2.03934
2.1871
2.14252
1.60802
1.29961
1.14263
0.969721
0.791993
0.633676
0.479877
0.347153
0.251266
0.175839
0.143856
0.146589
0.157763
0.180672
0.204758
0.263464
2.33591
2.1737
2.39044
2.51489
2.02861
1.48065
1.21036
1.0168
0.837377
0.696458
0.568393
0.437309
0.329436
0.239966
0.188848
0.181129
0.183646
0.19032
0.206642
0.261603
2.43018
2.29295
2.52824
2.74314
2.54398
1.84857
1.3652
1.09087
0.893727
0.751151
0.625127
0.498825
0.394069
0.304875
0.249134
0.22661
0.210056
0.209088
0.219137
0.271053
2.49328
2.35928
2.53203
2.74214
2.86455
2.5144
1.90542
1.42129
1.10562
0.903555
0.748153
0.613035
0.510293
0.425517
0.36502
0.318267
0.273495
0.266787
0.27497
0.317804
7.8953
7.7099
7.44522
5.688
5.16075
5.2342
5.11481
4.54463
3.74962
3.03663
2.51996
2.21147
2.0455
2.07288
2.1503
2.24289
2.35483
2.45846
2.55639
2.61973
7.71013
7.83718
5.5518
4.11143
4.56636
5.12963
5.12531
4.3884
3.14748
2.11158
1.57135
1.42114
1.47162
1.59819
1.784
1.96907
2.14
2.27867
2.39795
2.46257
7.49462
5.72226
3.53391
3.08591
4.45451
5.20812
5.22765
4.33803
2.58772
1.44039
1.1075
1.1648
1.28378
1.45603
1.69443
2.00357
2.29057
2.49423
2.61829
2.6155
5.62655
4.03407
3.01053
2.51698
3.84037
5.13654
5.4332
4.81787
2.36143
0.741839
0.777835
0.877702
1.03192
1.21071
1.44302
1.79178
2.23142
2.623
2.83303
2.8178
5.04862
4.33692
4.16369
3.423
0.575432
0.874166
0.931673
0.979877
1.03088
1.10135
1.204
1.35926
1.62729
2.08657
2.62464
2.93003
5.07797
4.93253
5.04558
5.01582
1.09248
1.1291
1.11564
1.10763
1.10942
1.1198
1.14044
1.18699
1.29132
1.48039
1.86492
2.55222
4.98103
4.96427
5.09565
5.29488
1.16224
1.12089
1.10824
1.09949
1.09145
1.08799
1.09057
1.10123
1.1306
1.19636
1.3516
1.90262
4.42059
4.27013
4.24148
4.68015
0.988116
0.786791
0.822982
0.850251
0.866835
0.881243
0.900948
0.923584
0.95447
1.00121
1.07482
1.40138
3.66535
3.08581
2.55606
2.38491
0.552058
1.12065
1.18501
0.987935
0.125381
0.215482
0.340953
0.45141
0.542253
0.619175
0.681789
0.732982
0.775568
0.819035
0.872811
1.07711
2.97956
2.08349
1.43318
0.737509
0.883647
1.1439
1.12895
0.790825
0.229683
0.0882638
0.114593
0.182044
0.280068
0.385496
0.476156
0.5488
0.613838
0.673716
0.726438
0.874493
2.46992
1.5545
1.10489
0.774585
0.940929
1.12891
1.11505
0.829451
0.359368
0.121341
0.0771836
0.0931493
0.142243
0.218055
0.301942
0.380383
0.457804
0.539874
0.595621
0.718587
2.1503
1.39041
1.15475
0.874181
0.989119
1.1191
1.10526
0.857739
0.470745
0.196751
0.097809
0.076803
0.0845184
0.114596
0.172548
0.247416
0.326061
0.410278
0.471097
0.585159
1.9759
1.43266
1.26371
1.02661
1.03976
1.12077
1.09695
0.875019
0.561716
0.29867
0.153107
0.0880853
0.0725105
0.078673
0.106462
0.163325
0.231977
0.30655
0.369796
0.484277
1.99739
1.54817
1.42392
1.19981
1.10944
1.13136
1.09731
0.891935
0.636422
0.404222
0.232794
0.123365
0.0805407
0.0817316
0.0936151
0.118459
0.16118
0.222389
0.285156
0.399706
2.06377
1.7166
1.6437
1.42684
1.21181
1.15273
1.10147
0.914375
0.695771
0.492046
0.316998
0.184625
0.113085
0.0960304
0.10012
0.115498
0.138904
0.179521
0.233514
0.340735
2.14173
1.88349
1.92607
1.75646
1.36282
1.20039
1.11487
0.939324
0.745946
0.56387
0.397783
0.26223
0.174896
0.125698
0.116905
0.124803
0.143469
0.174385
0.21354
0.297838
2.23837
2.04238
2.19448
2.15706
1.61861
1.30474
1.146
0.970739
0.790187
0.632406
0.479173
0.344821
0.248548
0.173396
0.142821
0.145591
0.156519
0.178623
0.203095
0.262033
2.33236
2.1729
2.39144
2.52359
2.04493
1.48854
1.2148
1.018
0.837077
0.69595
0.565579
0.435415
0.328108
0.238768
0.187755
0.179114
0.181586
0.188742
0.205149
0.260447
2.42441
2.28757
2.52162
2.74009
2.54553
1.85089
1.36977
1.09224
0.894671
0.750513
0.623312
0.498154
0.39353
0.304442
0.247129
0.224055
0.20808
0.207608
0.217952
0.270131
2.487
2.35267
2.52327
2.73447
2.86128
2.50242
1.89742
1.41488
1.10401
0.900725
0.747546
0.613416
0.510714
0.424802
0.362915
0.316807
0.272591
0.266531
0.274819
0.317784
7.85171
7.66571
7.42364
5.75479
5.20982
5.25068
5.12118
4.55181
3.76049
3.05695
2.5454
2.22409
2.05849
2.08522
2.15525
2.23869
2.34694
2.45225
2.55499
2.6219
7.69829
7.73948
5.74137
4.20922
4.576
5.1213
5.10538
4.37588
3.14429
2.11976
1.5956
1.43724
1.48595
1.6106
1.78789
1.95897
2.12388
2.26311
2.38755
2.45932
7.48243
5.95828
3.63744
3.11928
4.44424
5.18932
5.20831
4.32214
2.58606
1.44755
1.13154
1.18953
1.30542
1.47115
1.70309
1.99785
2.27191
2.46801
2.59713
2.60302
5.72354
4.14715
3.04826
2.5275
3.83637
5.10939
5.39843
4.79721
2.35261
0.750101
0.788385
0.894778
1.05317
1.23466
1.46996
1.81332
2.2302
2.59804
2.80499
2.79377
5.09146
4.33018
4.14807
3.41469
0.584673
0.884069
0.937767
0.983723
1.03666
1.1107
1.21714
1.37759
1.65422
2.11927
2.63466
2.90715
5.07817
4.91343
5.03365
5.0023
1.11604
1.14581
1.12605
1.11145
1.11227
1.12197
1.14438
1.19601
1.30542
1.51026
1.9296
2.58109
4.96889
4.94258
5.08307
5.29189
1.19226
1.13972
1.11952
1.1052
1.09254
1.08907
1.09217
1.10511
1.13784
1.2124
1.39059
1.96842
4.41062
4.25373
4.22465
4.67585
1.00733
0.803183
0.835863
0.860728
0.873868
0.885746
0.90472
0.929653
0.963644
1.01527
1.09906
1.4599
3.6576
3.06835
2.53866
2.31789
0.57283
1.11021
1.18269
0.993814
0.126559
0.225191
0.35352
0.463039
0.553703
0.627821
0.688152
0.737772
0.779705
0.826889
0.886958
1.1159
2.98091
2.07805
1.42813
0.748907
0.882038
1.14113
1.12926
0.791752
0.22681
0.0904071
0.11939
0.192562
0.292596
0.397066
0.483347
0.551916
0.618376
0.67944
0.73308
0.893919
2.47536
1.55888
1.11465
0.786188
0.936096
1.12279
1.11251
0.829435
0.356808
0.122718
0.0816943
0.0977215
0.147645
0.22387
0.30517
0.388547
0.467867
0.546425
0.599532
0.728684
2.15586
1.39314
1.16464
0.886486
0.981818
1.10948
1.1005
0.857867
0.468589
0.199941
0.100464
0.0790029
0.0860748
0.117044
0.178423
0.255254
0.334128
0.417486
0.473377
0.59023
1.99255
1.44016
1.26896
1.03674
1.03296
1.11088
1.08912
0.872074
0.560626
0.302547
0.154719
0.0888542
0.079207
0.0867233
0.114656
0.169647
0.237828
0.310993
0.371891
0.48876
2.01894
1.56092
1.42842
1.20928
1.10508
1.1217
1.08874
0.885773
0.633889
0.406971
0.233537
0.124256
0.0883662
0.0903676
0.103189
0.128378
0.169665
0.230114
0.291715
0.406903
2.088
1.73924
1.65792
1.43685
1.21048
1.14463
1.09261
0.90646
0.694433
0.49279
0.316978
0.188911
0.121151
0.105224
0.109854
0.123888
0.146384
0.187675
0.240181
0.346407
2.16779
1.91235
1.95516
1.77103
1.36629
1.19704
1.10759
0.932108
0.745216
0.563961
0.402911
0.269031
0.181185
0.135214
0.125043
0.131768
0.149905
0.179759
0.216936
0.300388
2.26524
2.07009
2.22494
2.1795
1.63524
1.30766
1.14312
0.966505
0.788826
0.633689
0.487123
0.353382
0.254091
0.181761
0.15014
0.152121
0.162147
0.183673
0.208741
0.268822
2.35655
2.19635
2.41261
2.54344
2.08381
1.51057
1.22209
1.01937
0.83792
0.697934
0.570674
0.44189
0.332527
0.247835
0.197607
0.185083
0.187512
0.195324
0.212407
0.26871
2.44521
2.30713
2.5305
2.73846
2.5818
1.91617
1.40395
1.10685
0.901516
0.755014
0.627072
0.501467
0.398057
0.314471
0.256491
0.228938
0.215453
0.216346
0.227759
0.277544
2.50312
2.36706
2.5302
2.72624
2.85176
2.54202
1.96728
1.47311
1.14019
0.9242
0.762663
0.624372
0.521755
0.436916
0.371619
0.322495
0.283074
0.278416
0.284595
0.319471
7.80676
7.61423
7.42424
5.91571
5.33654
5.30487
5.14847
4.58053
3.79236
3.09859
2.58696
2.25636
2.09083
2.11624
2.17594
2.25174
2.35264
2.45334
2.55076
2.62692
7.69335
7.56888
6.15847
4.46668
4.63313
5.143
5.11834
4.40023
3.16904
2.15471
1.63941
1.47145
1.52127
1.64185
1.81207
1.97357
2.12804
2.25931
2.37767
2.45695
7.44929
6.47588
3.92467
3.26676
4.45582
5.22105
5.23838
4.35029
2.62136
1.47956
1.17857
1.23501
1.34148
1.50106
1.73432
2.01964
2.27875
2.45152
2.57302
2.59205
5.89199
4.39626
3.18088
2.60491
3.85262
5.11789
5.41816
4.80324
2.38723
0.778324
0.82224
0.938943
1.09905
1.28037
1.51838
1.85733
2.2502
2.58311
2.78537
2.77341
5.22882
4.38966
4.16122
3.43753
0.612713
0.893856
0.949272
1.00124
1.064
1.14864
1.26538
1.43894
1.74223
2.22108
2.66593
2.8906
5.11639
4.91065
5.04184
5.01432
1.11331
1.15547
1.13756
1.12822
1.13201
1.14708
1.17805
1.24428
1.37287
1.62277
2.07655
2.63271
4.98283
4.94374
5.08521
5.29357
1.20031
1.15431
1.13672
1.12377
1.11198
1.11268
1.11887
1.13919
1.18459
1.28628
1.51465
2.10912
4.42624
4.26088
4.23313
4.67196
1.01704
0.81701
0.856029
0.880817
0.892198
0.907827
0.931755
0.963077
1.00542
1.07012
1.17958
1.59675
3.67203
3.07122
2.55439
2.40143
0.565401
1.11894
1.19412
1.00158
0.139392
0.235596
0.36623
0.479836
0.575604
0.65032
0.712043
0.762467
0.807674
0.866577
0.942492
1.2164
2.99768
2.08646
1.44198
0.763499
0.892606
1.15879
1.14825
0.813249
0.244487
0.0989565
0.128391
0.207132
0.315022
0.419929
0.500648
0.572279
0.642103
0.706153
0.76834
0.960067
2.49461
1.57466
1.13699
0.804627
0.949275
1.13886
1.13127
0.851937
0.377932
0.133433
0.089698
0.107086
0.161801
0.237937
0.318708
0.406173
0.491175
0.56594
0.620821
0.77393
2.16855
1.40862
1.18726
0.912462
1.00096
1.12854
1.11909
0.877583
0.492999
0.217571
0.110554
0.0902622
0.0961923
0.128438
0.192125
0.272868
0.356177
0.433398
0.489634
0.624571
2.02496
1.46079
1.28489
1.06595
1.0588
1.13217
1.10919
0.889958
0.587737
0.327519
0.169159
0.0986119
0.0944177
0.103787
0.13482
0.191128
0.256544
0.329449
0.389017
0.51512
2.0589
1.59165
1.44829
1.23836
1.13753
1.14678
1.11098
0.906736
0.659788
0.432966
0.249444
0.13576
0.10557
0.110285
0.126346
0.152415
0.192654
0.252301
0.313107
0.431203
2.12794
1.78394
1.69783
1.46409
1.24807
1.17562
1.11872
0.93085
0.719896
0.515195
0.3348
0.205659
0.142447
0.12828
0.133221
0.144458
0.165517
0.209229
0.263981
0.369502
2.20908
1.96206
2.01195
1.80299
1.41046
1.23718
1.14045
0.961298
0.770168
0.589253
0.428089
0.293242
0.205418
0.159945
0.146255
0.150357
0.16806
0.201404
0.238888
0.32062
2.30905
2.11409
2.27844
2.22014
1.70203
1.36082
1.18582
1.00307
0.816368
0.661393
0.517871
0.382701
0.277426
0.207584
0.171197
0.17167
0.182188
0.205008
0.230683
0.290902
2.40115
2.23622
2.45161
2.57484
2.17936
1.6038
1.28769
1.06882
0.876751
0.727574
0.595704
0.464959
0.356071
0.273298
0.222331
0.208711
0.209937
0.217256
0.235206
0.290262
2.48911
2.34482
2.5563
2.75919
2.63946
2.04737
1.51463
1.18125
0.955786
0.791684
0.651986
0.523081
0.419313
0.338571
0.283286
0.253233
0.238766
0.240124
0.25082
0.297661
2.54553
2.40215
2.55388
2.74001
2.85712
2.5959
2.09679
1.60101
1.23607
0.989463
0.808424
0.6609
0.550334
0.463469
0.397265
0.345142
0.307113
0.301489
0.306376
0.33618
7.79245
7.55493
7.43871
6.14144
5.55346
5.42614
5.23987
4.66885
3.87788
3.18165
2.6605
2.31333
2.15611
2.18161
2.23218
2.30014
2.39328
2.48891
2.58603
2.66553
7.62508
7.37323
6.65255
4.79725
4.77414
5.22438
5.19998
4.48464
3.24395
2.22546
1.7049
1.51981
1.57419
1.70022
1.87397
2.02351
2.16658
2.28954
2.40726
2.48673
7.41877
7.01589
4.3763
3.50464
4.53456
5.3181
5.32939
4.44017
2.70403
1.54283
1.24668
1.29717
1.38989
1.55332
1.80024
2.08872
2.32891
2.47305
2.58873
2.61186
6.08994
4.68081
3.37092
2.72626
3.90496
5.1991
5.51493
4.87365
2.5418
0.826348
0.874997
0.996058
1.15269
1.3338
1.57948
1.92372
2.30277
2.61705
2.79387
2.77962
5.43044
4.53099
4.2326
3.46531
0.626393
0.935883
0.993844
1.04967
1.11519
1.20147
1.32333
1.51531
1.85522
2.33415
2.7248
2.89748
5.21369
4.9635
5.09856
5.05933
1.14155
1.20265
1.1849
1.17279
1.17594
1.19139
1.22692
1.30521
1.45962
1.75747
2.22317
2.68798
5.04668
4.98161
5.1271
5.33773
1.23257
1.20136
1.18324
1.1672
1.15015
1.14975
1.15638
1.1814
1.24213
1.38009
1.65709
2.24648
4.48601
4.30192
4.26911
4.71464
1.04736
0.859596
0.899229
0.918829
0.928145
0.944414
0.968346
1.00156
1.0509
1.13359
1.27655
1.74733
3.72026
3.09564
2.57956
2.3836
0.616769
1.14868
1.23285
1.03884
0.15016
0.256482
0.395445
0.516352
0.612905
0.68485
0.743847
0.791982
0.842417
0.912527
1.00607
1.32898
3.04814
2.11771
1.47572
0.805698
0.933263
1.20709
1.19778
0.857046
0.270817
0.112397
0.145833
0.234635
0.348287
0.449363
0.52857
0.603401
0.670365
0.737921
0.811969
1.04393
2.54909
1.61729
1.19759
0.856856
0.995932
1.1854
1.18041
0.901014
0.414545
0.153408
0.104148
0.122758
0.179453
0.259133
0.344361
0.435151
0.518974
0.59013
0.654163
0.837544
2.22148
1.45125
1.2456
0.975907
1.05438
1.17243
1.16523
0.922804
0.537561
0.249821
0.12712
0.107588
0.115487
0.151015
0.218076
0.300784
0.383318
0.461507
0.52118
0.67574
2.0918
1.51157
1.3331
1.13316
1.11868
1.17553
1.15119
0.932481
0.632759
0.367918
0.190669
0.117605
0.117243
0.130338
0.163708
0.218175
0.285216
0.360017
0.420221
0.556576
2.13072
1.65557
1.50347
1.30922
1.20162
1.1909
1.15205
0.948196
0.703154
0.471982
0.276773
0.159619
0.13245
0.13839
0.154053
0.180164
0.221091
0.283661
0.345065
0.466723
2.20022
1.86398
1.77507
1.5375
1.31501
1.22449
1.16037
0.97118
0.760131
0.55311
0.367473
0.234387
0.171049
0.155839
0.160274
0.171224
0.193715
0.24036
0.29457
0.401336
2.28477
2.04235
2.10132
1.88076
1.48836
1.29662
1.18644
1.00313
0.806862
0.628185
0.463602
0.325218
0.23335
0.188456
0.173455
0.177707
0.196504
0.228487
0.265886
0.349275
2.38492
2.18712
2.35743
2.2919
1.80615
1.44153
1.24445
1.0513
0.856049
0.695303
0.55007
0.412872
0.30683
0.237367
0.200113
0.200544
0.209821
0.231306
0.258293
0.320474
2.47471
2.30311
2.51301
2.6364
2.29299
1.72357
1.37516
1.13238
0.925271
0.76256
0.622985
0.494546
0.386284
0.304842
0.25439
0.236049
0.236204
0.244364
0.262978
0.319634
2.56217
2.41135
2.60818
2.80309
2.71582
2.18434
1.64151
1.27195
1.01806
0.835968
0.68677
0.554967
0.449617
0.369574
0.313608
0.279228
0.265756
0.267715
0.278988
0.324879
2.61307
2.46197
2.60145
2.77691
2.88896
2.66426
2.22407
1.7358
1.33741
1.06658
0.868604
0.709123
0.589371
0.496632
0.426914
0.370927
0.335797
0.329653
0.332813
0.358099
7.96006
7.72387
7.73781
6.47954
5.86296
5.65208
5.44043
4.84987
4.04085
3.326
2.78827
2.4288
2.27691
2.29987
2.3432
2.41306
2.50924
2.6046
2.69632
2.7713
7.76846
7.504
7.21687
5.14185
4.99939
5.40783
5.37227
4.63222
3.3752
2.34287
1.80619
1.62111
1.6812
1.80962
1.98393
2.13532
2.27993
2.40152
2.51287
2.58335
7.66387
7.5469
4.86099
3.76454
4.66862
5.46883
5.47544
4.56905
2.82229
1.65555
1.34975
1.40203
1.49757
1.66787
1.92775
2.22725
2.46013
2.58914
2.69334
2.70869
6.40202
5.00648
3.60418
2.8947