/*--------------------------------*- C++ -*----------------------------------*\
  =========                 |
  \\      /  F ield         | OpenFOAM: The Open Source CFD Toolbox
   \\    /   O peration     | Website:  https://openfoam.org
    \\  /    A nd           | Version:  9
     \\/     M anipulation  |
\*---------------------------------------------------------------------------*/
FoamFile
{
    format      ascii;
    class       volScalarField;
    location    "0.006";
    object      rho.Air;
}
// * * * * * * * * * * * * * * * * * * * * * * * * * * * * * * * * * * * * * //

dimensions      [1 -3 0 0 0 0 0];

internalField   nonuniform List<scalar> 
9720
(
0.00740228
0.00737783
0.00732032
0.00599939
0.0053463
0.00512529
0.00493573
0.00439915
0.00372553
0.00313515
0.0026873
0.00234955
0.0022386
0.00228449
0.00238052
0.00250461
0.0026407
0.00276265
0.00287029
0.00286865
0.00736981
0.00715533
0.00688376
0.00464471
0.00447578
0.00487725
0.00488009
0.00422652
0.00316947
0.00213923
0.00151935
0.00114312
0.00115726
0.00124803
0.00142318
0.00161756
0.00183442
0.00204933
0.00224857
0.00245377
0.00724903
0.0069699
0.0044313
0.00338799
0.00420442
0.00498347
0.00503872
0.0042102
0.00267531
0.0012149
0.000652542
0.000466809
0.000467093
0.000509053
0.000622106
0.000816328
0.00107199
0.00131844
0.00154756
0.00197477
0.00597552
0.00461114
0.00336216
0.00272398
0.00334555
0.00476216
0.00503414
0.00439243
0.00231357
0.000200015
0.000104332
0.000104625
0.000111591
0.000129856
0.000167685
0.000243563
0.000376981
0.00057422
0.000788419
0.00122828
0.00528451
0.0043661
0.00408407
0.00329897
0.00016253
3.08099e-05
3.13326e-05
3.30685e-05
3.65101e-05
4.21784e-05
5.15345e-05
6.8877e-05
0.000106259
0.000184321
0.000292386
0.000568512
0.00501509
0.00473576
0.00484994
0.00461606
6.22597e-05
2.70142e-05
2.54696e-05
2.56007e-05
2.63355e-05
2.78991e-05
3.06264e-05
3.55769e-05
4.49378e-05
6.49389e-05
0.000101877
0.000220652
0.00481971
0.00473651
0.00489208
0.0049012
4.92607e-05
2.26669e-05
2.14273e-05
2.09809e-05
2.1146e-05
2.17353e-05
2.29384e-05
2.50158e-05
2.85878e-05
3.55096e-05
4.79599e-05
9.65004e-05
0.00428676
0.00409169
0.00406895
0.0042465
3.46669e-05
1.4673e-05
1.4786e-05
1.4945e-05
1.5224e-05
1.58002e-05
1.67963e-05
1.83462e-05
2.06584e-05
2.43408e-05
2.99929e-05
5.33232e-05
0.00361982
0.00304222
0.00253116
0.00210295
0.000140607
7.30451e-05
5.94177e-05
4.11887e-05
3.97252e-06
4.27682e-06
6.27802e-06
8.05214e-06
9.50275e-06
1.07892e-05
1.21414e-05
1.35679e-05
1.52781e-05
1.77404e-05
2.10296e-05
3.4013e-05
0.00305036
0.00205527
0.00114942
0.000184545
3.20666e-05
2.98802e-05
2.43752e-05
1.56551e-05
4.64865e-06
1.84293e-06
2.33958e-06
3.63514e-06
5.30325e-06
6.90851e-06
8.3778e-06
9.90182e-06
1.14767e-05
1.34378e-05
1.58224e-05
2.45829e-05
0.00262905
0.00147478
0.000633369
9.99794e-05
3.23105e-05
2.69829e-05
2.25064e-05
1.56384e-05
6.82607e-06
2.46002e-06
1.67446e-06
1.9219e-06
2.73109e-06
3.93036e-06
5.29815e-06
6.85318e-06
8.52756e-06
1.03664e-05
1.22932e-05
1.90324e-05
0.00230752
0.00111617
0.000458638
0.000100293
3.37403e-05
2.67124e-05
2.15898e-05
1.56061e-05
8.67836e-06
3.89029e-06
1.97116e-06
1.84813e-06
1.97743e-06
2.41946e-06
3.34981e-06
4.70208e-06
6.23001e-06
7.96509e-06
9.54956e-06
1.50618e-05
0.0022209
0.00113037
0.000450021
0.000106825
3.69884e-05
2.72333e-05
2.17183e-05
1.57474e-05
1.0099e-05
5.66359e-06
2.87033e-06
2.00251e-06
2.0335e-06
2.35696e-06
2.92377e-06
3.734e-06
4.67054e-06
5.95397e-06
7.31664e-06
1.19774e-05
0.00227122
0.00122264
0.000485746
0.000123534
4.25665e-05
2.87447e-05
2.23232e-05
1.62523e-05
1.13929e-05
7.36356e-06
4.14835e-06
2.49809e-06
2.36343e-06
2.54125e-06
2.93256e-06
3.41941e-06
4.095e-06
5.14687e-06
6.19261e-06
9.70011e-06
0.00236887
0.00140398
0.000588487
0.000157497
5.18123e-05
3.1607e-05
2.36338e-05
1.72685e-05
1.27972e-05
8.96862e-06
5.62396e-06
3.48227e-06
2.94634e-06
2.93452e-06
3.05718e-06
3.43745e-06
4.11149e-06
5.19778e-06
6.2433e-06
8.85388e-06
0.00249234
0.00160479
0.000772997
0.000226784
6.8702e-05
3.68371e-05
2.59556e-05
1.89457e-05
1.43151e-05
1.06409e-05
7.3355e-06
4.90054e-06
3.75879e-06
3.45194e-06
3.46106e-06
3.69139e-06
4.29854e-06
5.36952e-06
6.39106e-06
8.92524e-06
0.00261976
0.00181787
0.00102853
0.000353464
0.000104842
4.67271e-05
2.99895e-05
2.15212e-05
1.61843e-05
1.23474e-05
9.18111e-06
6.52755e-06
4.68941e-06
4.13333e-06
4.15176e-06
4.32694e-06
4.80157e-06
5.69724e-06
6.63518e-06
9.22239e-06
0.00272202
0.00202408
0.00128171
0.000548616
0.000182571
6.81759e-05
3.77416e-05
2.56812e-05
1.8918e-05
1.44908e-05
1.12327e-05
8.42502e-06
5.9866e-06
5.14713e-06
5.21803e-06
5.41529e-06
5.75304e-06
6.34355e-06
7.13889e-06
9.93107e-06
0.00280101
0.00220952
0.00150737
0.000762826
0.000290735
0.000107553
5.17822e-05
3.2064e-05
2.26034e-05
1.71192e-05
1.33604e-05
1.01637e-05
7.38528e-06
6.15338e-06
6.21791e-06
6.41026e-06
6.71137e-06
7.2066e-06
8.00579e-06
1.0981e-05
0.00278797
0.00239248
0.00192039
0.00120212
0.000574176
0.000235853
0.000107799
5.97488e-05
3.79213e-05
2.72167e-05
2.09343e-05
1.62243e-05
1.23802e-05
9.69731e-06
8.71357e-06
8.79818e-06
9.13674e-06
9.8933e-06
1.09294e-05
1.46233e-05
0.00724617
0.00738656
0.00730028
0.00587107
0.00522674
0.00502611
0.00482048
0.00433395
0.00370057
0.00309252
0.00256007
0.00217796
0.00203215
0.00207805
0.0021808
0.00230727
0.00243865
0.00255025
0.0026484
0.00263625
0.00740729
0.00759107
0.0074213
0.00465323
0.00443231
0.00484192
0.00492747
0.00426952
0.00317377
0.00182722
0.00111417
0.000771057
0.000786077
0.000884787
0.00108095
0.00130637
0.00154525
0.00177337
0.001983
0.00219679
0.00734646
0.00752371
0.00489465
0.00397082
0.00432233
0.00526103
0.00548067
0.00470475
0.00249056
0.000580536
0.000246529
0.000195825
0.000205811
0.000242446
0.000327357
0.000480358
0.000699992
0.000940967
0.00116911
0.00160109
0.00591993
0.00465836
0.00395758
0.00269626
0.00937267
0.0137959
0.0154677
0.015701
0.00245036
2.17389e-05
2.33925e-05
2.82857e-05
3.63425e-05
4.82293e-05
6.82488e-05
0.000108251
0.00018543
0.000311309
0.000461111
0.000804742
0.00520688
0.00433206
0.00418823
0.00820201
3.40771e-05
5.09221e-06
7.40695e-06
9.97793e-06
1.29024e-05
1.64808e-05
2.14547e-05
2.97105e-05
4.67042e-05
8.54724e-05
0.000145874
0.000310257
0.00492922
0.00470371
0.00511567
0.0140281
4.69808e-06
6.68582e-06
8.41161e-06
1.00569e-05
1.16686e-05
1.3385e-05
1.54467e-05
1.8446e-05
2.32198e-05
3.27424e-05
5.17761e-05
0.000114612
0.00471235
0.00478447
0.00534087
0.0162235
6.76721e-06
8.2763e-06
9.36903e-06
1.04101e-05
1.14135e-05
1.24615e-05
1.3659e-05
1.51982e-05
1.7396e-05
2.11282e-05
2.77938e-05
5.36988e-05
0.0042188
0.00414546
0.00457654
0.0168137
7.57932e-06
6.81372e-06
7.67455e-06
8.5033e-06
9.29018e-06
1.01274e-05
1.11055e-05
1.23213e-05
1.39165e-05
1.62246e-05
1.95707e-05
3.32538e-05
0.00360539
0.00304887
0.0022868
0.00236488
3.1518e-05
3.48255e-06
4.89878e-06
5.30145e-06
1.16337e-06
2.26035e-06
3.701e-06
5.07682e-06
6.34108e-06
7.49208e-06
8.62758e-06
9.75435e-06
1.10188e-05
1.27647e-05
1.50106e-05
2.35909e-05
0.00300658
0.0017218
0.000509514
1.68224e-05
4.21806e-06
5.39593e-06
6.53377e-06
5.417e-06
2.07983e-06
1.10973e-06
1.43063e-06
2.38833e-06
3.70954e-06
5.03285e-06
6.24871e-06
7.54264e-06
8.86424e-06
1.04047e-05
1.21924e-05
1.85201e-05
0.00249281
0.00102832
0.000207923
1.86344e-05
6.25601e-06
7.02389e-06
7.67824e-06
6.33091e-06
3.29665e-06
1.41646e-06
1.22891e-06
1.39344e-06
2.01476e-06
3.00258e-06
4.16155e-06
5.51076e-06
6.92793e-06
8.47773e-06
1.00766e-05
1.53548e-05
0.00212329
0.000708506
0.000170051
2.31775e-05
8.54407e-06
8.57567e-06
8.75053e-06
7.227e-06
4.534e-06
2.2695e-06
1.39024e-06
1.40639e-06
1.53951e-06
1.95323e-06
2.77027e-06
3.8891e-06
5.20914e-06
6.81086e-06
8.29101e-06
1.28859e-05
0.00200405
0.00072674
0.000177906
3.04614e-05
1.12342e-05
1.01496e-05
9.80795e-06
8.04222e-06
5.70582e-06
3.4477e-06
1.96517e-06
1.55007e-06
1.59849e-06
1.89481e-06
2.3781e-06
3.10593e-06
4.09139e-06
5.40998e-06
6.69023e-06
1.07137e-05
0.00205519
0.000831469
0.000210393
4.10929e-05
1.46202e-05
1.18723e-05
1.09221e-05
8.89556e-06
6.78549e-06
4.69173e-06
2.89625e-06
1.97292e-06
1.90609e-06
2.04804e-06
2.41511e-06
2.96508e-06
3.66026e-06
4.67953e-06
5.69272e-06
8.89811e-06
0.0021605
0.00104172
0.000288713
5.87631e-05
1.93465e-05
1.39467e-05
1.21889e-05
9.87976e-06
7.88196e-06
5.89962e-06
4.0318e-06
2.76109e-06
2.39575e-06
2.42761e-06
2.60227e-06
2.98842e-06
3.65355e-06
4.69735e-06
5.70756e-06
8.29323e-06
0.00228614
0.0012773
0.000432215
9.49761e-05
2.71726e-05
1.69344e-05
1.38078e-05
1.1108e-05
9.01374e-06
7.17272e-06
5.37645e-06
3.86043e-06
3.10196e-06
3.00081e-06
3.0175e-06
3.22082e-06
3.80723e-06
4.81047e-06
5.8401e-06
8.3932e-06
0.00240349
0.00151034
0.000643688
0.000167417
4.36056e-05
2.17171e-05
1.61087e-05
1.27516e-05
1.03017e-05
8.47131e-06
6.79119e-06
5.16847e-06
3.99959e-06
3.68468e-06
3.69298e-06
3.84008e-06
4.27123e-06
5.11042e-06
6.10674e-06
8.71382e-06
0.00248668
0.00172245
0.000880042
0.000287929
8.24751e-05
3.18284e-05
2.00386e-05
1.51582e-05
1.20819e-05
1.00096e-05
8.33314e-06
6.74063e-06
5.18827e-06
4.62373e-06
4.69488e-06
4.84689e-06
5.14906e-06
5.80614e-06
6.66724e-06
9.36911e-06
0.00254918
0.00191102
0.00109978
0.000431428
0.000142601
5.21012e-05
2.73102e-05
1.8722e-05
1.44005e-05
1.1817e-05
9.91077e-06
8.15741e-06
6.37051e-06
5.54201e-06
5.60888e-06
5.81669e-06
6.14896e-06
6.71967e-06
7.51113e-06
1.02582e-05
0.00252722
0.00210551
0.00151697
0.000765012
0.000307982
0.000119237
5.66005e-05
3.42238e-05
2.37865e-05
1.85109e-05
1.5293e-05
1.27003e-05
1.03019e-05
8.51853e-06
7.99495e-06
8.14321e-06
8.54878e-06
9.29156e-06
1.01899e-05
1.34771e-05
0.00673424
0.00748151
0.0075944
0.00586836
0.00513821
0.00480319
0.00452561
0.00412703
0.00360757
0.00286358
0.00209077
0.00166302
0.00150669
0.00155052
0.00166302
0.00180933
0.00195523
0.00206059
0.00215068
0.00214786
0.007529
0.00899523
0.00907972
0.00514056
0.00485041
0.00570709
0.00588684
0.00522737
0.00299707
0.00104516
0.00037533
0.000205426
0.000225025
0.000293701
0.000437808
0.000648686
0.00090098
0.0011444
0.00135077
0.00159416
0.00764862
0.00922908
0.00659358
0.00708335
0.00716314
0.00797815
0.00878741
0.00697988
0.000581023
8.34663e-05
2.31567e-05
2.42131e-05
2.85521e-05
3.90891e-05
6.36629e-05
0.000116022
0.000209116
0.000344454
0.00049647
0.000817118
0.00597264
0.00515478
0.00675605
0.0198461
0.0104381
0.0111912
0.0242748
0.000826574
1.5932e-05
2.14142e-06
3.011e-06
4.33045e-06
6.34694e-06
8.97192e-06
1.29385e-05
2.07675e-05
3.82701e-05
7.27275e-05
0.00012204
0.000254766
0.00517243
0.00493507
0.00638615
0.000449479
1.5553e-06
4.65432e-06
5.14198e-06
5.6741e-06
6.36924e-06
7.37828e-06
8.86405e-06
1.11433e-05
1.50915e-05
2.36737e-05
3.76763e-05
7.93462e-05
0.00470176
0.00570988
0.00861802
0.0262233
5.3471e-06
7.77287e-06
8.12251e-06
8.51848e-06
8.95904e-06
9.51234e-06
1.02672e-05
1.14593e-05
1.3277e-05
1.64142e-05
2.19287e-05
3.72738e-05
0.00439718
0.00594636
0.00913037
0.0270823
7.93636e-06
1.01765e-05
1.02566e-05
1.04367e-05
1.0675e-05
1.09831e-05
1.142e-05
1.20585e-05
1.30228e-05
1.46811e-05
1.76129e-05
2.66399e-05
0.00399385
0.00528338
0.00724038
0.000608072
9.01804e-06
8.55745e-06
8.7612e-06
8.98279e-06
9.25701e-06
9.65001e-06
1.01977e-05
1.09113e-05
1.18169e-05
1.30739e-05
1.49159e-05
2.18297e-05
0.00354036
0.00362263
0.00085622
1.0716e-05
1.40001e-06
4.4973e-06
6.61667e-06
7.44247e-06
1.46899e-06
2.8377e-06
4.31678e-06
5.59162e-06
6.69278e-06
7.6057e-06
8.44158e-06
9.25404e-06
1.00999e-05
1.12565e-05
1.27699e-05
1.83854e-05
0.0028083
0.00113821
9.07713e-05
1.62465e-06
3.74318e-06
6.30067e-06
8.21654e-06
6.97376e-06
2.53292e-06
1.25951e-06
1.64632e-06
2.67721e-06
4.01502e-06
5.31743e-06
6.42911e-06
7.53616e-06
8.6867e-06
9.90505e-06
1.12377e-05
1.59342e-05
0.00197926
0.00031554
1.72429e-05
2.27818e-06
4.08268e-06
6.52698e-06
8.25826e-06
7.13489e-06
3.73603e-06
1.60029e-06
1.3051e-06
1.46386e-06
2.14432e-06
3.21739e-06
4.44911e-06
5.82712e-06
7.18704e-06
8.58849e-06
9.84925e-06
1.40763e-05
0.00154652
0.000163324
1.81922e-05
3.22896e-06
4.45277e-06
6.80182e-06
8.39276e-06
7.33197e-06
4.80514e-06
2.48682e-06
1.4644e-06
1.46863e-06
1.56258e-06
2.04044e-06
3.00352e-06
4.25656e-06
5.62212e-06
7.11945e-06
8.44836e-06
1.23895e-05
0.00144091
0.000182288
2.16328e-05
4.7303e-06
4.94786e-06
7.13177e-06
8.58333e-06
7.54552e-06
5.71393e-06
3.61177e-06
2.06712e-06
1.5778e-06
1.60091e-06
1.8605e-06
2.38941e-06
3.27658e-06
4.37813e-06
5.80579e-06
7.12989e-06
1.08436e-05
0.00149587
0.000247277
3.01943e-05
6.76323e-06
5.71357e-06
7.57213e-06
8.84352e-06
7.85818e-06
6.42255e-06
4.69371e-06
2.98152e-06
2.03767e-06
1.88495e-06
2.01219e-06
2.40925e-06
3.00098e-06
3.8048e-06
4.93804e-06
6.08583e-06
9.35165e-06
0.00162235
0.000392268
5.10585e-05
9.92869e-06
6.91111e-06
8.19145e-06
9.22211e-06
8.29765e-06
7.06856e-06
5.5904e-06
4.03159e-06
2.89293e-06
2.42169e-06
2.43507e-06
2.60643e-06
3.02442e-06
3.75165e-06
4.91537e-06
6.07533e-06
8.77846e-06
0.0017784
0.000611971
9.75452e-05
1.65748e-05
8.81686e-06
9.17787e-06
9.77723e-06
8.87252e-06
7.7228e-06
6.5076e-06
5.22669e-06
3.99832e-06
3.22763e-06
3.04177e-06
3.0548e-06
3.27193e-06
3.90589e-06
5.03713e-06
6.18692e-06
8.86431e-06
0.00191967
0.000870364
0.000184173
3.2481e-05
1.2289e-05
1.07384e-05
1.06188e-05
9.64371e-06
8.44876e-06
7.48484e-06
6.43266e-06
5.22779e-06
4.17528e-06
3.80869e-06
3.80581e-06
3.94907e-06
4.4259e-06
5.34044e-06
6.40546e-06
9.14756e-06
0.00200182
0.00110655
0.000312477
6.47388e-05
2.05058e-05
1.36191e-05
1.21061e-05
1.07689e-05
9.48686e-06
8.56963e-06
7.67526e-06
6.57939e-06
5.37038e-06
4.8262e-06
4.9041e-06
5.09375e-06
5.40802e-06
6.04027e-06
6.95045e-06
9.77152e-06
0.0020608
0.00129429
0.000454501
0.000110884
3.44572e-05
1.89232e-05
1.48355e-05
1.24813e-05
1.08955e-05
9.80144e-06
8.81954e-06
7.75054e-06
6.49949e-06
5.83993e-06
5.94202e-06
6.18943e-06
6.48213e-06
7.01516e-06
7.8228e-06
1.07217e-05
0.0020504
0.00152456
0.000760003
0.000237464
7.67711e-05
3.48766e-05
2.38473e-05
1.92398e-05
1.63055e-05
1.42595e-05
1.27413e-05
1.13338e-05
9.88275e-06
8.69195e-06
8.40693e-06
8.58101e-06
8.99176e-06
9.7183e-06
1.06958e-05
1.41427e-05
0.00482268
0.00571889
0.00460671
0.00324332
0.00268955
0.00239953
0.00217503
0.00198194
0.00193233
0.00150532
0.00100697
0.000708629
0.000707772
0.000775728
0.000901854
0.00104942
0.00120715
0.0013489
0.00147049
0.00157178
0.0057698
0.0127894
0.0149286
0.0103811
0.00850003
0.00818866
0.00720893
0.00565563
0.00382322
0.00043385
8.31852e-05
2.81093e-05
3.0896e-05
4.29665e-05
7.56341e-05
0.000145733
0.000271883
0.000447935
0.000623403
0.000886446
0.00475012
0.0153234
0.0146013
0.0087116
0.00850072
0.00930381
0.0097327
0.0067138
0.000206538
1.87462e-05
4.39132e-06
4.74958e-06
5.55606e-06
6.97875e-06
9.8868e-06
1.65927e-05
3.12855e-05
6.0725e-05
0.000103688
0.000221218
0.00334676
0.0110832
0.0091941
0.000358173
0.000893195
0.00248188
0.0281522
0.000365909
1.29111e-06
2.7082e-06
3.40959e-06
4.20796e-06
5.11288e-06
6.24299e-06
7.79134e-06
1.00438e-05
1.3258e-05
1.80535e-05
2.43115e-05
4.36035e-05
0.0026547
0.00893112
0.00930814
0.000721408
3.23784e-06
6.58043e-06
6.9825e-06
7.3933e-06
7.93856e-06
8.7136e-06
9.82115e-06
1.13625e-05
1.36136e-05
1.71278e-05
2.02618e-05
2.49267e-05
0.00225988
0.00810351
0.00976936
0.0132682
8.28367e-06
1.07875e-05
1.08887e-05
1.10488e-05
1.13055e-05
1.16765e-05
1.21989e-05
1.30535e-05
1.44769e-05
1.67178e-05
2.0113e-05
2.49039e-05
0.00200563
0.00691396
0.00960196
0.0292916
1.17276e-05
1.36917e-05
1.35888e-05
1.34369e-05
1.34283e-05
1.34744e-05
1.36504e-05
1.4046e-05
1.4741e-05
1.60254e-05
1.8469e-05
2.42563e-05
0.00180783
0.00529893
0.00663396
0.000486583
1.27282e-05
1.11764e-05
1.13911e-05
1.15105e-05
1.16033e-05
1.17932e-05
1.21644e-05
1.27095e-05
1.34595e-05
1.45223e-05
1.61245e-05
2.18513e-05
0.00171707
0.00382298
0.000352486
9.0731e-07
2.38857e-06
6.47391e-06
9.21227e-06
1.00166e-05
1.82628e-06
3.44219e-06
5.36355e-06
6.96648e-06
8.26186e-06
9.27351e-06
1.01097e-05
1.08878e-05
1.1668e-05
1.26574e-05
1.39744e-05
1.90036e-05
0.00140508
0.000559228
2.66249e-05
2.03279e-06
5.03042e-06
8.34628e-06
1.06435e-05
8.91606e-06
3.16361e-06
1.47054e-06
1.94552e-06
3.20173e-06
4.85017e-06
6.46369e-06
7.79724e-06
8.95385e-06
1.01211e-05
1.13198e-05
1.25435e-05
1.6856e-05
0.000941074
9.3472e-05
3.654e-06
2.57296e-06
5.35853e-06
8.44514e-06
1.05886e-05
9.10385e-06
4.68414e-06
1.89492e-06
1.4867e-06
1.71356e-06
2.54457e-06
3.92057e-06
5.4398e-06
6.97867e-06
8.42329e-06
9.93433e-06
1.11864e-05
1.51263e-05
0.000657639
2.57837e-05
3.81745e-06
3.17149e-06
5.68158e-06
8.59732e-06
1.05534e-05
9.206e-06
5.92884e-06
2.94855e-06
1.70359e-06
1.58078e-06
1.70738e-06
2.34062e-06
3.56485e-06
5.06077e-06
6.59041e-06
8.30651e-06
9.70598e-06
1.34611e-05
0.000649409
2.81345e-05
4.37893e-06
3.83629e-06
6.10665e-06
8.83373e-06
1.05855e-05
9.30309e-06
6.90089e-06
4.28253e-06
2.43548e-06
1.71859e-06
1.71244e-06
1.92198e-06
2.52594e-06
3.65201e-06
5.06111e-06
6.77286e-06
8.33343e-06
1.21043e-05
0.000728805
3.86362e-05
5.45513e-06
4.66676e-06
6.71851e-06
9.17403e-06
1.06795e-05
9.47842e-06
7.65581e-06
5.55081e-06
3.52977e-06
2.26401e-06
1.9398e-06
2.03008e-06
2.42444e-06
3.10297e-06
4.09437e-06
5.5459e-06
7.05534e-06
1.07403e-05
0.000865599
6.86641e-05
7.73388e-06
5.82784e-06
7.60662e-06
9.63798e-06
1.08882e-05
9.79857e-06
8.29843e-06
6.56588e-06
4.70383e-06
3.25138e-06
2.51891e-06
2.46097e-06
2.62636e-06
3.13576e-06
4.00153e-06
5.31703e-06
6.66433e-06
9.75783e-06
0.00101343
0.000136175
1.32705e-05
7.54782e-06
8.83777e-06
1.0364e-05
1.12716e-05
1.02601e-05
8.92643e-06
7.47929e-06
5.937e-06
4.46966e-06
3.49993e-06
3.14206e-06
3.15571e-06
3.46493e-06
4.20262e-06
5.43669e-06
6.754e-06
9.75051e-06
0.00116685
0.000261264
2.61947e-05
1.01768e-05
1.05619e-05
1.15408e-05
1.18961e-05
1.09113e-05
9.59153e-06
8.45057e-06
7.17615e-06
5.78337e-06
4.65002e-06
4.02741e-06
4.00769e-06
4.21679e-06
4.76121e-06
5.7597e-06
6.92912e-06
9.93245e-06
0.00130249
0.000436203
5.35315e-05
1.43887e-05
1.32991e-05
1.33164e-05
1.29902e-05
1.18638e-05
1.04588e-05
9.50995e-06
8.529e-06
7.27924e-06
6.00881e-06
5.224e-06
5.26243e-06
5.45894e-06
5.81129e-06
6.43717e-06
7.41352e-06
1.05247e-05
0.00141145
0.000604964
9.39538e-05
2.01624e-05
1.60411e-05
1.59929e-05
1.50172e-05
1.32918e-05
1.16749e-05
1.06473e-05
9.65403e-06
8.48364e-06
7.26444e-06
6.42642e-06
6.49103e-06
6.72131e-06
6.99961e-06
7.47399e-06
8.33378e-06
1.15289e-05
0.0015181
0.000868266
0.000207965
3.89791e-05
2.09142e-05
2.01938e-05
1.98618e-05
1.82959e-05
1.63129e-05
1.46336e-05
1.32128e-05
1.18094e-05
1.05951e-05
9.47632e-06
9.17364e-06
9.35256e-06
9.75037e-06
1.04611e-05
1.1499e-05
1.51995e-05
0.00271871
0.00195944
0.00166235
0.00125529
0.00106815
0.000934085
0.000843816
0.000769608
0.000772727
0.000604976
0.000395576
0.000289797
0.000283896
0.000363406
0.000510662
0.000667435
0.000827627
0.000987833
0.0011225
0.00131698
0.00201957
0.00261305
0.00263187
0.0025285
0.00246638
0.00259747
0.00247727
0.00191778
0.0013664
0.0001595
2.52263e-05
9.46026e-06
1.02589e-05
1.37539e-05
2.43962e-05
5.09975e-05
0.000110179
0.000220183
0.000348729
0.000595819
0.00172112
0.00266389
0.00467678
0.00507388
0.00675346
0.00695343
0.00731287
0.00497966
0.000104493
8.95602e-06
4.16088e-06
4.57548e-06
5.24e-06
6.09185e-06
7.32279e-06
9.42774e-06
1.32803e-05
2.09358e-05
3.35391e-05
7.7327e-05
0.00131636
0.00240231
0.00488254
0.00148991
0.00224804
2.6314e-09
0.021819
0.000412769
1.22966e-06
3.12988e-06
3.92949e-06
4.76721e-06
5.71796e-06
6.89159e-06
8.45563e-06
1.06376e-05
1.31625e-05
1.56872e-05
1.68645e-05
1.88312e-05
0.00109989
0.00249147
0.00572042
9.59306e-05
3.85166e-06
7.72392e-06
8.25694e-06
8.74976e-06
9.35158e-06
1.01736e-05
1.13114e-05
1.27943e-05
1.48617e-05
1.81456e-05
2.08926e-05
2.18941e-05
0.000935876
0.00265967
0.00704004
0.000316289
1.05012e-05
1.26129e-05
1.27959e-05
1.30189e-05
1.33133e-05
1.37089e-05
1.42243e-05
1.50466e-05
1.64935e-05
1.85385e-05
2.18806e-05
2.58387e-05
0.000837338
0.00248747
0.00744178
0.0241588
1.45844e-05
1.59733e-05
1.5884e-05
1.58034e-05
1.58086e-05
1.58447e-05
1.59827e-05
1.63105e-05
1.69523e-05
1.81302e-05
2.0415e-05
2.59295e-05
0.000759728
0.0018878
0.00499856
0.000303137
1.55735e-05
1.29388e-05
1.32394e-05
1.3451e-05
1.36222e-05
1.38272e-05
1.41866e-05
1.47052e-05
1.54573e-05
1.65343e-05
1.80877e-05
2.35512e-05
0.000750185
0.00144589
0.000151488
1.03522e-06
3.07889e-06
8.15925e-06
1.13293e-05
1.19536e-05
2.01547e-06
3.86337e-06
6.13315e-06
8.04082e-06
9.54504e-06
1.07698e-05
1.1776e-05
1.26601e-05
1.35104e-05
1.44917e-05
1.57679e-05
2.06321e-05
0.000602373
0.000194592
1.20926e-05
2.58391e-06
6.30468e-06
1.01665e-05
1.26765e-05
1.04223e-05
3.5756e-06
1.63933e-06
2.17442e-06
3.5462e-06
5.46669e-06
7.47679e-06
9.11876e-06
1.04487e-05
1.17158e-05
1.2995e-05
1.4269e-05
1.85373e-05
0.000393604
3.15573e-05
3.69657e-06
3.22077e-06
6.71579e-06
1.02787e-05
1.26006e-05
1.06745e-05
5.3611e-06
2.11636e-06
1.60292e-06
1.92326e-06
2.98948e-06
4.6171e-06
6.36658e-06
7.98926e-06
9.61315e-06
1.14573e-05
1.28677e-05
1.68011e-05
0.000275942
9.30808e-06
3.97927e-06
3.86375e-06
7.09052e-06
1.04489e-05
1.26021e-05
1.0886e-05
6.83093e-06
3.23826e-06
1.9043e-06
1.76489e-06
1.93407e-06
2.63936e-06
3.98194e-06
5.71648e-06
7.55922e-06
9.61665e-06
1.12037e-05
1.50445e-05
0.000269178
9.7668e-06
4.45847e-06
4.58181e-06
7.55853e-06
1.07016e-05
1.26462e-05
1.10593e-05
7.97232e-06
4.76602e-06
2.79409e-06
1.92302e-06
1.77188e-06
1.93755e-06
2.66227e-06
4.15144e-06
5.90207e-06
7.88059e-06
9.63282e-06
1.36117e-05
0.000346696
1.27417e-05
4.98175e-06
5.4746e-06
8.20577e-06
1.10519e-05
1.27432e-05
1.12628e-05
8.90852e-06
6.33912e-06
4.06928e-06
2.48998e-06
1.94125e-06
2.0296e-06
2.49509e-06
3.31554e-06
4.52524e-06
6.22746e-06
8.00954e-06
1.21832e-05
0.000489733
2.26337e-05
5.81202e-06
6.67949e-06
9.0979e-06
1.15048e-05
1.29346e-05
1.15937e-05
9.7198e-06
7.61609e-06
5.41639e-06
3.51113e-06
2.56583e-06
2.51844e-06
2.70976e-06
3.31486e-06
4.2797e-06
5.75924e-06
7.385e-06
1.1057e-05
0.000639298
4.81143e-05
7.42711e-06
8.33185e-06
1.02474e-05
1.22007e-05
1.32705e-05
1.20503e-05
1.04534e-05
8.68336e-06
6.68985e-06
4.87507e-06
3.78555e-06
3.29187e-06
3.29824e-06
3.66768e-06
4.50293e-06
5.93236e-06
7.48981e-06
1.07979e-05
0.000792714
0.000105715
1.06511e-05
1.02269e-05
1.183e-05
1.33772e-05
1.38384e-05
1.26868e-05
1.11537e-05
9.72352e-06
8.04805e-06
6.40677e-06
5.17398e-06
4.28726e-06
4.19537e-06
4.44755e-06
5.11156e-06
6.31821e-06
7.62561e-06
1.08733e-05
0.000949111
0.000213473
1.75946e-05
1.20963e-05
1.42598e-05
1.49642e-05
1.48044e-05
1.35944e-05
1.19896e-05
1.08245e-05
9.64186e-06
8.16345e-06
6.72222e-06
5.58072e-06
5.54268e-06
5.78394e-06
6.26997e-06
6.98033e-06
7.99392e-06
1.1316e-05
0.00107864
0.000339471
2.95744e-05
1.30132e-05
1.6329e-05
1.7549e-05
1.66077e-05
1.48794e-05
1.31055e-05
1.19534e-05
1.08673e-05
9.51759e-06
8.13244e-06
6.92741e-06
6.97207e-06
7.27372e-06
7.55758e-06
7.973e-06
8.81698e-06
1.2382e-05
0.00127214
0.00058533
7.24462e-05
1.50807e-05
1.73024e-05
2.0625e-05
2.10771e-05
1.94709e-05
1.73585e-05
1.57253e-05
1.42974e-05
1.28037e-05
1.15412e-05
1.03121e-05
9.97282e-06
1.01598e-05
1.04286e-05
1.10017e-05
1.21601e-05
1.65131e-05
0.00271411
0.00196592
0.00167179
0.00125445
0.00106219
0.000926419
0.000837086
0.000763871
0.000769123
0.000598099
0.000389155
0.000292165
0.000288421
0.000371618
0.000522517
0.000681167
0.00084321
0.00100414
0.00113748
0.00132583
0.00201044
0.00259108
0.0026326
0.00257406
0.00243973
0.00255227
0.00244454
0.00191052
0.00131744
0.000153113
2.37985e-05
9.69418e-06
1.05515e-05
1.41777e-05
2.52411e-05
5.30364e-05
0.000114724
0.000227806
0.000357704
0.000602251
0.00171691
0.00265569
0.00468769
0.00506212
0.00695526
0.00691528
0.00720646
0.00495081
8.9609e-05
8.357e-06
4.20898e-06
4.62273e-06
5.30072e-06
6.15963e-06
7.41779e-06
9.59844e-06
1.36042e-05
2.1535e-05
3.44997e-05
7.88168e-05
0.00131962
0.00240845
0.00493911
0.00158039
0.00615337
0.00014491
0.0170858
0.000217638
1.24529e-06
3.17317e-06
4.00865e-06
4.87219e-06
5.84149e-06
7.04186e-06
8.63414e-06
1.08718e-05
1.34793e-05
1.60637e-05
1.72011e-05
1.91275e-05
0.00110708
0.00256737
0.00581063
1.50447e-06
3.9064e-06
7.87672e-06
8.44209e-06
8.96998e-06
9.60564e-06
1.04547e-05
1.16173e-05
1.31469e-05
1.52468e-05
1.86138e-05
2.14602e-05
2.23147e-05
0.000942978
0.00272377
0.00717797
0.00302006
1.10734e-05
1.29493e-05
1.31538e-05
1.34188e-05
1.376e-05
1.4193e-05
1.47272e-05
1.556e-05
1.70322e-05
1.91201e-05
2.25935e-05
2.65986e-05
0.000842244
0.00251436
0.00750021
0.0272448
1.55105e-05
1.64867e-05
1.63995e-05
1.63637e-05
1.63942e-05
1.64678e-05
1.66346e-05
1.69579e-05
1.75797e-05
1.87321e-05
2.10599e-05
2.67401e-05
0.000762922
0.00191224
0.00503341
0.000737823
1.66771e-05
1.34869e-05
1.37405e-05
1.39487e-05
1.41335e-05
1.43719e-05
1.47617e-05
1.52846e-05
1.60327e-05
1.71167e-05
1.87001e-05
2.43668e-05
0.000758736
0.00146459
0.000144112
1.0462e-06
3.17076e-06
9.41427e-06
1.29148e-05
1.34863e-05
2.37238e-06
4.1813e-06
6.51049e-06
8.42606e-06
9.93292e-06
1.12076e-05
1.22698e-05
1.31891e-05
1.40379e-05
1.50165e-05
1.6327e-05
2.13936e-05
0.000595723
0.000176068
1.15289e-05
2.70251e-06
6.6768e-06
1.08118e-05
1.34864e-05
1.10379e-05
3.72738e-06
1.74603e-06
2.31746e-06
3.73461e-06
5.71681e-06
7.77429e-06
9.49208e-06
1.08638e-05
1.21437e-05
1.34561e-05
1.47942e-05
1.92643e-05
0.000379999
2.82149e-05
3.78271e-06
3.40771e-06
7.11366e-06
1.09162e-05
1.33791e-05
1.12832e-05
5.58041e-06
2.20917e-06
1.67533e-06
2.01705e-06
3.11081e-06
4.7831e-06
6.59978e-06
8.28312e-06
9.96573e-06
1.18491e-05
1.3315e-05
1.74286e-05
0.000261605
8.55693e-06
4.10261e-06
4.11188e-06
7.51411e-06
1.10807e-05
1.33549e-05
1.14694e-05
7.11592e-06
3.36116e-06
1.98331e-06
1.81657e-06
1.98989e-06
2.72351e-06
4.13159e-06
5.9393e-06
7.83578e-06
9.94384e-06
1.1589e-05
1.55571e-05
0.000255434
9.00306e-06
4.58056e-06
4.89405e-06
8.0043e-06
1.13284e-05
1.33863e-05
1.16295e-05
8.33409e-06
4.94773e-06
2.88469e-06
1.97546e-06
1.84443e-06
2.03034e-06
2.78356e-06
4.29852e-06
6.11316e-06
8.16962e-06
9.97736e-06
1.40851e-05
0.00032972
1.17209e-05
5.14404e-06
5.84846e-06
8.68622e-06
1.16784e-05
1.34657e-05
1.1849e-05
9.33763e-06
6.5811e-06
4.2002e-06
2.56212e-06
2.02885e-06
2.11904e-06
2.57819e-06
3.43701e-06
4.68616e-06
6.45635e-06
8.32351e-06
1.26062e-05
0.000469654
2.08553e-05
6.01659e-06
7.12801e-06
9.63013e-06
1.21331e-05
1.36406e-05
1.22006e-05
1.01574e-05
7.91909e-06
5.59306e-06
3.63776e-06
2.65378e-06
2.59421e-06
2.80097e-06
3.44214e-06
4.45168e-06
5.99242e-06
7.67556e-06
1.14688e-05
0.00061925
4.473e-05
7.64526e-06
8.86756e-06
1.08515e-05
1.28459e-05
1.39683e-05
1.26649e-05
1.09053e-05
9.02451e-06
6.95166e-06
5.04535e-06
3.8613e-06
3.38285e-06
3.40545e-06
3.80523e-06
4.68953e-06
6.15551e-06
7.77516e-06
1.12591e-05
0.000772616
9.88198e-05
1.08039e-05
1.07813e-05
1.25285e-05
1.40586e-05
1.4525e-05
1.32954e-05
1.16407e-05
1.01292e-05
8.36724e-06
6.60239e-06
5.28862e-06
4.40326e-06
4.34469e-06
4.60956e-06
5.2911e-06
6.5223e-06
7.90976e-06
1.13329e-05
0.000929164
0.000201693
1.73805e-05
1.26648e-05
1.51081e-05
1.57394e-05
1.55094e-05
1.42063e-05
1.25089e-05
1.12701e-05
9.98135e-06
8.43382e-06
6.92525e-06
5.74653e-06
5.71192e-06
5.94016e-06
6.42885e-06
7.19885e-06
8.28528e-06
1.18047e-05
0.00106001
0.000324307
2.86932e-05
1.34882e-05
1.70457e-05
1.84201e-05
1.73974e-05
1.55163e-05
1.36511e-05
1.24136e-05
1.12528e-05
9.85574e-06
8.4048e-06
7.12265e-06
7.14523e-06
7.43176e-06
7.74315e-06
8.22105e-06
9.1557e-06
1.29285e-05
0.00125728
0.000567546
6.8706e-05
1.52786e-05
1.77785e-05
2.13506e-05
2.19132e-05
2.0176e-05
1.79863e-05
1.6244e-05
1.47996e-05
1.32665e-05
1.19382e-05
1.05956e-05
1.02218e-05
1.04293e-05
1.07404e-05
1.13987e-05
1.26393e-05
1.71765e-05
0.00480858
0.00572129
0.00463544
0.00324042
0.00263628
0.00234323
0.00212479
0.00193363
0.00190848
0.00146634
0.000971672
0.000705689
0.000721487
0.00080551
0.000941158
0.00109306
0.00125127
0.0013887
0.00150512
0.00159089
0.00573724
0.0128058
0.0152535
0.0105348
0.00829313
0.00782718
0.00694728
0.00549646
0.00345798
0.000392051
7.12828e-05
2.83811e-05
3.1565e-05
4.45561e-05
7.98954e-05
0.00015567
0.000290819
0.000473647
0.000650089
0.000903069
0.00469962
0.0149293
0.014443
0.00884486
0.00982513
0.0093511
0.00950396
0.00659532
0.000136604
1.50646e-05
4.51307e-06
4.91744e-06
5.77293e-06
7.23831e-06
1.02188e-05
1.70967e-05
3.20937e-05
6.19803e-05
0.00010587
0.000223732
0.00334135
0.0110276
0.00909514
0.0010825
0.00566721
2.26701e-10
0.0187994
0.000173244
1.22852e-06
2.90082e-06
3.65606e-06
4.50559e-06
5.47165e-06
6.66911e-06
8.28895e-06
1.06282e-05
1.39144e-05
1.8715e-05
2.49232e-05
4.36011e-05
0.00268967
0.00943648
0.00879825
1.31636e-06
3.78969e-06
7.27427e-06
7.70953e-06
8.15e-06
8.72846e-06
9.5312e-06
1.06533e-05
1.22216e-05
1.453e-05
1.82024e-05
2.15646e-05
2.58464e-05
0.0022969
0.00852293
0.0101432
0.00679271
1.09435e-05
1.20795e-05
1.22023e-05
1.2378e-05
1.26243e-05
1.29892e-05
1.35107e-05
1.43675e-05
1.58148e-05
1.80674e-05
2.16743e-05
2.65468e-05
0.00203874
0.00715909
0.0098201
0.0309569
1.54041e-05
1.54962e-05
1.53206e-05
1.51908e-05
1.5197e-05
1.5245e-05
1.53931e-05
1.57153e-05
1.63462e-05
1.75832e-05
2.00878e-05
2.6157e-05
0.00183458
0.00548925
0.00665608
0.000192979
1.65808e-05
1.27905e-05
1.2948e-05
1.30764e-05
1.3208e-05
1.34022e-05
1.37621e-05
1.42854e-05
1.50159e-05
1.61047e-05
1.77951e-05
2.39116e-05
0.00179175
0.00357407
0.000171268
1.07834e-06
3.21891e-06
8.94944e-06
1.24753e-05
1.32151e-05
2.36358e-06
4.09412e-06
6.27705e-06
8.03164e-06
9.43904e-06
1.05742e-05
1.15078e-05
1.23368e-05
1.31362e-05
1.41523e-05
1.55564e-05
2.10408e-05
0.00138419
0.000417726
1.79179e-05
2.41432e-06
5.92968e-06
9.81964e-06
1.24948e-05
1.0302e-05
3.48045e-06
1.6941e-06
2.27352e-06
3.70749e-06
5.57639e-06
7.43205e-06
8.93075e-06
1.01654e-05
1.14372e-05
1.27518e-05
1.40889e-05
1.87863e-05
0.000897667
7.49606e-05
3.96865e-06
3.04582e-06
6.30737e-06
9.89755e-06
1.23834e-05
1.05145e-05
5.21316e-06
2.12171e-06
1.68827e-06
1.98019e-06
2.97595e-06
4.52554e-06
6.19141e-06
7.91726e-06
9.56133e-06
1.1282e-05
1.26622e-05
1.68987e-05
0.000599358
2.18933e-05