/*--------------------------------*- C++ -*----------------------------------*\
  =========                 |
  \\      /  F ield         | OpenFOAM: The Open Source CFD Toolbox
   \\    /   O peration     | Website:  https://openfoam.org
    \\  /    A nd           | Version:  9
     \\/     M anipulation  |
\*---------------------------------------------------------------------------*/
FoamFile
{
    format      ascii;
    class       volScalarField;
    location    "0.006";
    object      rhoE;
}
// * * * * * * * * * * * * * * * * * * * * * * * * * * * * * * * * * * * * * //

dimensions      [1 -1 -2 0 0 0 0];

internalField   nonuniform List<scalar> 
9720
(
1.84643e+07
1.7344e+07
1.72554e+07
1.46586e+07
1.35919e+07
1.28074e+07
1.2254e+07
1.10944e+07
9.56344e+06
8.01306e+06
6.73896e+06
5.92887e+06
5.63186e+06
5.75675e+06
5.91029e+06
6.22078e+06
6.59499e+06
7.04521e+06
7.4739e+06
8.11705e+06
1.73313e+07
1.62201e+07
1.58883e+07
1.1247e+07
1.15011e+07
1.21354e+07
1.198e+07
1.06124e+07
8.02115e+06
5.63342e+06
4.37871e+06
3.9996e+06
4.23853e+06
4.57017e+06
5.00123e+06
5.50162e+06
6.00974e+06
6.5011e+06
6.98461e+06
7.57276e+06
1.71365e+07
1.61743e+07
1.07483e+07
8.55022e+06
1.06269e+07
1.21487e+07
1.2181e+07
1.04364e+07
6.57973e+06
3.77087e+06
3.21099e+06
3.45601e+06
3.86442e+06
4.49968e+06
5.25267e+06
6.04163e+06
6.72994e+06
7.20002e+06
7.61865e+06
7.9774e+06
1.455e+07
1.11281e+07
8.46904e+06
7.25155e+06
8.77342e+06
1.21686e+07
1.27208e+07
1.13538e+07
6.32494e+06
2.55438e+06
3.01189e+06
3.51966e+06
4.09498e+06
4.70316e+06
5.49304e+06
6.47272e+06
7.38282e+06
8.12006e+06
8.5746e+06
8.65925e+06
1.33285e+07
1.11301e+07
1.02429e+07
8.54581e+06
2.15557e+06
3.86614e+06
4.18134e+06
4.44932e+06
4.72671e+06
5.02466e+06
5.415e+06
6.03428e+06
7.05383e+06
8.2838e+06
9.19759e+06
9.53834e+06
1.24418e+07
1.17071e+07
1.17538e+07
1.17706e+07
4.94935e+06
5.05548e+06
5.01213e+06
5.01438e+06
5.05559e+06
5.1501e+06
5.31286e+06
5.63427e+06
6.25153e+06
7.26315e+06
8.56494e+06
9.67405e+06
1.18892e+07
1.15865e+07
1.1773e+07
1.23375e+07
5.35745e+06
5.17051e+06
5.13161e+06
5.10689e+06
5.08387e+06
5.11548e+06
5.17394e+06
5.28859e+06
5.55952e+06
6.14218e+06
7.18558e+06
8.91983e+06
1.07722e+07
1.02548e+07
1.00431e+07
1.09646e+07
4.72994e+06
3.8489e+06
4.06511e+06
4.18887e+06
4.30536e+06
4.40156e+06
4.52581e+06
4.69621e+06
4.91438e+06
5.26936e+06
5.93255e+06
7.71483e+06
9.25937e+06
7.68391e+06
6.20791e+06
5.76214e+06
2.2039e+06
4.65362e+06
5.03426e+06
4.38075e+06
746653
1.20304e+06
1.84245e+06
2.43317e+06
2.87439e+06
3.2807e+06
3.58008e+06
3.81384e+06
4.10132e+06
4.40917e+06
4.83164e+06
6.2265e+06
7.74735e+06
5.39468e+06
3.60076e+06
2.49867e+06
3.64856e+06
4.74595e+06
4.82437e+06
3.61041e+06
1.29948e+06
505345
712832
1.14797e+06
1.64666e+06
2.10345e+06
2.54655e+06
2.91396e+06
3.26073e+06
3.65375e+06
4.01774e+06
5.14299e+06
6.50689e+06
4.22544e+06
3.16181e+06
2.95003e+06
3.96071e+06
4.68784e+06
4.79164e+06
3.83283e+06
1.89635e+06
759329
524080
629170
868606
1.22939e+06
1.67671e+06
2.13693e+06
2.52508e+06
2.88576e+06
3.26235e+06
4.17493e+06
5.73681e+06
3.89868e+06
3.41658e+06
3.45897e+06
4.23309e+06
4.69296e+06
4.76428e+06
3.94568e+06
2.46705e+06
1.19059e+06
646457
565329
621512
796186
1.11985e+06
1.52409e+06
1.91913e+06
2.27913e+06
2.64315e+06
3.43785e+06
5.48838e+06
4.14985e+06
3.81758e+06
4.01841e+06
4.52008e+06
4.73693e+06
4.78043e+06
4.06456e+06
2.87977e+06
1.71584e+06
909038
618952
667170
750537
889150
1.12471e+06
1.44311e+06
1.79845e+06
2.15465e+06
2.86725e+06
5.62966e+06
4.49142e+06
4.42941e+06
4.60663e+06
4.82558e+06
4.84086e+06
4.82605e+06
4.16006e+06
3.25666e+06
2.17776e+06
1.3001e+06
810218
737118
770337
824328
917722
1.13478e+06
1.45515e+06
1.77498e+06
2.41874e+06
5.81504e+06
4.93179e+06
5.16938e+06
5.35405e+06
5.21415e+06
5.01132e+06
4.90505e+06
4.29034e+06
3.52836e+06
2.62314e+06
1.76446e+06
1.16297e+06
887358
812572
843558
905348
1.04549e+06
1.27443e+06
1.54439e+06
2.09487e+06
6.13995e+06
5.45206e+06
5.95315e+06
6.29132e+06
5.80583e+06
5.33437e+06
5.04637e+06
4.46816e+06
3.74004e+06
2.98087e+06
2.23818e+06
1.59838e+06
1.16131e+06
932934
898917
944250
1.04738e+06
1.18684e+06
1.36686e+06
1.81285e+06
6.51419e+06
5.95536e+06
6.64799e+06
7.18528e+06
6.74942e+06
5.93587e+06
5.3428e+06
4.69751e+06
4.01747e+06
3.30881e+06
2.62815e+06
2.01197e+06
1.50737e+06
1.18044e+06
1.05067e+06
1.05096e+06
1.09764e+06
1.18771e+06
1.30899e+06
1.65595e+06
6.94961e+06
6.43591e+06
7.11887e+06
7.92962e+06
7.93229e+06
6.91313e+06
5.92376e+06
5.06195e+06
4.32294e+06
3.68547e+06
2.98097e+06
2.37633e+06
1.87891e+06
1.51889e+06
1.3123e+06
1.21434e+06
1.20226e+06
1.2292e+06
1.32652e+06
1.65969e+06
7.35924e+06
6.90596e+06
7.52301e+06
8.38756e+06
8.82821e+06
8.15052e+06
6.9396e+06
5.71984e+06
4.75304e+06
4.04661e+06
3.35151e+06
2.74015e+06
2.24679e+06
1.85199e+06
1.60778e+06
1.4242e+06
1.33755e+06
1.35127e+06
1.39979e+06
1.66393e+06
7.95678e+06
7.45597e+06
7.85505e+06
8.48299e+06
9.23451e+06
9.28103e+06
8.59319e+06
7.44663e+06
6.12411e+06
5.15446e+06
4.24975e+06
3.5337e+06
2.97625e+06
2.51968e+06
2.18739e+06
1.90341e+06
1.7168e+06
1.71538e+06
1.70867e+06
1.8673e+06
1.80514e+07
1.69265e+07
1.65031e+07
1.38789e+07
1.29061e+07
1.23495e+07
1.18616e+07
1.07606e+07
9.24455e+06
7.6941e+06
6.45336e+06
5.64027e+06
5.30214e+06
5.42067e+06
5.58946e+06
5.89088e+06
6.24869e+06
6.68437e+06
7.11315e+06
7.75252e+06
1.69905e+07
1.58953e+07
1.44472e+07
1.05868e+07
1.10919e+07
1.18196e+07
1.16967e+07
1.03935e+07
7.79896e+06
5.39448e+06
4.18417e+06
3.7705e+06
3.97417e+06
4.28429e+06
4.69112e+06
5.17992e+06
5.67476e+06
6.15949e+06
6.64651e+06
7.242e+06
1.65441e+07
1.49683e+07
9.83925e+06
8.12973e+06
1.04923e+07
1.19984e+07
1.19885e+07
1.02754e+07
6.40359e+06
3.56149e+06
3.02124e+06
3.25627e+06
3.62984e+06
4.2077e+06
4.90213e+06
5.64738e+06
6.34183e+06
6.84123e+06
7.30015e+06
7.65923e+06
1.38792e+07
1.05184e+07
8.02817e+06
6.86021e+06
9.02432e+06
1.19321e+07
1.25361e+07
1.11756e+07
6.24618e+06
2.42814e+06
2.85816e+06
3.31943e+06
3.84802e+06
4.4034e+06
5.13319e+06
6.05362e+06
6.94741e+06
7.65112e+06
8.21101e+06
8.32366e+06
1.27169e+07
1.07196e+07
9.96249e+06
8.23226e+06
2.22304e+06
3.75209e+06
4.01282e+06
4.22834e+06
4.45859e+06
4.71551e+06
5.06004e+06
5.61827e+06
6.53406e+06
7.73378e+06
8.59973e+06
9.15815e+06
1.19797e+07
1.13657e+07
1.15717e+07
1.15723e+07
4.83992e+06
4.91727e+06
4.83593e+06
4.77284e+06
4.78163e+06
4.8402e+06
4.96715e+06
5.23818e+06
5.76591e+06
6.67213e+06
7.87838e+06
9.1291e+06
1.15014e+07
1.13042e+07
1.16052e+07
1.21818e+07
5.252e+06
5.03494e+06
4.95251e+06
4.8931e+06
4.82327e+06
4.82941e+06
4.86078e+06
4.94915e+06
5.17001e+06
5.65342e+06
6.5753e+06
8.28521e+06
1.04289e+07
1.00679e+07
9.94165e+06
1.08429e+07
4.6197e+06
3.74079e+06
3.91887e+06
3.99704e+06
4.06155e+06
4.13553e+06
4.23126e+06
4.38071e+06
4.57054e+06
4.86615e+06
5.4154e+06
7.03558e+06
8.94312e+06
7.51514e+06
6.11127e+06
5.77631e+06
2.21125e+06
4.56446e+06
4.95634e+06
4.30059e+06
709061
1.11307e+06
1.73086e+06
2.28356e+06
2.70532e+06
3.05819e+06
3.32619e+06
3.52467e+06
3.77925e+06
4.06693e+06
4.43455e+06
5.66369e+06
7.42365e+06
5.17623e+06
3.42467e+06
2.39144e+06
3.59236e+06
4.68096e+06
4.76603e+06
3.54979e+06
1.22781e+06
452064
621741
1.04044e+06
1.51944e+06
1.93755e+06
2.31912e+06
2.66325e+06
2.99162e+06
3.35603e+06
3.69079e+06
4.6656e+06
6.22428e+06
4.01177e+06
2.93095e+06
2.80965e+06
3.84731e+06
4.58408e+06
4.68597e+06
3.72876e+06
1.7905e+06
677427
457659
555703
782200
1.10294e+06
1.50727e+06
1.94297e+06
2.31282e+06
2.63143e+06
2.97003e+06
3.7858e+06
5.45628e+06
3.65025e+06
3.17133e+06
3.25801e+06
4.05732e+06
4.52303e+06
4.62738e+06
3.80412e+06
2.31916e+06
1.09306e+06
575049
476668
514768
679556
988512
1.34548e+06
1.70094e+06
2.04068e+06
2.3856e+06
3.12388e+06
5.17561e+06
3.871e+06
3.54377e+06
3.76485e+06
4.28096e+06
4.52859e+06
4.58039e+06
3.87889e+06
2.71292e+06
1.57881e+06
814224
519955
548016
626465
754531
951035
1.25095e+06
1.59668e+06
1.94646e+06
2.60642e+06
5.29941e+06
4.19108e+06
4.11296e+06
4.28953e+06
4.52896e+06
4.58728e+06
4.59381e+06
3.9565e+06
3.05003e+06
1.998e+06
1.16219e+06
698908
621159
651790
695276
787571
990248
1.29619e+06
1.60146e+06
2.17944e+06
5.48493e+06
4.61397e+06
4.81909e+06
4.96637e+06
4.85506e+06
4.70908e+06
4.63674e+06
4.04711e+06
3.30223e+06
2.39558e+06
1.59107e+06
1.03241e+06
760036
686984
712882
769363
900369
1.11737e+06
1.35293e+06
1.86922e+06
5.79311e+06
5.11644e+06
5.56693e+06
5.85597e+06
5.37525e+06
4.96877e+06
4.73927e+06
4.18845e+06
3.48956e+06
2.75094e+06
2.0516e+06
1.42386e+06
992757
803205
765779
816682
915589
1.03745e+06
1.18851e+06
1.62111e+06
6.14138e+06
5.58903e+06
6.22659e+06
6.75016e+06
6.23951e+06
5.4724e+06
4.96785e+06
4.37681e+06
3.73839e+06
3.07388e+06
2.43006e+06
1.81203e+06
1.32618e+06
1.03732e+06
908672
921096
955346
1.02299e+06
1.14682e+06
1.49112e+06
6.54648e+06
6.04355e+06
6.70425e+06
7.45285e+06
7.41419e+06
6.36778e+06
5.44568e+06
4.67319e+06
4.01756e+06
3.42477e+06
2.74964e+06
2.16469e+06
1.6897e+06
1.36589e+06
1.15786e+06
1.05372e+06
1.03842e+06
1.06754e+06
1.17109e+06
1.49548e+06
6.9412e+06
6.5024e+06
7.13239e+06
7.99578e+06
8.26545e+06
7.51521e+06
6.34644e+06
5.22554e+06
4.38508e+06
3.74616e+06
3.0857e+06
2.50828e+06
2.04951e+06
1.68067e+06
1.41301e+06
1.23268e+06
1.1729e+06
1.19359e+06
1.25347e+06
1.49534e+06
7.52643e+06
7.05283e+06
7.45549e+06
8.11037e+06
8.84972e+06
8.76508e+06
7.97935e+06
6.81262e+06
5.59567e+06
4.70298e+06
3.87959e+06
3.23264e+06
2.71633e+06
2.2735e+06
1.95066e+06
1.6971e+06
1.54574e+06
1.5391e+06
1.53294e+06
1.66166e+06
1.82588e+07
1.7272e+07
1.68211e+07
1.3725e+07
1.26687e+07
1.22708e+07
1.1838e+07
1.07527e+07
9.24157e+06
7.63853e+06
6.39228e+06
5.57366e+06
5.19701e+06
5.31257e+06
5.48105e+06
5.78054e+06
6.13929e+06
6.57446e+06
6.99703e+06
7.63074e+06
1.7292e+07
1.65171e+07
1.33315e+07
1.02457e+07
1.09674e+07
1.18033e+07
1.16729e+07
1.03713e+07
7.79087e+06
5.33678e+06
4.13647e+06
3.7166e+06
3.91208e+06
4.22293e+06
4.58932e+06
5.05526e+06
5.55514e+06
6.04669e+06
6.53087e+06
7.13126e+06
1.66491e+07
1.38609e+07
9.15184e+06
7.87064e+06
1.0383e+07
1.19415e+07
1.1949e+07
1.02188e+07
6.33061e+06
3.48044e+06
2.96051e+06
3.22208e+06
3.60977e+06
4.161e+06
4.81406e+06
5.52398e+06
6.20136e+06
6.7575e+06
7.22762e+06
7.57755e+06
1.35402e+07
1.00339e+07
7.65939e+06
6.58272e+06
9.01776e+06
1.18152e+07
1.24515e+07
1.10884e+07
6.00394e+06
2.37163e+06
2.81516e+06
3.29394e+06
3.84934e+06
4.42551e+06
5.17366e+06
6.10946e+06
7.05203e+06
7.75775e+06
8.29378e+06
8.3686e+06
1.23904e+07
1.05028e+07
9.84644e+06
8.15833e+06
1.998e+06
3.70617e+06
3.96878e+06
4.18538e+06
4.42509e+06
4.71317e+06
5.0853e+06
5.64167e+06
6.54807e+06
7.82762e+06
8.79217e+06
9.36327e+06
1.1852e+07
1.13334e+07
1.15149e+07
1.14814e+07
4.68074e+06
4.91442e+06
4.83406e+06
4.78875e+06
4.81029e+06
4.87886e+06
5.00792e+06
5.26839e+06
5.75273e+06
6.60532e+06
7.92245e+06
9.38054e+06
1.14581e+07
1.1313e+07
1.15919e+07
1.2081e+07
5.12782e+06
5.05721e+06
4.98139e+06
4.93168e+06
4.88451e+06
4.90029e+06
4.94294e+06
5.0354e+06
5.22789e+06
5.63535e+06
6.50481e+06
8.386e+06
1.0394e+07
1.00668e+07
9.94516e+06
1.07585e+07
4.50752e+06
3.74189e+06
3.92731e+06
4.02012e+06
4.08324e+06
4.18125e+06
4.28754e+06
4.44671e+06
4.63623e+06
4.89391e+06
5.36181e+06
6.95099e+06
8.92702e+06
7.56795e+06
6.20511e+06
5.8558e+06
1.94739e+06
4.51019e+06
4.88937e+06
4.26578e+06
654496
1.08257e+06
1.71617e+06
2.26274e+06
2.70414e+06
3.04062e+06
3.35224e+06
3.58892e+06
3.83921e+06
4.11829e+06
4.43786e+06
5.58931e+06
7.34629e+06
5.12052e+06
3.35197e+06
2.25657e+06
3.52899e+06
4.68177e+06
4.76824e+06
3.50935e+06
1.11147e+06
418926
569053
970319
1.46136e+06
1.91785e+06
2.3192e+06
2.68745e+06
3.02463e+06
3.38451e+06
3.7061e+06
4.58718e+06
6.12624e+06
3.90644e+06
2.78856e+06
2.66318e+06
3.78729e+06
4.60438e+06
4.70488e+06
3.70071e+06
1.69663e+06
624642
396024
487574
746456
1.08103e+06
1.47519e+06
1.90915e+06
2.30604e+06
2.66587e+06
2.98049e+06
3.71519e+06
5.35765e+06
3.55375e+06
3.05259e+06
3.11565e+06
3.99455e+06
4.5574e+06
4.66332e+06
3.80722e+06
2.23599e+06
1.01289e+06
512801
407648
447771
599643
901457
1.2745e+06
1.68291e+06
2.03516e+06
2.35297e+06
3.03868e+06
5.05206e+06
3.76204e+06
3.43891e+06
3.64438e+06
4.21689e+06
4.57527e+06
4.63609e+06
3.88555e+06
2.65418e+06
1.49195e+06
771634
459647
456884
514003
654894
887793
1.19762e+06
1.53454e+06
1.87827e+06
2.53084e+06
5.17412e+06
4.09323e+06
4.00515e+06
4.18344e+06
4.48076e+06
4.63989e+06
4.66109e+06
3.98665e+06
2.98351e+06
1.93289e+06
1.11481e+06
622244
517409
553219
616462
708017
904472
1.1956e+06
1.51602e+06
2.11255e+06
5.35861e+06
4.48961e+06
4.70935e+06
4.88032e+06
4.82278e+06
4.75917e+06
4.71383e+06
4.07893e+06
3.28276e+06
2.33231e+06
1.52409e+06
942932
673291
611458
643392
691282
808356
1.02463e+06
1.2789e+06
1.80645e+06
5.66661e+06
4.99961e+06
5.48339e+06
5.80713e+06
5.33445e+06
4.99586e+06
4.8128e+06
4.21557e+06
3.50491e+06
2.713e+06
1.97625e+06
1.33381e+06
922602
721574
686409
731436
827464
973577
1.12852e+06
1.55612e+06
6.02924e+06
5.504e+06
6.16864e+06
6.83548e+06
6.19181e+06
5.45404e+06
5.00391e+06
4.39477e+06
3.74815e+06
3.05238e+06
2.38158e+06
1.7601e+06
1.25976e+06
946977
816768
829442
882014
968080
1.07762e+06
1.40451e+06
6.44819e+06
5.98277e+06
6.73316e+06
7.61641e+06
7.49657e+06
6.29633e+06
5.40384e+06
4.65346e+06
4.02202e+06
3.40528e+06
2.73886e+06
2.13273e+06
1.6197e+06
1.26032e+06
1.06159e+06
983112
980053
1.00414e+06
1.09647e+06
1.41035e+06
6.84442e+06
6.44693e+06
7.18296e+06
8.17404e+06
8.5293e+06
7.59364e+06
6.25967e+06
5.1304e+06
4.3489e+06
3.7266e+06
3.06543e+06
2.46573e+06
1.98161e+06
1.59377e+06
1.33796e+06
1.17087e+06
1.09783e+06
1.11243e+06
1.16933e+06
1.42117e+06
7.41709e+06
6.98562e+06
7.46838e+06
8.23971e+06
9.14413e+06
9.06946e+06
8.08946e+06
6.71981e+06
5.50169e+06
4.60874e+06
3.80528e+06
3.15945e+06
2.65478e+06
2.2173e+06
1.89493e+06
1.6359e+06
1.44988e+06
1.44481e+06
1.45421e+06
1.60498e+06
1.84434e+07
1.74235e+07
1.69287e+07
1.35144e+07
1.25043e+07
1.22617e+07
1.1877e+07
1.0787e+07
9.23891e+06
7.59385e+06
6.33994e+06
5.5379e+06
5.17028e+06
5.29512e+06
5.47578e+06
5.77777e+06
6.14155e+06
6.57688e+06
7.0053e+06
7.6069e+06
1.73644e+07
1.68827e+07
1.24028e+07
9.87987e+06
1.0866e+07
1.18341e+07
1.17466e+07
1.04041e+07
7.77697e+06
5.26235e+06
4.05509e+06
3.6569e+06
3.8586e+06
4.20743e+06
4.59556e+06
5.05798e+06
5.56586e+06
6.05826e+06
6.54639e+06
7.12261e+06
1.6847e+07
1.27531e+07
8.65895e+06
7.62871e+06
1.02554e+07
1.19247e+07
1.19975e+07
1.02431e+07
6.29779e+06
3.39598e+06
2.86055e+06
3.1385e+06
3.56807e+06
4.16505e+06
4.85033e+06
5.58897e+06
6.25215e+06
6.83373e+06
7.30397e+06
7.61039e+06
1.32373e+07
9.5885e+06
7.443e+06
6.43723e+06
8.78051e+06
1.17375e+07
1.24593e+07
1.10677e+07
5.71555e+06
2.3228e+06
2.76232e+06
3.2475e+06
3.83057e+06
4.43414e+06
5.21034e+06
6.20908e+06
7.25508e+06
8.02724e+06
8.4745e+06
8.50471e+06
1.21446e+07
1.04319e+07
9.86752e+06
8.43955e+06
2.43306e+06
3.81653e+06
4.07505e+06
4.27393e+06
4.48686e+06
4.75185e+06
5.10612e+06
5.63286e+06
6.54019e+06
7.88443e+06
9.09752e+06
9.66573e+06
1.18038e+07
1.139e+07
1.15752e+07
1.14596e+07
4.89355e+06
5.08213e+06
4.99058e+06
4.91018e+06
4.90956e+06
4.95196e+06
5.05044e+06
5.27292e+06
5.72124e+06
6.48794e+06
7.8884e+06
9.65845e+06
1.14741e+07
1.13573e+07
1.16343e+07
1.20616e+07
5.35788e+06
5.21762e+06
5.13015e+06
5.06467e+06
5.00862e+06
4.98347e+06
5.0091e+06
5.07287e+06
5.22362e+06
5.54395e+06
6.31779e+06
8.34183e+06
1.04236e+07
1.00982e+07
9.97014e+06
1.0746e+07
4.69064e+06
3.80071e+06
3.9827e+06
4.09511e+06
4.14713e+06
4.23104e+06
4.32183e+06
4.44376e+06
4.61546e+06
4.83096e+06
5.21613e+06
6.73397e+06
8.95385e+06
7.59092e+06
6.18813e+06
5.69602e+06
2.17122e+06
4.64656e+06
5.03508e+06
4.37026e+06
622749
1.017e+06
1.66487e+06
2.23667e+06
2.69905e+06
3.02461e+06
3.34874e+06
3.61184e+06
3.85757e+06
4.11209e+06
4.37831e+06
5.42035e+06
7.34514e+06
5.1292e+06
3.32913e+06
2.25089e+06
3.68152e+06
4.88931e+06
4.96576e+06
3.62125e+06
1.12499e+06
389931
535490
904225
1.3852e+06
1.87519e+06
2.32055e+06
2.72608e+06
3.05088e+06
3.37768e+06
3.69998e+06
4.48413e+06
6.10337e+06
3.88714e+06
2.74076e+06
2.66509e+06
3.94645e+06
4.80937e+06
4.90105e+06
3.8175e+06
1.71949e+06
607306
362645
436875
692791
1.07143e+06
1.47726e+06
1.88556e+06
2.27145e+06
2.65471e+06
2.99143e+06
3.67959e+06
5.33669e+06
3.51423e+06
3.0129e+06
3.13508e+06
4.14894e+06
4.74669e+06
4.85914e+06
3.9423e+06
2.26457e+06
979982
465720
357562
418465
574929
856867
1.20238e+06
1.613e+06
2.02898e+06
2.36959e+06
3.00863e+06
4.97598e+06
3.7017e+06
3.41301e+06
3.69088e+06
4.3629e+06
4.7555e+06
4.82632e+06
4.01066e+06
2.69004e+06
1.45317e+06
740091
434873
403759
439871
566535
805029
1.14915e+06
1.52247e+06
1.87332e+06
2.50453e+06
5.10104e+06
4.04967e+06
3.9889e+06
4.25281e+06
4.62326e+06
4.81165e+06
4.83885e+06
4.10644e+06
3.00277e+06
1.91635e+06
1.11798e+06
602102
445819
462186
529085
628925
835969
1.13257e+06
1.44602e+06
2.05676e+06
5.28336e+06
4.44062e+06
4.67641e+06
4.97607e+06
4.96035e+06
4.9207e+06
4.87634e+06
4.19181e+06
3.31136e+06
2.34298e+06
1.52234e+06
892185
588194
531078
576669
645801
754991
947912
1.19938e+06
1.75429e+06
5.57747e+06
4.90553e+06
5.43676e+06
5.92771e+06
5.45184e+06
5.13863e+06
4.95541e+06
4.30694e+06
3.56336e+06
2.7407e+06
1.93585e+06
1.24961e+06
847104
651826
642406
681509
761976
895650
1.0687e+06
1.51562e+06
5.93382e+06
5.40915e+06
6.10074e+06
6.97715e+06
6.2849e+06
5.56788e+06
5.11467e+06
4.4822e+06
3.80847e+06
3.06558e+06
2.32684e+06
1.68016e+06
1.21258e+06
881481
760973
763242
812204
904668
1.02396e+06
1.35581e+06
6.35658e+06
5.89611e+06
6.71223e+06
7.83076e+06
7.56871e+06
6.30312e+06
5.43812e+06
4.70648e+06
4.0616e+06
3.40003e+06
2.72139e+06
2.11427e+06
1.60365e+06
1.19177e+06
976913
904597
912935
958556
1.0553e+06
1.36554e+06
6.77025e+06
6.37725e+06
7.19969e+06
8.34052e+06
8.84582e+06
7.65004e+06
6.19527e+06
5.10062e+06
4.3416e+06
3.73388e+06
3.0696e+06
2.46674e+06
1.96426e+06
1.51823e+06
1.25342e+06
1.10611e+06
1.03574e+06
1.06032e+06
1.1147e+06
1.37262e+06
7.3414e+06
6.93017e+06
7.47452e+06
8.37924e+06
9.49501e+06
9.43335e+06
8.16279e+06
6.61684e+06
5.40378e+06
4.54174e+06
3.77199e+06
3.11721e+06
2.61819e+06
2.15765e+06
1.83985e+06
1.59177e+06
1.39112e+06
1.38537e+06
1.39341e+06
1.56235e+06
1.85911e+07
1.75178e+07
1.69533e+07
1.33427e+07
1.24064e+07
1.22583e+07
1.18896e+07
1.08027e+07
9.21722e+06
7.54093e+06
6.27422e+06
5.52207e+06
5.15604e+06
5.28005e+06
5.47101e+06
5.7911e+06
6.1692e+06
6.60477e+06
7.03405e+06
7.64097e+06
1.74167e+07
1.71175e+07
1.19653e+07
9.67223e+06
1.09333e+07
1.19196e+07
1.18319e+07
1.04727e+07
7.77194e+06
5.21809e+06
3.97045e+06
3.61502e+06
3.82431e+06
4.19058e+06
4.60346e+06
5.08455e+06
5.60609e+06
6.1025e+06
6.58753e+06
7.16164e+06
1.6958e+07
1.22456e+07
8.4583e+06
7.54145e+06
1.04178e+07
1.20446e+07
1.20738e+07
1.03257e+07
6.28223e+06
3.34458e+06
2.78592e+06
3.06774e+06
3.51443e+06
4.1461e+06
4.86727e+06
5.64869e+06
6.31204e+06
6.92373e+06
7.39107e+06
7.67001e+06
1.30772e+07
9.40073e+06
7.35779e+06
6.36649e+06
8.88427e+06
1.18419e+07
1.25434e+07
1.11765e+07
5.808e+06
2.29491e+06
2.73152e+06
3.22347e+06
3.81517e+06
4.4231e+06
5.20762e+06
6.2465e+06
7.34908e+06
8.21677e+06
8.64426e+06
8.64538e+06
1.20818e+07
1.04404e+07
9.86405e+06
8.45312e+06
2.32529e+06
3.80397e+06
4.09076e+06
4.30537e+06
4.52218e+06
4.78735e+06
5.13534e+06
5.64303e+06
6.54043e+06
7.9077e+06
9.26995e+06
9.89447e+06
1.18105e+07
1.14279e+07
1.16156e+07
1.14923e+07
4.92987e+06
5.04322e+06
4.97763e+06
4.92194e+06
4.92429e+06
4.97136e+06
5.07157e+06
5.27858e+06
5.71948e+06
6.43625e+06
7.80006e+06
9.76319e+06
1.15314e+07
1.14263e+07
1.1706e+07
1.21596e+07
5.36001e+06
5.17664e+06
5.11899e+06
5.07614e+06
5.04616e+06
5.02602e+06
5.04664e+06
5.10278e+06
5.23827e+06
5.51647e+06
6.20348e+06
8.20877e+06
1.04699e+07
1.01585e+07
1.00318e+07
1.08264e+07
4.70119e+06
3.7413e+06
3.94614e+06
4.07503e+06
4.14609e+06
4.24512e+06
4.3415e+06
4.44677e+06
4.61076e+06
4.81473e+06
5.15148e+06
6.55616e+06
8.98e+06
7.59604e+06
6.15248e+06
5.66474e+06
2.14409e+06
4.89667e+06
5.28113e+06
4.53366e+06
604068
974799
1.60837e+06
2.21009e+06
2.69109e+06
3.01394e+06
3.32547e+06
3.60016e+06
3.85667e+06
4.12423e+06
4.36775e+06
5.29947e+06
7.36607e+06
5.13084e+06
3.31301e+06
2.28946e+06
3.82864e+06
5.0628e+06
5.11792e+06
3.68841e+06
1.14596e+06
372629
525560
865539
1.3326e+06
1.83979e+06
2.29956e+06
2.74051e+06
3.07244e+06
3.37843e+06
3.69796e+06
4.41424e+06
6.11469e+06
3.89775e+06
2.74691e+06
2.72066e+06
4.10425e+06
4.9801e+06
5.05438e+06
3.89332e+06
1.73121e+06
602946
347574
414593
672115
1.06892e+06
1.48351e+06
1.86256e+06
2.24223e+06
2.64032e+06
2.99842e+06
3.65896e+06
5.34093e+06
3.50987e+06
3.02538e+06
3.20268e+06
4.30571e+06
4.90414e+06
5.003e+06
4.03093e+06
2.29321e+06
970254
450170
351494
424062
584540
835460
1.15684e+06
1.57013e+06
2.01811e+06
2.39961e+06
3.01647e+06
4.95281e+06
3.69492e+06
3.43813e+06
3.76622e+06
4.51212e+06
4.9019e+06
4.96923e+06
4.10197e+06
2.73494e+06
1.44272e+06
734605
441475
380969
406296
523974
779598
1.1433e+06
1.54424e+06
1.89535e+06
2.50548e+06
5.07657e+06
4.04918e+06
4.02041e+06
4.33582e+06
4.75664e+06
4.94423e+06
4.9737e+06
4.20592e+06
3.0496e+06
1.92362e+06
1.13332e+06
617796
415922
418764
489090
602610
824830
1.12287e+06
1.42096e+06
2.03241e+06
5.24973e+06
4.43029e+06
4.68683e+06
5.07042e+06
5.07294e+06
5.0389e+06
5.00101e+06
4.30071e+06
3.36781e+06
2.36818e+06
1.55107e+06
881560
549832
495477
544761
622584
737218
912223
1.16369e+06
1.74085e+06
5.52865e+06
4.85611e+06
5.40593e+06
6.02727e+06
5.53964e+06
5.23484e+06
5.06579e+06
4.40464e+06
3.63575e+06
2.80127e+06
1.93922e+06
1.22104e+06
824917
626778
622371
663670
740167
864879
1.06169e+06
1.52712e+06
5.87084e+06
5.35214e+06
6.04713e+06
7.0569e+06
6.36568e+06
5.65347e+06
5.20296e+06
4.56532e+06
3.87731e+06
3.12532e+06
2.32918e+06
1.65779e+06
1.20901e+06
865937
742366
743631
777988
886600
1.02057e+06
1.34475e+06
6.28539e+06
5.83589e+06
6.66878e+06
7.91017e+06
7.60192e+06
6.32887e+06
5.47921e+06
4.76176e+06
4.13232e+06
3.44104e+06
2.74099e+06
2.11621e+06
1.62224e+06
1.17678e+06
933623
871645
889312
956415
1.04803e+06
1.33959e+06
6.69754e+06
6.31561e+06
7.16771e+06
8.36666e+06
8.91665e+06
7.60492e+06
6.14591e+06
5.09266e+06
4.37594e+06
3.76628e+06
3.10059e+06
2.50124e+06
1.98548e+06
1.48834e+06
1.20753e+06
1.09236e+06
1.02469e+06
1.04833e+06
1.0874e+06
1.34265e+06
7.26787e+06
6.86295e+06
7.44083e+06
8.40025e+06
9.60972e+06
9.51557e+06
8.08058e+06
6.48661e+06
5.31749e+06
4.50014e+06
3.76185e+06
3.11989e+06
2.61084e+06
2.12643e+06
1.82342e+06
1.59788e+06
1.37177e+06
1.3504e+06
1.35668e+06
1.56158e+06
1.85958e+07
1.74955e+07
1.6903e+07
1.33017e+07
1.23935e+07
1.22531e+07
1.18802e+07
1.07997e+07
9.21675e+06
7.53121e+06
6.25951e+06
5.51429e+06
5.15664e+06
5.28639e+06
5.48438e+06
5.80719e+06
6.19538e+06
6.64114e+06
7.07702e+06
7.6762e+06
1.74449e+07
1.71353e+07
1.18915e+07
9.61916e+06
1.09761e+07
1.19378e+07
1.18331e+07
1.04738e+07
7.77374e+06
5.21709e+06
3.96519e+06
3.61303e+06
3.81667e+06
4.18907e+06
4.60634e+06
5.09162e+06
5.62856e+06
6.13691e+06
6.6272e+06
7.19343e+06
1.7019e+07
1.22231e+07
8.40892e+06
7.51618e+06
1.05077e+07
1.20548e+07
1.20571e+07
1.03225e+07
6.27915e+06
3.35218e+06
2.78991e+06
3.06982e+06
3.515e+06
4.13748e+06
4.85424e+06
5.64567e+06
6.32964e+06
6.96381e+06
7.4291e+06
7.70487e+06
1.3067e+07
9.3528e+06
7.32364e+06
6.3358e+06
9.18319e+06
1.18925e+07
1.2555e+07
1.12269e+07
5.79079e+06
2.29348e+06
2.73371e+06
3.22613e+06
3.80967e+06
4.41008e+06
5.18027e+06
6.21688e+06
7.35809e+06
8.25796e+06
8.66645e+06
8.66167e+06
1.20681e+07
1.03852e+07
9.77739e+06
8.17709e+06
2.12564e+06
3.76945e+06
4.0626e+06
4.28402e+06
4.50283e+06
4.76385e+06
5.10309e+06
5.59998e+06
6.49376e+06
7.86731e+06
9.25783e+06
9.88849e+06
1.18044e+07
1.14103e+07
1.16077e+07
1.15187e+07
4.82805e+06
5.01067e+06
4.9452e+06
4.89396e+06
4.90032e+06
4.95064e+06
5.04982e+06
5.25053e+06
5.68578e+06
6.39324e+06
7.75604e+06
9.7446e+06
1.1536e+07
1.14258e+07
1.17196e+07
1.21879e+07
5.25804e+06
5.13317e+06
5.08005e+06
5.04294e+06
5.02125e+06
5.0085e+06
5.02989e+06
5.08309e+06
5.21173e+06
5.47739e+06
6.15424e+06
8.15504e+06
1.04604e+07
1.01607e+07
1.00476e+07
1.08613e+07
4.58691e+06
3.72087e+06
3.91767e+06
4.04596e+06
4.11387e+06
4.21817e+06
4.32018e+06
4.42247e+06
4.58076e+06
4.77944e+06
5.11165e+06
6.50854e+06
8.97846e+06
7.60783e+06
6.17851e+06
5.84244e+06
1.93464e+06
4.93418e+06
5.31579e+06
4.56207e+06
613033
1.00607e+06
1.63204e+06
2.20971e+06
2.67923e+06
3.004e+06
3.31648e+06
3.58816e+06
3.83228e+06
4.091e+06
4.33167e+06
5.26188e+06
7.36876e+06
5.13653e+06
3.31935e+06
2.26184e+06
3.78161e+06
5.04598e+06
5.12546e+06
3.69821e+06
1.11464e+06
375454
532624
874473
1.33984e+06
1.83436e+06
2.28743e+06
2.7188e+06
3.04196e+06
3.34663e+06
3.66902e+06
4.39236e+06
6.11493e+06
3.89897e+06
2.75093e+06
2.69848e+06
4.0704e+06
4.972e+06
5.06718e+06
3.90736e+06
1.71012e+06
592376
346608
418072
669904
1.05791e+06
1.46656e+06
1.84614e+06
2.22484e+06
2.61143e+06
2.96765e+06
3.63548e+06
5.34167e+06
3.51635e+06
3.02953e+06
3.19106e+06
4.28753e+06
4.90844e+06
5.02197e+06
4.03953e+06
2.27824e+06
956083
446807
345892
415609
573582
825825
1.15326e+06
1.56056e+06
1.9951e+06
2.3706e+06
2.98911e+06
4.96233e+06
3.70822e+06
3.44629e+06
3.76356e+06
4.50336e+06
4.91019e+06
4.99392e+06
4.10902e+06
2.73238e+06
1.4333e+06
727758
433563
376800
404577
524793
770922
1.13004e+06
1.52215e+06
1.87144e+06
2.48572e+06
5.08528e+06
4.06303e+06
4.03723e+06
4.34399e+06
4.75989e+06
4.95708e+06
5.00078e+06
4.22071e+06
3.05621e+06
1.91596e+06
1.12419e+06
609510
413243
419106
482788
592177
809825
1.10359e+06
1.40831e+06
2.01564e+06
5.25546e+06
4.44401e+06
4.71077e+06
5.09802e+06
5.09265e+06
5.05596e+06
5.02936e+06
4.32647e+06
3.36746e+06
2.35894e+06
1.53534e+06
877777
550748
489105
535918
613391
727687
904157
1.15665e+06
1.7268e+06
5.53153e+06
4.86856e+06
5.43545e+06
6.07231e+06
5.57696e+06
5.26133e+06
5.09493e+06
4.43073e+06
3.62889e+06
2.78411e+06
1.9346e+06
1.22192e+06
816642
615746
613877
655059
733178
857731
1.05323e+06
1.5177e+06
5.86757e+06
5.35933e+06
6.07085e+06
7.11266e+06
6.42229e+06
5.69136e+06
5.23287e+06
4.58739e+06
3.87291e+06
3.12093e+06
2.33156e+06
1.6527e+06
1.20066e+06
852856
735414
737795
774495
880751
1.01313e+06
1.33563e+06
6.27456e+06
5.83328e+06
6.67733e+06
7.94632e+06
7.67847e+06
6.37723e+06
5.51269e+06
4.78418e+06
4.13658e+06
3.44388e+06
2.73443e+06
2.11268e+06
1.61367e+06
1.16856e+06
930869
869222
886675
951672
1.03957e+06
1.33142e+06
6.68023e+06
6.29955e+06
7.15311e+06
8.37202e+06
8.94569e+06
7.637e+06
6.18385e+06
5.11551e+06
4.38917e+06
3.77167e+06
3.09513e+06
2.49245e+06
1.97997e+06
1.49057e+06
1.20615e+06
1.08681e+06
1.01894e+06
1.0421e+06
1.08094e+06
1.33757e+06
7.24803e+06
6.84333e+06
7.41963e+06
8.39361e+06
9.62314e+06
9.50049e+06
8.07722e+06
6.48076e+06
5.32671e+06
4.49471e+06
3.76089e+06
3.11841e+06
2.61373e+06
2.12936e+06
1.81821e+06
1.59341e+06
1.36878e+06
1.35037e+06
1.35788e+06
1.56262e+06
1.84547e+07
1.73878e+07
1.68346e+07
1.34252e+07
1.24681e+07
1.22568e+07
1.18571e+07
1.07805e+07
9.21087e+06
7.55415e+06
6.31372e+06
5.53878e+06
5.1767e+06
5.30586e+06
5.49101e+06
5.79578e+06
6.17e+06
6.61805e+06
7.06301e+06
7.67271e+06
1.74222e+07
1.69338e+07
1.22527e+07
9.78519e+06
1.09591e+07
1.18834e+07
1.17418e+07
1.04074e+07
7.74338e+06
5.21503e+06
4.01037e+06
3.64787e+06
3.84314e+06
4.20153e+06
4.59722e+06
5.06035e+06
5.57896e+06
6.08602e+06
6.58764e+06
7.17328e+06
1.69621e+07
1.27378e+07
8.5916e+06
7.56467e+06
1.04498e+07
1.19672e+07
1.19676e+07
1.02446e+07
6.25517e+06
3.35354e+06
2.82791e+06
3.109e+06
3.54351e+06
4.13998e+06
4.83131e+06
5.58193e+06
6.24931e+06
6.86272e+06
7.34549e+06
7.64673e+06
1.32533e+07
9.54052e+06
7.38189e+06
6.33789e+06
9.14782e+06
1.17993e+07
1.24377e+07
1.11465e+07
5.75309e+06
2.29569e+06
2.73863e+06
3.23374e+06
3.81893e+06
4.41755e+06
5.1865e+06
6.18949e+06
7.25256e+06
8.0658e+06
8.50991e+06
8.53316e+06
1.21225e+07
1.03416e+07
9.73325e+06
8.12905e+06
2.14674e+06
3.75874e+06
4.0275e+06
4.23329e+06
4.45018e+06
4.71313e+06
5.05615e+06
5.57223e+06
6.46972e+06
7.83067e+06
9.10814e+06
9.67804e+06
1.17664e+07
1.1331e+07
1.15432e+07
1.14766e+07
4.90226e+06
5.00965e+06
4.91703e+06
4.8374e+06
4.83915e+06
4.88376e+06
4.98331e+06
5.20159e+06
5.64238e+06
6.39003e+06
7.81772e+06
9.64705e+06
1.14595e+07
1.13333e+07
1.16496e+07
1.21509e+07
5.33509e+06
5.12813e+06
5.04358e+06
4.98233e+06
4.93645e+06
4.92419e+06
4.94908e+06
5.00876e+06
5.14893e+06
5.44782e+06
6.20005e+06
8.23964e+06
1.03988e+07
1.00903e+07
9.96943e+06
1.08229e+07
4.631e+06
3.73325e+06
3.9116e+06
4.02717e+06
4.08066e+06
4.1647e+06
4.25493e+06
4.37154e+06
4.54121e+06
4.75529e+06
5.13117e+06
6.63684e+06
8.92557e+06
7.54466e+06
6.10451e+06
5.63752e+06
2.0765e+06
4.8199e+06
5.2383e+06
4.53727e+06
609460
1.04496e+06
1.67612e+06
2.22086e+06
2.67337e+06
2.9993e+06
3.31537e+06
3.56571e+06
3.79814e+06
4.04733e+06
4.31037e+06
5.34144e+06
7.34228e+06
5.11064e+06
3.29977e+06
2.28029e+06
3.70985e+06
4.93642e+06
5.03117e+06
3.64068e+06
1.06993e+06
385631
537726
910536
1.39141e+06
1.87414e+06
2.30079e+06
2.67975e+06
3.00368e+06
3.33432e+06
3.65137e+06
4.42329e+06
6.10276e+06
3.89069e+06
2.76286e+06
2.70912e+06
3.98358e+06
4.85535e+06
4.96478e+06
3.84367e+06
1.67354e+06
576842
358209
440541
697350
1.06353e+06
1.45157e+06
1.86366e+06
2.2517e+06
2.63233e+06
2.96259e+06
3.63097e+06
5.3389e+06
3.51676e+06
3.03259e+06
3.19271e+06
4.19027e+06
4.7841e+06
4.91498e+06
3.97525e+06
2.22331e+06
949399
459668
354672
412637
561267
842148
1.19581e+06
1.60512e+06
2.01973e+06
2.3419e+06
2.96614e+06
4.99451e+06
3.72624e+06
3.44874e+06
3.75403e+06
4.4051e+06
4.78957e+06
4.87527e+06
4.03933e+06
2.67232e+06
1.43352e+06
728173
425824
392781
433014
563974
802760
1.14866e+06
1.50804e+06
1.84955e+06
2.47997e+06
5.11722e+06
4.07535e+06
4.03824e+06
4.32662e+06
4.66518e+06
4.83899e+06
4.88244e+06
4.13443e+06
3.00137e+06
1.90601e+06
1.09976e+06
587520
437897
459167
524247
625519
827166
1.11718e+06
1.43399e+06
2.04432e+06
5.29427e+06
4.46394e+06
4.72383e+06
5.07546e+06
5.00466e+06
4.94155e+06
4.91391e+06
4.22482e+06
3.32653e+06
2.33228e+06
1.50147e+06
883324
586204
526788