/*--------------------------------*- C++ -*----------------------------------*\
  =========                 |
  \\      /  F ield         | OpenFOAM: The Open Source CFD Toolbox
   \\    /   O peration     | Website:  https://openfoam.org
    \\  /    A nd           | Version:  9
     \\/     M anipulation  |
\*---------------------------------------------------------------------------*/
FoamFile
{
    format      ascii;
    class       volVectorField;
    location    "0.006";
    object      rhoU;
}
// * * * * * * * * * * * * * * * * * * * * * * * * * * * * * * * * * * * * * //

dimensions      [1 -2 -1 0 0 0 0];

internalField   nonuniform List<vector> 
9720
(
(-5735.04 -5751.99 -119.199)
(-4376.1 -5913.89 -90.2787)
(-3655.31 -6261.45 -144.573)
(-2966.25 -6232.74 -261.156)
(-1888.33 -6645.64 -285.272)
(-493.771 -6527.63 -235.623)
(789.531 -6264.02 -256.928)
(2045.59 -5617.76 -199.442)
(2924.14 -4587.69 -193.102)
(3226.04 -3426.02 -147.123)
(3192.82 -2470.5 -105.902)
(3088.28 -1837.25 -76.3041)
(3079.65 -1472.52 -109.52)
(3234.77 -1284.06 -110.647)
(3375.52 -1122.4 -90.3279)
(3581.27 -1036.79 -84.5373)
(3811.99 -964.635 -98.6288)
(4077.79 -926.625 -114.022)
(4335.55 -871.052 -114.486)
(4719.36 -791.609 -132.375)
(-5890.98 -4374.24 -68.1656)
(-4638.06 -4634.25 -41.7838)
(-4062.51 -4921.47 -104.901)
(-3505.88 -4418.26 -213.707)
(-2165.62 -5752.46 -241.854)
(-647.633 -6227.01 -215.503)
(713.319 -6112.28 -227.196)
(2190.93 -5349.49 -190.227)
(2979.76 -3661.4 -136.236)
(2780.48 -2087.7 -69.136)
(2470 -1252.7 -48.8062)
(2369.34 -907.106 -34.4331)
(2556.4 -777.79 -73.6306)
(2768.91 -680.925 -84.7933)
(3014.12 -631.63 -68.0187)
(3294.02 -635.7 -65.3327)
(3576.42 -640.956 -75.2165)
(3848 -651.514 -92.9902)
(4123.42 -644.953 -98.907)
(4466.94 -595.102 -113.399)
(-6217.96 -3616.13 -75.9751)
(-5035.62 -4073.55 -59.9687)
(-3884.89 -3843.02 -120.317)
(-3242.95 -3554.99 -176.279)
(-2241.02 -5325.09 -180.58)
(-674.411 -6157.3 -190.986)
(817.563 -6142.15 -185.843)
(2347.77 -5166.74 -151.294)
(2807.09 -2759.19 -105.933)
(2094.64 -1127.96 -42.9644)
(1927.82 -699.537 -32.9315)
(2114.25 -590.677 -45.8176)
(2371.36 -554.255 -72.2018)
(2754.99 -505.87 -90.4588)
(3182.18 -503.575 -91.4699)
(3615.6 -480.368 -89.9394)
(3986.08 -477.415 -88.2844)
(4228.41 -528.377 -97.9234)
(4463.33 -550.987 -101.722)
(4683.74 -504.134 -98.3257)
(-6195.42 -2860.76 -161.063)
(-4402.74 -3416.29 -124.764)
(-3556.48 -3183.12 -85.4695)
(-3082.58 -2979.42 -149.677)
(-2628.1 -4199.54 -174.13)
(-1275.66 -6065.88 -195.496)
(428.438 -6320.09 -245.807)
(2025.45 -5554.78 -199.431)
(2682.11 -2706.97 -147.331)
(1563.23 -580.404 -56.6801)
(1825.14 -595.451 -76.9939)
(2128.97 -614.055 -70.4324)
(2476.33 -630.97 -73.3757)
(2842.16 -626.41 -97.7966)
(3314.54 -568.401 -124.201)
(3881.8 -514.524 -130.398)
(4381.94 -431.844 -128.107)
(4755.3 -277.323 -153.785)
(4999.8 -278.886 -174.432)
(5057.57 -282.663 -189.899)
(-6515.68 -1821.23 -273.856)
(-5586.69 -2107.49 -217.149)
(-5163.95 -2166.82 -151.78)
(-4117.84 -2507.01 -151.009)
(1311.61 -470.44 -63.6015)
(2309.71 -500.933 -70.0973)
(2490.23 -512.458 -81.6641)
(2648.93 -512.617 -91.7576)
(2815.03 -495.908 -97.7075)
(2996.61 -481.535 -113.273)
(3235.23 -456.591 -123.199)
(3609.66 -385.101 -133.348)
(4209.85 -247.976 -186.696)
(4890.74 -168.094 -212.336)
(5362.72 -18.8121 -205.356)
(5542.26 72.0759 -211.81)
(-6361.44 -466.979 -243.524)
(-6039.69 -625.757 -220.355)
(-5985.37 -657.864 -193.06)
(-5898.06 -1246.3 -207.164)
(2969.12 -338.446 -114.236)
(3030.69 -191.968 -93.1613)
(3005.92 -183.338 -99.5156)
(3007.89 -177.109 -105.429)
(3030.54 -169.007 -109.445)
(3084.1 -157.931 -117.158)
(3177.83 -140.273 -124.051)
(3363.48 -112.632 -124.274)
(3718.15 -48.4774 -149.359)
(4300.33 86.89 -184.89)
(5027.88 316.635 -166.55)
(5613.91 418.383 -194.865)
(-6100.06 777.006 -278.401)
(-5953.58 700.375 -249.224)
(-5977.14 795.158 -197.587)
(-6155.81 423.099 -261.701)
(3212.37 33.127 -117.833)
(3079.48 164.216 -90.1957)
(3057.91 152.034 -99.1415)
(3042.66 142.059 -104.955)
(3027.52 141.32 -104.785)
(3042.58 147.588 -107.001)
(3073.78 159.815 -114.299)
(3139.49 176.887 -117.292)
(3292.82 216.847 -120.143)
(3623.36 294.618 -149.333)
(4207.99 476.227 -155.586)
(5158.07 772.044 -174.794)
(-5477.4 2005.12 -216.489)
(-5202.95 2138.96 -207.279)
(-5005.01 2290.96 -164.27)
(-5395.64 1971.78 -216.397)
(2804.83 409.833 -101.3)
(2250.08 506.179 -77.7017)
(2374.96 508.365 -72.2425)
(2449.62 497.283 -67.3846)
(2512.27 487.674 -81.4486)
(2569.6 473.375 -96.7865)
(2641.36 465.285 -99.4389)
(2738.35 458.063 -94.8687)
(2865.17 464.596 -92.2564)
(3069.78 497.29 -105.02)
(3434.17 605.714 -118.767)
(4411.21 903.157 -138.046)
(-4451.26 2858.1 -216.137)
(-3513.65 2888.46 -165.217)
(-2597.83 2687.57 -140.951)
(-2448.08 2520.29 -186.194)
(-476.7 1341.07 -62.0747)
(-326.728 2820.85 -112.455)
(45.419 3051.05 -118.596)
(406.378 2626.33 -98.4363)
(302.443 337.729 -14.3721)
(638.277 349.858 -12.6502)
(1013.94 465.578 -24.1882)
(1356.46 553.67 -64.637)
(1620.98 599.52 -76.2821)
(1850.07 631.627 -75.356)
(2028.98 640.067 -64.5203)
(2169.93 638.865 -72.1538)
(2330.6 642.069 -82.3461)
(2512.67 650.3 -93.8555)
(2750.28 707.004 -99.2655)
(3504.22 966.081 -111.365)
(-3311.81 3140.49 -185.685)
(-1994.29 2682.53 -115.065)
(-1075.12 2013.84 -78.3412)
(-574.916 1529.27 -72.4404)
(-496.138 2196.47 -75.9036)
(-180.376 2876.67 -93.686)
(171.228 2905.43 -90.1767)
(497.981 2136.43 -69.7986)
(357.541 701.368 -19.5095)
(220.412 230.595 -0.843854)
(353.362 254.709 -25.6094)
(593.181 364.55 -34.0233)
(877.518 486.341 -33.1739)
(1146 572.072 -31.6605)
(1393.04 639.525 -44.5518)
(1608.94 677.706 -58.2012)
(1805.54 704.33 -72.27)
(2017.88 734.693 -82.3507)
(2227.51 761.735 -81.158)
(2826.03 973.503 -92.8122)
(-2386.45 3102.46 -138.661)
(-1212.53 2393.91 -84.6709)
(-689.574 1900.12 -63.1292)
(-592.398 1790.51 -89.4629)
(-506.634 2376.32 -87.8458)
(-170.707 2842.3 -98.4191)
(155.825 2886.03 -97.7673)
(498.482 2265.01 -65.7192)
(473.529 1059.98 -29.491)
(260.784 384.6 -22.8263)
(222.388 229.648 -16.5824)
(295.182 237.815 -6.32477)
(430.546 309.998 -6.94099)
(631.426 412.644 -15.5398)
(871.908 522.914 -34.8835)
(1125.19 616.305 -60.5206)
(1348.05 682.494 -62.6872)
(1551.68 731.297 -63.9126)
(1760.39 763.803 -67.8046)
(2248.55 937.35 -73.1566)
(-1779.41 3000.75 -109.256)
(-893.308 2312.11 -69.7307)
(-594.818 2089.53 -74.3803)
(-617.08 2096.61 -85.3476)
(-504.287 2538.56 -96.0789)
(-164.823 2845.38 -104.463)
(145.484 2869.1 -103.047)
(482.996 2335.24 -62.0564)
(560.293 1389.48 -57.2519)
(376.666 628.667 -37.9493)
(239.602 311.537 -9.89301)
(241.128 245.925 -1.3891)
(284.964 243.418 -6.39577)
(379.009 290.876 -10.4286)
(542.963 393.17 -24.6005)
(756.06 509.807 -46.0624)
(971.277 608.862 -48.4514)
(1175.38 681.415 -43.3195)
(1368.06 733.783 -50.3614)
(1795.34 886.02 -59.2921)
(-1437.4 3009.61 -141.888)
(-774.398 2503.87 -104.857)
(-565.553 2343.27 -97.2443)
(-631.3 2435.98 -88.9707)
(-489.304 2711.03 -103.219)
(-157.87 2870.47 -108.566)
(143.246 2876.13 -102.075)
(471.571 2400.02 -76.7906)
(602.17 1635.93 -63.7353)
(503.625 925.393 -37.5403)
(326.378 460.131 -14.6718)
(240.074 291.398 -10.2483)
(276.122 282.983 -13.1387)
(328.738 295.216 -17.2488)
(407.344 340.129 -23.4878)
(534.785 415.174 -26.182)
(695.427 510.053 -22.536)
(883.355 602.073 -10.1893)
(1065.09 681.17 -20.7872)
(1445.59 831.818 -40.6335)
(-1259.23 3166.37 -145.16)
(-681.718 2721.82 -116.912)
(-521.528 2715.42 -111.665)
(-628.095 2790.89 -111.115)
(-473.087 2897.83 -117.086)
(-146.248 2929.95 -115.803)
(147.189 2898.68 -105.155)
(457.146 2457.92 -90.2581)
(628.157 1849.84 -61.2338)
(588.478 1195.49 -30.3779)
(437.645 676.272 -18.9302)
(300.035 394.975 -16.0765)
(289.904 330.42 -20.7784)
(323.84 324.881 -25.8172)
(363.72 334.837 -19.3054)
(420.883 357.573 -7.27654)
(522.491 425.784 -4.38132)
(680.215 524.47 -4.61663)
(841.991 616.246 -26.6124)
(1176.82 774.066 -45.2272)
(-1107.73 3322.73 -124.888)
(-627.577 2972.73 -101.827)
(-517.787 3136.7 -112.71)
(-575.154 3238.65 -138.369)
(-446.251 3135.48 -124.683)
(-128.597 3028.78 -121.736)
(158.196 2941.23 -112.804)
(449.047 2533.24 -95.7444)
(631.861 2015.45 -53.2564)
(653.755 1443.3 -35.4422)
(550.065 926.427 -34.2704)
(411.861 576.444 -28.8538)
(343.157 415.79 -27.1324)
(331.518 363.103 -20.3936)
(356.454 359.011 -5.42114)
(394.867 368.143 0.570308)
(462.019 407.413 -8.8778)
(574.326 482.714 -18.7834)
(706.65 569.575 -27.4601)
(981.755 720.62 -31.1727)
(-1024.67 3536.15 -119.498)
(-636.384 3262.11 -101.155)
(-500.35 3565.02 -117.834)
(-522.152 3782.76 -139.577)
(-377.184 3493.38 -136.223)
(-99.968 3215.84 -122.766)
(174.462 3021.5 -115.648)
(442.786 2634.66 -94.5711)
(627.078 2147.06 -61.1245)
(689.442 1653.97 -44.644)
(643.586 1187.54 -56.0635)
(535.634 805.863 -45.7685)
(433.051 559.772 -27.3512)
(366.831 432.816 -8.92933)
(365.379 396.987 -0.469814)
(396.109 398.399 -7.59573)
(451.194 424.579 -20.1014)
(526.123 468.169 -23.1871)
(612.306 527.462 -16.7142)
(823.307 657.42 -14.9788)
(-955.151 3766.14 -134.977)
(-643.915 3541.01 -113.432)
(-486.77 3937.55 -127.031)
(-450.521 4274.2 -126.99)
(-252.965 4050.24 -181.839)
(-35.403 3562.17 -149.63)
(213.47 3189.04 -120.564)
(452.408 2767.43 -93.9852)
(628.286 2304.89 -74.2234)
(711.761 1842.18 -60.119)
(706.852 1412.05 -56.0528)
(638.105 1028.96 -41.747)
(537.299 733.021 -19.4252)
(448.097 548.602 -4.06059)
(411.645 469.017 -9.25402)
(426.911 455.837 -20.4862)
(459.967 461.157 -28.2251)
(513.777 485.205 -27.6896)
(571.582 524.153 -15.1451)
(733.08 624.062 -8.90553)
(-917.475 4023.67 -149.992)
(-654.528 3806.75 -131.678)
(-535.343 4180.5 -138.292)
(-303.283 4652.74 -163.046)
(-179.713 4707.11 -182.643)
(83.2868 4126.25 -171.549)
(287.273 3519.84 -148.538)
(487.152 2977.37 -106.152)
(637.911 2487 -89.6814)
(737.706 2049.17 -71.1155)
(750.986 1613.25 -50.3606)
(708.736 1235.19 -31.4542)
(632.164 929.877 -3.63256)
(551.905 715.782 -4.14873)
(499.635 595.971 -20.7515)
(480.193 540.727 -23.6259)
(490.583 521.962 -27.2061)
(516.723 519.02 -21.0737)
(563.86 545.444 -2.70872)
(715.243 644.391 -2.58355)
(-861.678 4271.9 -150.984)
(-647.416 4076.2 -138.278)
(-560.2 4407.71 -142.066)
(-297.538 4897.84 -191.451)
(-35.2474 5170.17 -183.965)
(309.473 4817.31 -149.303)
(455.412 4092.19 -145.081)
(594.887 3340.96 -114.669)
(698.274 2728.81 -96.056)
(764.454 2258.87 -71.5173)
(780.14 1820.4 -52.5386)
(759.158 1428.18 -37.4002)
(712.055 1118.03 -14.0742)
(644.98 885.578 -25.2499)
(595.299 740.03 -27.5534)
(551.821 638.637 -16.4675)
(536.261 584.525 -15.1769)
(554.262 574.355 -4.34948)
(584.238 584.27 2.62529)
(706.785 664.562 -2.42162)
(-780.831 4631.96 -166.095)
(-596.046 4400.4 -150.318)
(-513.739 4613.97 -136.232)
(-299.306 4960.57 -207.783)
(41.8356 5380.55 -205.4)
(389.89 5410.6 -189.77)
(731.505 4996.95 -164.667)
(881.272 4288.89 -129.229)
(952.552 3471.97 -107.12)
(973.294 2851.48 -81.8634)
(951.08 2302.04 -60.1581)
(908.54 1855.78 -46.8167)
(862.315 1508.92 -32.346)
(806.23 1233.8 -39.147)
(753.901 1030.11 -26.8344)
(692.212 865.652 -12.3079)
(648.333 759.883 -7.95222)
(665.691 737.052 -3.56961)
(681.528 723.835 -2.70408)
(762.954 761.656 -3.31755)
(-5637.86 -5669.58 45.0557)
(-4267.08 -5838.12 112.832)
(-3516.49 -6067.44 185.832)
(-2902.13 -6010.23 78.5274)
(-1837.89 -6428.76 -26.7867)
(-494.274 -6379.22 -49.578)
(750.909 -6139.8 -77.7395)
(1980.6 -5513.96 -46.7951)
(2832.59 -4484.71 -55.7123)
(3105.72 -3328.93 -31.4517)
(3067.74 -2395.47 -10.4912)
(2953.41 -1770.79 12.1457)
(2917.42 -1406.2 -11.5383)
(3065.65 -1228.08 -9.81167)
(3211.99 -1079.81 5.90332)
(3412.51 -996.002 14.5185)
(3633.83 -926.954 3.53768)
(3891.05 -891.626 -8.67377)
(4147.05 -841.392 -13.4798)
(4527.24 -770.231 -34.591)
(-5822.44 -4300.2 118.942)
(-4541.98 -4584.46 240.972)
(-3758.48 -4642.06 368.399)
(-3400.97 -4301.92 61.5124)
(-2055.4 -5661.96 -66.7631)
(-617.218 -6144.62 -67.7336)
(700.022 -6045.24 -72.8445)
(2134.23 -5307.75 -66.9754)
(2894.46 -3604.13 -32.6)
(2664.87 -2027.7 7.84087)
(2365.66 -1210.82 3.10023)
(2243.57 -867.274 19.0598)
(2409.83 -742.764 -9.2103)
(2612.38 -651.044 -7.54623)
(2847.57 -599.357 17.6621)
(3123.34 -601.608 28.743)
(3400.01 -609.214 20.6523)
(3668.01 -622.528 4.98151)
(3943.24 -620.865 -5.60711)
(4289.31 -578.921 -26.3177)
(-6045.98 -3518.44 209.915)
(-4724.37 -3883.92 344.635)
(-3682.73 -3700.12 217.863)
(-3071.03 -3527.97 -15.1238)
(-2155.65 -5339.92 -69.8841)
(-649.302 -6174.83 -76.3154)
(807.174 -6130.94 -68.0846)
(2292.16 -5164.67 -55.3033)
(2723.74 -2731.22 -10.3008)
(1983.03 -1085.95 18.9663)
(1821.82 -665.516 15.0376)
(2001.05 -558.768 9.06077)
(2237.82 -522.465 -18.7486)
(2590.32 -477.525 -29.5551)
(2991.22 -469.478 -3.05416)
(3406.24 -452.873 26.5181)
(3784.61 -443.286 19.8488)
(4042.71 -493.391 8.25625)
(4293.96 -527.316 -4.11741)
(4512.32 -489.15 -11.4139)
(-5991.42 -2812.77 144.668)
(-4252.96 -3359.71 100.345)
(-3456.28 -3070.07 10.7036)
(-2889.76 -2941.13 -28.134)
(-2527.5 -4422.3 -87.256)
(-1240.67 -6069.45 -61.308)
(409.756 -6356.23 -119.328)
(1958.21 -5578.63 -82.5908)
(2604.17 -2750.68 -10.1609)
(1486.54 -550.454 -9.17129)
(1729.98 -563.531 -22.195)
(2007.5 -579.35 -10.2738)
(2329.77 -592.808 -1.94296)
(2668.63 -587.004 -15.0592)
(3110.13 -533.828 -37.0565)
(3651.31 -475.379 -25.3533)
(4152.73 -405.089 23.3231)
(4513.85 -261.254 -9.48631)
(4809.51 -249.131 -68.8295)
(4879.93 -262.491 -95.6536)
(-6321.91 -1783.05 -26.3884)
(-5476.1 -2039.12 -64.0106)
(-5091.12 -2126.74 -73.8436)
(-4053.74 -2459.49 -61.1858)
(1351.29 -460.517 -13.7697)
(2231.13 -476.393 -34.2161)
(2381.69 -483.412 -37.1754)
(2511.19 -480.304 -36.9451)
(2651.45 -463.49 -32.8083)
(2811.37 -449.749 -35.7235)
(3026.12 -428.302 -35.6702)
(3367.19 -365.197 -35.322)
(3916.17 -236.407 -61.7558)
(4597.16 -147.806 -15.8259)
(5051.84 -13.8101 -17.4244)
(5342.67 74.9401 -95.4565)
(-6207.49 -469.347 -57.1984)
(-5940.33 -603.971 -75.1415)
(-5977.01 -645.096 -83.4849)
(-5896.37 -1217.6 -87.6452)
(2879.7 -319.155 -60.815)
(2932.95 -181.176 -45.9426)
(2889.51 -171.101 -43.5801)
(2856.53 -164.462 -40.4123)
(2862.14 -157.195 -37.6289)
(2896.31 -146.972 -38.7331)
(2970.73 -131.329 -38.571)
(3129.16 -107.655 -25.971)
(3435.89 -54.4182 -36.2449)
(3964.27 60.7275 -35.7151)
(4653.41 300.1 63.8997)
(5324 422.117 -20.3811)
(-5977.85 731.951 -109.07)
(-5880.68 673.651 -109.579)
(-5968.33 782.232 -94.8856)
(-6198.73 403.231 -143.622)
(3121.7 29.4878 -62.3427)
(2981.26 156.092 -43.0301)
(2937.39 142.461 -41.7551)
(2904.14 131.368 -39.4252)
(2864.6 130.203 -35.1661)
(2867.28 135.096 -32.3638)
(2883.95 144.717 -34.5618)
(2935.27 158.398 -33.9191)
(3061.45 189.824 -25.8789)
(3338.16 256.344 -39.4788)
(3860.95 404.889 5.49015)
(4811.65 700.704 25.2049)
(-5368.07 1932.41 -75.1841)
(-5174.62 2075.34 -107.262)
(-5022.56 2234.95 -86.9439)
(-5442.05 1903.06 -109.707)
(2717.02 382.425 -53.1817)
(2172.52 473.674 -41.7416)
(2277.04 476.175 -30.317)
(2328.62 462.236 -15.9666)
(2364.53 448.681 -21.8975)
(2408.9 434.018 -32.3373)
(2466.16 426.105 -32.6045)
(2551.01 419.942 -26.4405)
(2661.83 422.091 -14.5383)
(2834.16 447.355 -15.9625)
(3138.74 530.971 -3.2401)
(4035.51 799.166 29.9491)
(-4354.06 2759.32 -93.875)
(-3487.8 2807.85 -93.5839)
(-2604.88 2626.23 -70.8434)
(-2522.85 2472.22 -43.0421)
(-466.631 1334.07 -23.0202)
(-308.758 2742.21 -60.2932)
(40.6226 2972.56 -63.6612)
(378.382 2547.11 -50.5799)
(276.072 319.374 -2.52676)
(589.005 317.384 0.301477)
(947.768 425.967 -0.86192)
(1268.01 505.496 -31.3337)
(1519.18 549.703 -40.3536)
(1720.57 576.459 -29.1175)
(1879.58 582.892 -6.56388)
(2002.01 580.872 -8.00868)
(2145.2 584.175 -16.0831)
(2314.82 590.319 -24.7362)
(2524.45 630.893 -14.7959)
(3194.72 852.497 12.5617)
(-3220.27 3014.92 -72.8431)
(-1951.52 2571.35 -50.7779)
(-1043.38 1918.2 -31.204)
(-539.213 1467.49 -30.897)
(-472.567 2145.29 -41.4582)
(-170.786 2811.37 -46.8693)
(161.345 2840.54 -42.846)
(466.659 2075.83 -37.6183)
(325.867 654.926 -4.006)
(193.07 204.114 9.11119)
(308.21 220.846 -14.0117)
(535.177 322.037 -20.8855)
(804.932 436.754 -7.52225)
(1050.85 515.059 4.60466)
(1266.77 571.69 -3.18192)
(1468.25 608.364 -18.4576)
(1655.72 636.074 -23.9392)
(1852.57 667.041 -28.3183)
(2044.55 687.861 -15.3252)
(2568.39 864.485 3.42638)
(-2317.97 2973.4 -42.1381)
(-1170.27 2277.33 -29.8891)
(-649.811 1773.62 -8.70229)
(-556.541 1704.53 -38.9114)
(-480.255 2293.88 -43.7873)
(-160.342 2759.17 -45.7453)
(147.391 2798.39 -43.1604)
(466.692 2182.54 -27.6454)
(431.101 991.225 -0.197285)
(227.727 340.39 -10.4297)
(192.368 199.513 -12.9)
(258.898 208.261 3.21884)
(385.007 274.87 9.93459)
(564.464 365.72 0.491214)
(781.778 462.422 -17.0894)
(1019.49 549.752 -31.9717)
(1228.97 615.954 -18.468)
(1414.24 658.216 -8.9075)
(1603.3 688.439 -13.1123)
(2043.63 835.791 -0.0758934)
(-1719.29 2867.53 -15.7091)
(-853.309 2175.68 -5.85824)
(-557.571 1952.61 -7.06091)
(-577.983 1974.13 -20.2526)
(-476.332 2421.24 -41.5484)
(-154.597 2728.06 -44.3798)
(134.653 2766.32 -43.0361)
(450.65 2233.92 -16.1218)
(509.466 1298.32 -20.6772)
(333.038 570.919 -21.2642)
(208.584 274.225 0.979874)
(201.594 206.333 10.691)
(236.426 201.868 0.854139)
(323.978 246.299 -8.19709)
(478.427 339.815 -9.19717)
(665.595 442.711 -14.0544)
(861.008 532.169 -4.29755)
(1056.2 603.071 -2.37832)
(1238.66 658.39 -16.9166)
(1634.13 795.295 -8.03568)
(-1377.62 2855.81 -37.4084)
(-737.784 2350.34 -25.5047)
(-530.016 2188.51 -24.5329)
(-591.878 2283.79 -6.74848)
(-459.76 2558.66 -35.1282)
(-147.991 2733.12 -42.5573)
(131.948 2740.49 -38.6008)
(435.957 2276.56 -22.8459)
(549.041 1533.34 -27.5315)
(449.854 843.793 -9.69324)
(285.717 407.317 5.14634)
(200.769 243.708 -0.146897)
(226.942 232.667 -10.3281)
(272.764 243.526 -7.30856)
(342.33 282.771 -0.302008)
(451.761 347.166 2.75977)
(605.701 438.796 4.44796)
(788.091 532.069 9.68901)
(963.374 609.54 2.90962)
(1313.92 747.087 5.23921)
(-1206.08 3000.1 -36.75)
(-650.773 2558.03 -26.0974)
(-491.64 2536.96 -28.973)
(-589.223 2605.37 -10.375)
(-444.771 2714.4 -33.2093)
(-137.863 2768.23 -43.5725)
(134.945 2747.32 -35.3515)
(421.39 2324.08 -31.2246)
(573.689 1724.99 -17.9669)
(527.575 1090.73 6.96935)
(383.902 601.704 2.70906)
(255.124 340.096 -7.94141)
(239.453 277.528 -7.7796)
(269.297 271.632 -5.08087)
(304.594 279.72 3.73067)
(361.554 305.084 9.01679)
(457.759 369.981 7.44585)
(606.502 462.938 11.7822)
(757.305 549.597 3.46589)
(1059.83 690.594 -0.0401338)
(-1063.46 3154.26 -21.1209)
(-592.423 2803 -6.69349)
(-485.885 2945.84 -5.59752)
(-543.85 3017.09 -23.0523)
(-423.635 2918.92 -27.9618)
(-123.39 2840.56 -41.2317)
(142.722 2771.14 -35.7085)
(413.03 2379.88 -32.4131)
(578.231 1876.18 2.04242)
(585.737 1315.06 8.19961)
(487.059 832.331 -8.10472)
(359.549 508.728 -6.87674)
(288.855 352.015 -1.97688)
(278.486 304.226 3.1436)
(300.613 302.052 12.8617)
(335.667 311.357 12.8449)
(397.547 347.341 4.90403)
(499.609 419.134 6.6867)
(616.591 495.962 6.79213)
(877.411 638.016 6.79317)
(-981.282 3358.83 -12.9287)
(-599.57 3085.34 0.502782)
(-472.621 3361.75 17.4172)
(-491.307 3542.65 -4.26961)
(-365.121 3238.79 -23.0871)
(-100.339 2993.06 -28.3027)
(154.863 2830.43 -32.6186)
(406.724 2461.5 -26.661)
(573.634 1994.87 2.09846)
(623.974 1521.89 -0.761214)
(579.874 1083.74 -20.171)
(471.622 715.244 -9.30428)
(366.099 478.738 4.01207)
(314.36 372.799 8.05488)
(310.166 338.202 11.9628)
(339.273 341.875 5.8527)
(390.084 366.908 1.10371)
(454.311 406.912 7.08838)
(532.979 455.538 13.3057)
(738.278 584.643 13.7483)
(-913.742 3575.35 -24.294)
(-609.354 3349.57 -9.36386)
(-455.848 3720.24 -4.25124)
(-428.162 4045.67 50.7256)
(-250.424 3760.39 -35.2577)
(-48.9681 3287.31 -36.2482)
(184.729 2961.4 -24.0292)
(409.697 2572.14 -13.5818)
(573.935 2137.33 -5.57224)
(648.514 1707.97 -8.26525)
(644.542 1299.84 -6.84665)
(567.411 926.255 4.90687)
(468.991 647.449 10.049)
(392.969 483.427 9.27092)
(352.861 405.451 4.95612)
(369.965 395.607 0.628327)
(397.438 397.439 -0.183574)
(441.864 416.16 3.21455)
(502.938 456.45 9.11652)
(661.09 560.596 12.8774)
(-877.532 3816.29 -35.9411)
(-622.278 3601.44 -26.2436)
(-503.915 3967.31 -21.3874)
(-293.011 4409.36 2.72189)
(-164.798 4429.63 28.5905)
(56.7946 3810.89 -19.2722)
(248.384 3236.91 -33.2384)
(435.135 2745.89 -12.9685)
(578.691 2304.52 -15.8716)
(674.014 1900.56 -15.3906)
(682.98 1486.21 4.24261)
(638.193 1127.18 9.67344)
(565.763 839.112 18.3304)
(492.94 643.332 14.1771)
(437.824 521.81 5.32603)
(415.254 464.502 5.7244)
(423.169 449.647 3.39059)
(449.431 450.556 3.5649)
(498.139 481.333 13.3044)
(643.517 579.079 18.799)
(-826.844 4054.53 -40.1976)
(-620.095 3862.51 -37.5257)
(-539.235 4203.04 -39.0405)
(-280.226 4695.49 -81.7309)
(-36.4484 4878.23 4.8739)
(284.237 4468.81 81.0357)
(389.06 3751.58 23.3844)
(518.953 3054.34 5.7106)
(621.215 2514.86 -6.74463)
(691.919 2087.44 -3.24284)
(708.788 1674.52 2.29095)
(689.245 1309.26 -3.29316)
(643.448 1020.15 11.4218)
(580.073 800.644 5.85333)
(521.364 648.145 7.14413)
(475.497 553.771 14.2658)
(468.332 515.016 9.59689)
(490.222 507.649 11.9714)
(522.098 521.872 22.4899)
(634.365 594.85 23.8557)
(-755.15 4405.98 -57.9975)
(-577.746 4184.93 -54.4711)
(-501.187 4401.16 -45.7309)
(-289.157 4766.29 -113.913)
(40.0984 5181.44 -85.9252)
(385.775 5137.23 -12.3945)
(666.868 4661.31 40.4709)
(780.062 3935.84 41.936)
(840.724 3178.02 21.0694)
(865.793 2604.51 16.8952)
(851.074 2104.84 14.6556)
(819.494 1699.58 6.52067)
(778.234 1376.8 14.4613)
(721.714 1113.11 6.59456)
(668.565 920.635 12.0988)
(615.373 774.667 17.7179)
(583.758 685.468 15.0348)
(596.837 660.768 18.4381)
(609.791 648.42 24.3633)
(678.916 677.404 25.4605)
(-5766.64 -5761.85 76.2812)
(-4387.11 -6006.46 165.962)
(-3607.06 -6266.6 294.686)
(-3017.62 -6043.58 132.916)
(-1837.05 -6422.69 29.0443)
(-506.766 -6410.19 -20.6582)
(735.83 -6195.15 -51.5023)
(1966.42 -5570.79 -32.4476)
(2819.93 -4528 -25.5852)
(3072.6 -3340.92 -6.50062)
(3028.55 -2402.73 11.84)
(2911.83 -1777.16 33.4881)
(2855.75 -1406.86 9.72833)
(3003.57 -1233.02 1.61014)
(3148.73 -1090.87 8.43703)
(3348.87 -1005.72 18.4974)
(3571.53 -937.731 8.3084)
(3827.98 -905.156 -2.6694)
(4079.18 -859.895 -10.0777)
(4453.98 -798.005 -27.8304)
(-6001.46 -4372.92 154.162)
(-4766.8 -4756.01 275.013)
(-3700.91 -4479.82 474.674)
(-3406.29 -4306.25 111.955)
(-2012.09 -5677.4 12.4673)
(-613.234 -6189.73 -21.1007)
(694.054 -6089.43 -43.7728)
(2124.8 -5345.8 -41.5162)
(2887.56 -3621.79 4.30716)
(2631.43 -2019.38 31.6814)
(2334.43 -1200.61 20.5125)
(2207.41 -855.247 41.283)
(2365.89 -744.415 17.7292)
(2570.72 -662.192 4.87742)
(2787.88 -607.921 16.328)
(3054.68 -595.594 28.7888)
(3335.4 -604.19 20.5806)
(3606.32 -621.585 7.86081)
(3877.6 -627.273 -3.63778)
(4223.23 -598.499 -21.9569)
(-6161.56 -3538.45 245.323)
(-4563.83 -3733.78 388.688)
(-3613.04 -3576.6 183.568)
(-2936.68 -3547.15 32.41)
(-2135.91 -5313.33 22.0978)
(-636.987 -6195.63 0.0866979)
(807.643 -6170.32 -24.472)
(2279.75 -5182.43 -12.2122)
(2697.18 -2706.84 20.0547)
(1935.17 -1065.61 38.793)
(1781.34 -651.128 19.957)
(1975.08 -542.624 25.5866)
(2216.74 -512.826 12.2416)
(2552.51 -481.623 -2.25034)
(2937.18 -459.231 9.91198)
(3339.98 -439.987 26.2783)
(3712.17 -429.452 11.2771)
(4000.14 -482.762 1.84534)
(4252.76 -524.652 -6.11722)
(4462.66 -501.269 -10.1697)
(-5939.97 -2896.91 130.543)
(-4178.52 -3339.51 51.2195)
(-3413.08 -2920.28 -49.0909)
(-2814.85 -2846.38 15.0841)
(-2489.74 -4474.18 -11.7317)
(-1227.44 -6062.48 2.04679)
(398.041 -6382.48 -48.5559)
(1927.94 -5597.25 -13.4393)
(2512.09 -2667.9 21.3152)
(1449.92 -528.737 9.64121)
(1691.88 -553.492 -4.0007)
(1974.84 -572.575 4.6846)
(2311.72 -583.379 18.4119)
(2664.26 -571.792 14.8194)
(3116.73 -515.942 -6.9197)
(3669.94 -447.435 -6.53038)
(4204.77 -400.561 29.2487)
(4576.13 -265.147 2.61714)
(4853.08 -233.455 -69.1194)
(4899.92 -254.366 -88.6969)
(-6277.51 -1799.79 -14.3798)
(-5458.01 -1974.23 -61.858)
(-5071.58 -2095.74 -53.4365)
(-4062.55 -2431.45 -35.0993)
(1211.35 -427.937 -4.38937)
(2188.12 -464.418 -17.8848)
(2334.54 -471.283 -23.8289)
(2461.36 -463.99 -26.5649)
(2604.28 -449.97 -22.6027)
(2778.72 -444.349 -21.0577)
(3007.14 -435.195 -18.3585)
(3344.64 -388.693 -14.4358)
(3887.86 -261.669 -41.3515)
(4624.36 -163.612 -8.35557)
(5146.4 -63.4785 1.01841)
(5443.63 70.1504 -94.0934)
(-6215.43 -497.423 -38.6087)
(-5978.55 -605.002 -55.3002)
(-6002.83 -637.084 -43.8596)
(-5902.07 -1203.07 -10.2269)
(2783.76 -307.456 -27.1392)
(2906.64 -179.201 -22.1089)
(2861.24 -168.611 -21.9644)
(2835.85 -161.892 -21.0857)
(2847.01 -156.814 -19.3575)
(2885 -150.079 -20.7057)
(2958.36 -136.752 -22.6958)
(3108.05 -116.257 -10.4443)
(3387.11 -76.9967 -16.9836)
(3881.95 20.705 -32.2526)
(4636.7 271.695 71.8382)
(5434.55 427.192 1.33831)
(-6023.14 692.027 -77.9163)
(-5934.98 652.299 -71.1728)
(-6011.82 779.85 -42.2258)
(-6220.45 396.458 -63.7686)
(3041.06 30.4304 -28.552)
(2964.01 146.899 -19.6583)
(2920.21 134.601 -20.9219)
(2891.24 122.799 -22.329)
(2863.33 119.759 -19.5622)
(2870.32 123.277 -16.8078)
(2891.76 130.734 -20.1501)
(2943.32 143.946 -24.3275)
(3051.72 167.645 -16.9238)
(3282.38 218.575 -30.7448)
(3770.16 342.603 2.62903)
(4819.51 640.34 27.027)
(-5409.79 1894.01 -52.044)
(-5218.23 2046.7 -62.3124)
(-5065.53 2202.5 -34.1782)
(-5451.36 1872.41 -49.9609)
(2640.08 366.776 -19.5255)
(2150.91 456.238 -21.0416)
(2254.68 455.405 -17.4702)
(2312.73 443.436 -1.70948)
(2349.33 428.76 -2.09234)
(2402.94 416.608 -14.5775)
(2465.58 407.956 -17.7874)
(2553.55 402.931 -16.9149)
(2660.71 401.211 -7.84272)
(2808.74 417.751 -8.40375)
(3066.07 477.964 -0.53539)
(3938.73 721.25 28.3623)
(-4398.71 2725.4 -61.3169)
(-3549.92 2794.94 -41.0938)
(-2687.19 2626.4 -27.8003)
(-2625.7 2440.8 -46.2391)
(-416.767 1183.56 -17.0696)
(-292.264 2693.45 -25.9936)
(40.0067 2912.85 -25.6654)
(358 2507.9 -19.7104)
(277.529 266.502 0.709892)
(574.456 293.305 3.97772)
(930.007 402.041 11.9518)
(1240 479.932 -12.2305)
(1496.88 524.514 -28.5977)
(1693.74 549.162 -17.5242)
(1870.1 560.484 8.80834)
(2009.28 562.056 14.4919)
(2146.24 568.394 1.58859)
(2305.66 570.849 -17.7695)
(2490.32 590.394 -12.3465)
(3113.56 776.047 10.3986)
(-3234.91 2963.76 -48.7887)
(-1963.93 2525.45 -12.8055)
(-1048.83 1863.39 -1.00744)
(-518.053 1384.67 -9.59061)
(-446.422 2097.86 -16.1472)
(-164.986 2787.35 -18.719)
(154.034 2814.83 -16.6829)
(444.434 2032.87 -16.6818)
(297.835 585.964 1.07962)
(179.316 182.82 12.1151)
(282.897 196.606 -7.36138)
(496.028 289.461 -18.3005)
(764.65 401.999 -5.22904)
(1025.69 487.957 20.3878)
(1250.67 548.06 21.6982)
(1458.93 589.198 -2.40342)
(1653.76 616.105 -11.6763)
(1846.11 646.985 -18.5718)
(2026.76 657.183 -10.4553)
(2496.63 800.162 4.36106)
(-2320.39 2914.1 -38.35)
(-1161.04 2210.54 -25.1316)
(-639.244 1683.69 -3.60932)
(-542.947 1606.66 -15.2604)
(-455.588 2242.15 -21.4825)
(-154.861 2743.57 -19.3014)
(141.646 2778.26 -18.7586)
(444.712 2141.4 -11.8191)
(397.328 927.044 9.22128)
(209.099 305.81 -6.80633)
(167.675 171.442 -12.2022)
(228.178 181.062 3.38601)
(362.616 252.418 14.9109)
(543.544 345.352 10.8701)
(756.35 436.83 -7.56371)
(992.005 523.455 -24.7551)
(1212.8 593.455 -7.68734)
(1416.83 639.617 11.9951)
(1587.36 668.677 -0.334376)
(1984.24 781.511 -1.03742)
(-1722.84 2808.79 -12.0953)
(-844.351 2112.95 3.07597)
(-545.499 1876.49 1.045)
(-564.294 1871.89 -6.53036)
(-451.737 2363.58 -21.3237)
(-147.947 2718.66 -20.8294)
(130.697 2754.42 -18.2848)
(433.817 2206.57 -0.37716)
(475.831 1235.73 -12.2534)
(302.33 519.119 -17.1648)
(186.66 241.317 4.15396)
(171.645 174.075 14.6282)
(203.238 171.183 7.13311)
(284.62 212.44 -9.04512)
(433.974 305.668 -11.8469)
(627.022 410.357 -5.02884)
(841.71 508.263 12.4961)
(1039.89 580.832 12.7904)
(1208.82 632.938 -15.518)
(1575.34 747.679 -15.9873)
(-1378.46 2784.07 -21.7834)
(-740.418 2277.81 -9.27575)
(-521.198 2116.58 -7.2944)
(-585.866 2191.2 1.67386)
(-436.381 2496.27 -17.2046)
(-142.862 2728.54 -20.8585)
(126.04 2737.89 -15.472)
(421.55 2250.68 -5.32211)
(519.243 1481.84 -24.2499)
(412.323 785.55 -2.55877)
(262.82 378.079 14.5463)
(174.368 210.52 6.71863)
(188.188 190.49 -8.87337)
(223.491 196.028 -11.1705)
(294.455 238.851 2.90306)
(414.844 315.177 14.8522)
(570.541 409.201 14.3178)
(750.087 498.717 7.75914)
(921.504 575.241 -3.87733)
(1263.74 703.442 0.364675)
(-1211.74 2929.28 -20.3424)
(-662.933 2494.57 -16.6051)
(-499.697 2460.65 -17.8492)
(-589.481 2521.17 1.89294)
(-428.124 2656.81 -17.0142)
(-137.428 2764.74 -23.2221)
(127.277 2749.51 -14.9973)
(407.933 2307.38 -16.8913)
(543.257 1671.77 -12.1388)
(492.875 1040.84 20.6198)
(357.649 564.419 9.39089)
(223.034 298.206 -9.16148)
(196.293 228.25 -10.8321)
(223.402 226.329 -0.550108)
(263.932 239.31 11.2572)
(318.532 267.637 11.6736)
(413.613 330.42 3.36145)
(555.791 418.785 2.75699)
(710.276 508.294 1.87625)
(1016.4 650.028 2.02536)
(-1075.85 3081.41 -8.27737)
(-606.497 2729.55 0.132247)
(-485.391 2875.78 -0.579675)
(-551.48 2944.99 -12.5617)
(-421.348 2867.43 -15.2098)
(-126.088 2832.74 -24.8465)
(133.256 2776.48 -19.6033)
(399.235 2364.8 -19.0671)
(552.747 1840.46 8.84238)
(551.973 1263.17 18.9816)
(452.164 784.457 -8.09302)
(322.834 458.036 -11.3085)
(249.14 306.565 2.63999)
(239.958 264.295 10.4622)
(264.028 263.704 14.3367)
(296.053 272.259 8.47057)
(353.149 303.613 -0.566889)
(451.647 374.65 4.07242)
(573.673 456.857 10.9543)
(837.509 600.606 10.503)
(-993.791 3285.93 4.75772)
(-602.804 3019.46 19.0637)
(-483.371 3314.15 28.845)
(-488.449 3498.29 -6.59256)
(-383.333 3179 -13.7637)
(-107.722 2969.09 -15.8315)
(144.999 2831.45 -22.8129)
(393.778 2442.65 -19.2272)
(554.259 1972.17 8.54209)
(594.518 1476.63 -5.46638)
(541.597 1030.12 -24.5188)
(431.747 662.162 -5.30094)
(331.634 436.829 13.6099)
(277.221 327.889 10.3502)
(272.274 296.414 7.6543)
(298.186 299.554 0.704007)
(346.675 323.731 -0.852739)
(417.351 371.479 11.1281)
(497.231 421.632 18.3821)
(700.844 547.947 16.0187)
(-930.304 3510.35 -0.803187)
(-616.628 3302.42 16.8408)
(-458.505 3692.39 25.91)
(-454.958 4084.46 51.6083)
(-268.679 3696.88 -37.4986)
(-72.954 3233.44 -23.5281)
(166.451 2939.38 -16.2002)
(391.818 2545.1 -12.6794)
(557.124 2107.5 -4.28932)
(621.692 1672.79 -14.5929)
(612.493 1257.77 -7.56914)
(533.901 887.317 13.4727)