/*--------------------------------*- C++ -*----------------------------------*\
  =========                 |
  \\      /  F ield         | OpenFOAM: The Open Source CFD Toolbox
   \\    /   O peration     | Website:  https://openfoam.org
    \\  /    A nd           | Version:  9
     \\/     M anipulation  |
\*---------------------------------------------------------------------------*/
FoamFile
{
    format      ascii;
    class       volScalarField;
    location    "0.006";
    object      T;
}
// * * * * * * * * * * * * * * * * * * * * * * * * * * * * * * * * * * * * * //

dimensions      [0 0 0 1 0 0 0];

internalField   nonuniform List<scalar> 
9720
(
1189.91
1186.23
1187.1
1154.99
1130.89
1122.38
1116.3
1098.14
1072.75
1052.77
1037.73
1029.12
1029.98
1033.11
1037.63
1042.96
1048.82
1054.61
1058.74
1063
1186
1183.26
1183.72
1118.6
1104.94
1115.7
1114.77
1092.52
1049.76
1012.78
991.294
988.755
994.482
1004.63
1017.05
1026.99
1035.94
1043.65
1048.91
1052.74
1186.18
1185.31
1112.88
1072.03
1094.31
1117.86
1118.49
1092.51
1034.8
990.301
981.886
987.263
994.037
1005.54
1021.69
1038.11
1050.14
1058.38
1061.6
1061.35
1154.54
1117.88
1071.06
1044.39
1069.27
1118.13
1125.7
1108.79
1029.29
937.606
941.927
953.061
966.206
981.389
1000.84
1024.84
1048.55
1068.29
1072.99
1070.89
1129.19
1101.06
1089.81
1067.3
924.539
930.273
936.729
943.352
951.199
960.595
972.352
989.087
1016.28
1049.44
1072.45
1076.41
1119.07
1111.31
1113.91
1114.09
953.595
955.147
953.769
953.816
954.792
956.988
960.865
968.504
982.989
1007.55
1041.77
1066.65
1112.71
1110.34
1114.16
1122.07
961.991
954.651
953.202
951.802
950.508
950.647
951.682
954.535
960.982
974.566
998.312
1041.72
1094.45
1087.99
1087.42
1104.34
943.399
916.122
919.602
920.856
922.067
924.205
927.494
932.077
938.432
948.195
963.099
1008.32
1068.93
1044.83
1028.99
1019.32
916.306
950.31
958.424
938.21
860.613
863.284
872.224
879.902
886.612
893.01
899.384
905
911.38
920.413
931.737
971.247
1049.5
1008.73
985.583
933.954
927.015
951.962
950.586
910.353
858.931
847.598
847.583
854.766
864.192
870.638
875.131
880.483
886.948
896.195
906.867
940.95
1033.54
987.057
980.625
939.453
933.798
950.258
949.143
915.604
869.157
848.007
831.12
835.951
843.547
848.592
853.214
861.553
871.337
880.089
888.396
916.334
1025.78
986.225
985.813
951.231
940.882
950.317
947.597
917.657
877.937
854.688
836.727
825.424
827.608
836.636
849.266
859.358
865.022
869.535
873.736
896.036
1027.28
992.249
991.497
964.279
949.275
951.424
947.121
919.389
885.508
863.231
845.196
829.009
830.405
839.341
852
859.555
860.863
862.591
865.796
884.966
1031.51
1002.96
1002.05
978.969
958.871
953.873
947.587
921.926
892.65
870.194
850.144
837.838
839.644
846.336
852.037
855.139
857.265
862.743
867.112
881.439
1036.51
1016.17
1018.55
997.573
970.517
958.091
949.155
925.512
899.384
875.998
855.591
849.73
852.267
852.185
851.342
852.509
857.112
866.15
871.693
880.975
1042.13
1026.84
1036.21
1021.31
986.698
965.97
952.646
930.408
905.217
882.495
864.744
860.087
859.709
855.832
852.82
854.194
859.496
869.737
874.329
881.5
1048.1
1035.94
1049.34
1045.53
1012.69
980.433
959.778
937.22
911.989
889.564
874.637
866.795
861.76
858.37
857.996
860.062
864.756
871.443
874.422
882.145
1053.79
1043.56
1057.69
1065.68
1045.3
1004.68
973.677
947.508
921.566
899.082
883.537
872.289
864.341
864.217
867.565
871.405
872.76
873.641
875.088
884.073
1057.6
1048.42
1060.72
1070.94
1068.23
1038.25
997.538
962.881
933.392
909.95
892.069
877.168
868.316
869.254
873.538
876.655
876.595
876.459
877.952
887.269
1061.26
1051.6
1060.24
1069.18
1073.88
1063.36
1039.62
1007.42
972.561
943.789
920.005
900.162
888.926
885.415
884.267
884.769
885.165
886.792
889.397
897.373
1186.76
1182.95
1182.27
1147.36
1122.93
1117.02
1111.58
1093.69
1067.92
1047.49
1032.84
1023.18
1023.58
1026.55
1031.29
1036.8
1042.86
1048.91
1053.56
1058.21
1183.38
1180.57
1171.25
1107.97
1098.8
1111.62
1111.02
1088.86
1045.75
1008.18
987.563
983.183
988.28
998.05
1010.37
1020.47
1029.54
1037.78
1043.95
1048.38
1182.84
1176.38
1097.42
1062.4
1091.52
1114.94
1115.35
1089.1
1031.36
985.662
977.178
982.828
989.307
999.609
1014.46
1030.5
1043.18
1052.75
1057.81
1057.8
1148.4
1108.5
1061.39
1034.97
1071.95
1113.79
1121.94
1104.95
1026.71
932.522
935.317
945.312
958.118
973.039
992.018
1015.75
1039.69
1060.85
1068.91
1067.4
1122.13
1094.87
1084.92
1059.31
924.38
923.788
928.869
934.434
941.673
950.699
962.196
978.37
1004.36
1038.06
1063.68
1071.99
1113.6
1106.9
1110.75
1110.36
946.527
948.252
946.134
944.975
945.473
947.022
950.282
957.172
970.406
993.514
1028.06
1058.51
1107.97
1106.6
1111.29
1118.5
954.745
947.46
945.191
943.088
941.022
940.496
941.13
943.5
949.089
961.107
983.339
1029.46
1089.91
1084.65
1084.96
1101.17
936.219
908.56
911.462
911.637
911.801
913.108
916.009
920.393
926.398
935.347
948.6
993.313
1063.98
1041.29
1026.62
1019.06
915.801
943.369
951.489
930.76
872.698
861.853
864.553
869.264
875.645
881.668
887.488
892.725
898.785
907.516
918.047
955.806
1043.63
1003.81
981.574
930.164
920.909
945.175
943.562
902.683
858.586
856.494
847.195
851.265
857.659
861.797
864.568
869.013
874.965
883.477
893.371
925.478
1028.74
982.803
973.46
933.104
926.359
942.998
941.461
907.24
862.71
848.844
836.265
838.291
840.94
843.041
845.606
852.048
859.858
867.322
875.065
901.79
1019.86
979.582
979.172
942.66
931.97
941.87
939.503
908.619
868.621
852.434
839.376
824.204
824.276
831.566
842.414
849.346
853.819
858.258
862.471
883.243
1020.9
985.15
985.04
954.811
939.112
942.403
937.832
909.511
875.509
857.51
842.556
825.835
826.173
833.779
843.687
850.032
852.612
854.987
857.669
873.863
1024.98
995.824
995.118
968.885
947.921
944.051
937.854
911.425
881.999
862.144
845.298
833.719
834.54
838.805
843.897
848.533
851.255
855.82
859.308
871.767
1030.11
1009.28
1010.96
986.929
958.99
947.392
938.699
914.432
888.143
866.338
849.035
843.753
844.473
844.44
844.694
845.815
850.58
858.92
863.529
873.367
1035.71
1019.92
1028.24
1010.94
974.463
954.236
941.413
918.676
893.626
872.134
856.479
851.538
851.384
849.76
846.425
847.461
852.733
861.734
866.857
875.35
1041.56
1028.69
1041.32
1035.95
999.798
967.239
947.352
924.755
899.924
878.892
864.716
857.133
854.346
852.766
851.79
853.504
857.426
863.603
867.995
877.012
1047.21
1036.5
1050.63
1057.3
1033.72
990.543
959.657
934.046
908.939
887.598
872.362
862.351
857.051
857.421
860.55
863.382
864.798
867.276
869.803
879.151
1051.34
1042.12
1055.11
1065.64
1059.26
1024.62
982.246
947.945
919.783
897.335
880.089
866.982
860.214
861.238
864.955
868.633
869.921
871.002
872.88
881.389
1055.3
1045.91
1054.95
1064.32
1068.57
1054.99
1027.4
992.797
957.532
928.922
906.168
887.88
877.796
875.004
875.834
877.507
879.28
881.41
883.133
889.784
1188.15
1185.53
1185.35
1144.22
1118.12
1114.85
1109.95
1092.02
1066.36
1045.72
1031.76
1021.82
1021.78
1024.45
1029.34
1035.03
1041.19
1047.36
1052.17
1056.93
1185.48
1185.77
1156.18
1098.84
1095.45
1110.41
1109.96
1087.47
1045.06
1007.53
988.361
984.461
988.726
997.465
1008.53
1018.27
1027.35
1035.95
1042.5
1047.27
1185.26
1165.09
1081.16
1054.79
1089.89
1113.77
1114.06
1087.51
1030.98
985.981
979.11
985.912
993.197
1001.48
1013.52
1027.94
1040.47
1051.41
1057.52
1057.53
1144.41
1098.36
1052.33
1027.43
1070.92
1112.12
1120.35
1103.3
1022.67
931.352
933.175
942.646
956.353
971.894
990.853
1014.47
1038.23
1059.74
1069.91
1068.47
1116.5
1090.46
1082.89
1056.9
917.588
919.004
923.298
928.349
935.724
945.538
957.961
974.246
999.12
1033.04
1062.2
1073.39
1110.98
1105.65
1109.41
1108.83
941.034
943.657
941.123
940.368
941.001
942.581
945.596
951.869
963.711
984.735
1019.83
1057.16
1106.29
1106.02
1110.42
1116.6
949.065
942.488
939.947
937.992
936.325
935.94
936.509
938.618
943.279
953.171
973.119
1022.88
1088.37
1083.88
1084.42
1099.84
929.674
902.839
905.256
906.014
906.393
907.784
910.659
914.892
920.446
928.258
939.526
982.943
1062.41
1041.34
1027.79
1019.39
915.17
938.131
945.223
924.756
878.884
860.335
861.444
863.912
868.987
874.955
881.593
887.755
893.628
901.416
910.552
945.067
1041.14
1002.63
981.293
926.796
916.703
940.596
938.535
897.215
858.617
859.769
849.065
850.766
854.866
859.42
862.346
866.443
872.095
879.054
887.042
914.944
1026.78
981.319
971.241
928.081
920.76
938.424
936.286
900.453
859.249
852.055
842.001
842.345
844.694
846.844
848.59
852.709
858.642
864.898
870.391
892.829
1017.48
979.191
978.627
936.577
925.175
937.306
934.608
902.267
862.003
852.904
844.778
831.037
828.964
834.985
844.228
851.293
854.204
856.132
858.508
875.535
1018.24
984.248
986.726
949.376
931.668
937.892
933.248
903.377
867.387
855.232
846.695
831.1
829.969
834.965
845.425
853.046
854.52
856.272
857.962
869.927
1021.99
994.257
996.015
964.143
940.776
939.549
933.298
905.407
873.532
858.537
847.667
837.41
836.535
839.624
845.985
851.656
854.984
858.276
860.501
871.144
1027.45
1006.82
1009.83
982.459
952.589
942.527
933.992
908.411
880.274
861.527
849.081
845.95
846.966
846.652
847.756
850.016
854.864
862.502
866.714
875.013
1033.42
1017.8
1026.16
1006.87
968.056
948.489
936.218
912.234
886.573
866.565
853.845
851.718
853.325
852.594
850.727
851.929
857.108
867.179
872.326
878.871
1039.7
1026.98
1039.5
1033.47
992.418
959.951
940.921
917.513
892.799
873.187
860.688
855.238
855.072
855.799
856.036
857.953
862.468
869.254
873.525
881.403
1045.85
1035.61
1050.76
1056.54
1027.5
981.035
950.937
925.537
901.081
880.901
867.726
858.353
857.329
858.887
863.464
868.521
870.442
872.705
875.536
884.53
1050.29
1041.89
1056.45
1067.6
1058.32
1016.1
971.149
937.493
910.811
889.383
873.809
861.452
859.52
861.522
867.42
873.614
875.011
876.364
878.554
887.744
1054.15
1045.61
1056.12
1066.37
1070.66
1053.89
1020.64
982.033
946.252
917.859
896.644
879.309
873.306
873.898
876.763
880.498
883.116
886.09
889.012
897.275
1190.18
1187.58
1186.9
1141.58
1114.93
1113.99
1109.72
1091.65
1065.42
1044.39
1030.88
1021.41
1021.77
1024.89
1030.12
1035.94
1042.08
1048.22
1052.96
1057.04
1187.36
1188.98
1141
1091.81
1093.13
1109.98
1110.54
1087.36
1044.33
1005.55
986.935
985.129
989.735
998.9
1010.06
1019.71
1028.57
1037.07
1043.6
1047.81
1187.82
1149.74
1070.47
1049.75
1088.47
1113.24
1114.17
1087.35
1030.29
984.058
979.043
986.986
996.194
1004.91
1016.27
1030.09
1042.06
1053.26
1059.28
1058.99
1140.8
1089.75
1046.77
1025.09
1065.01
1111.32
1119.91
1102.8
1018.97
931.659
932.21
940.608
954.365
970.228
989.59
1014.51
1039.84
1061.94
1072.2
1070.82
1112.23
1088.46
1083.57
1061.53
899.111
917.502
921.285
925.281
931.479
940.534
952.744
969.097
993.982
1028.38
1062
1076.01
1109.79
1105.67
1109.54
1108.15
938.554
941.502
939.326
937.74
938.042
939.19
941.459
946.629
957.424
976.324
1010.85
1056.14
1105.67
1106.46
1110.43
1116.21
946.118
940.202
937.715
935.524
933.931
932.623
932.75
934.011
937.525
945.35
962.328
1015.22
1087.86
1083.75
1084.16
1099.31
926.609
900.648
901.682
902.502
902.988
904.01
906.298
909.645
914.193
920.76
930.171
971.53
1062.01
1041.49
1027.88
1017.44
910.067
936.634
943.193
922.542
886.857
862.175
861.567
862.412
865.661
870.937
877.226
883.393
888.992
895.552
903.278
934.044
1040.53
1002.74
981.89
928.431
916.995
940.373
938.066
895.923
859.398
862.579
849.884
850.927
853.474
857.317
860.716
864.749
870.152
876.16
882.645
906.15
1026.36
981.46
971.984
928.927
920.72
938.254
935.836
898.981
858.295
855.993
850.651
845.405
846.75
849.608
851.481
854.459
858.189
863.825
868.435
886.709
1017.14
980.008
980.074
936.754
924.476
936.673
934.147
901.11
859.543
853.189
848.872
835.494
834.829
839.914
846.825
850.762
852.407
855.217
857.357
871.116
1017.44
984.693
990.036
949.857
930.317
937.04
932.815
902.335
863.314
853.929
849.794
837.644
832.357
834.258
841.866
850.39
853.132
855.491
857.375
868.196
1020.42
994.125
998.996
964.852
938.99
938.46
932.299
903.904
869.021
856.285
850.157
842.202
835.678
835.726
841.424
848.626
853.757
858.065
860.188
870.048
1025.81
1005.79
1010.77
983.368
950.727
940.968
932.63
906.425
875.854
859.023
850.255
847.286
844.542
842.857
844.887
849.722
855.537
862.74
866.637
874.933
1031.86
1016.19
1025.48
1007.62
966.284
946.152
934.093
909.681
882.712
863.31
852.713
850.442
851.943
850.776
850.898
854.042
859.936
868.916
874.322
880.744
1038.29
1025.33
1038.23
1033.55
989.396
956.59
937.694
914.18
889.108
869.654
857.629
852.63
854.046
855.284
856.959
860.922
865.867
872.495
876.453
884.273
1044.71
1034.32
1050.41
1057.36
1022.79
974.544
945.482
920.853
896.256
876.989
865.016
856.101
856.406
859.114
864.495
870.822
873.68
875.651
878.854
888.762
1049.61
1041.33
1057.47
1069.92
1058.04
1007.95
962.18
930.505
904.63
884.587
870.496
858.606
858.491
861.492
868.489
876.448
878.317
879.706
882.794
893.556
1053.44
1045.31
1057.16
1068.94
1073.99
1053.82
1014.18
972.033
936.368
909.332
889.641
873.139
870.455
872.448
877.364
883.309
886.719
890.467
894.697
905.061
1191.59
1188.82
1187.43
1139.67
1113.2
1113.64
1109.67
1091.56
1064.69
1043.06
1029.54
1021.02
1021.48
1024.8
1030.49
1036.83
1043.13
1049.23
1053.93
1057.84
1188.53
1191.1
1133.36
1087.73
1093.73
1110.59
1111.24
1087.73
1043.95
1003.77
983.635
984.722
989.885
999.395
1011.14
1021.28
1030.11
1038.57
1045.05
1048.96
1189.19
1141.16
1066.24
1047.43
1090.66
1114.12
1114.79
1087.88
1029.65
981.609
976.083
985.103
995.938
1005.82
1017.75
1031.82
1043.71
1055.41
1061.32
1060.71
1139.11
1086.12
1044.82
1023.22
1066.35
1111.75
1120.45
1103.59
1018.21
930.955
931.188
939.152
952.749
968.659
988.237
1014.13
1040.75
1064.3
1074.9
1073.3
1110.65
1087.78
1083.39
1060.24
913.377
916.053
920.281
924.249
930.04
938.583
950.379
966.681
991.407
1026.15
1062.48
1078.55
1109.38
1105.64
1109.76
1108.5
936.902
939.115
937.432
936.022
936.276
937.376
939.483
944.238
954.667
972.365
1005.34
1055.58
1105.74
1106.92
1110.83
1116.44
943.56
937.44
935.52
933.712
932.506
931.327
931.358
932.265
935.284
942.082
956.943
1010.28
1087.87
1083.92
1084.37
1099.67
924.412
897.213
898.866
900.027
901.046
902.339
904.597
907.534
911.647
917.671
926.041
964.764
1061.76
1041.19
1027.36
1016.53
912.07
938.34
944.401
922.483
885.88
862.674
860.254
861.137
863.892
868.648
874.566
880.815
886.857
893.311
900.409
928.031
1040.36
1002.25
981.365
930.53
917.964
940.926
938.23
895.19
860.764
865.07
850.248
849.335
851.577
855.718
859.353
863.678
869.197
875
880.899
901.667
1026.44
982.285
973.999
930.879
921.699
938.757
936.082
898.284
858.817
857.987
851.76
846.274
848.393
850.741
851.953
853.225
856.419
862.997
867.74
883.724
1017.79
981.074
982.269
938.378
925.267
936.979
934.226
900.653
859.807
852.821
850.583
840.65
840.899
842.926
845.922
849.292
851.724
855.188
857.325
869.211
1016.99
985.574
992.869
951.34
930.763
937.237
933.054
902.321
862.71
853.583
852.157
843.75
832.565
830.894
837.267
849.162
853.264
855.793
857.666
867.736
1019.81
994.754
1001.74
966.177
938.932
938.422
932.394
904.029
867.955
856.023
852.247
845.667
833.302
830.639
837.051
847.094
853.257
858.219
860.465
869.77
1025.09
1005.65
1012.23
984.794
950.207
940.551
932.603
906.518
874.944
858.935
852.229
847.42
841.11
838.631
841.799
848.635
855.01
862.592
867.128
875.601
1030.96
1015.23
1025.35
1009.13
965.632
945.155
933.67
909.511
882.152
863.586
852.824
850.26
851.705
849.491
849.902
854.374
860.574
870.502
876.798
882.875
1037.15
1024.23
1037.47
1034.37
988.647
955.17
936.649
913.479
888.633
869.883
856.638
852.864
854.916
855.13
856.221
861.047
867.506
875.426
879.032
885.758
1043.45
1033.16
1049.81
1057.87
1020.94
971.761
943.278
919.249
895.388
876.818
864.841
856.669
857.151
859.439
863.829
871.718
876.272
878.35
880.728
889.743
1048.35
1040.21
1057.21
1070.32
1056.98
1003.02
957.745
927.446
902.785
883.612
870.388
858.957
859.069
861.855
869.217
879.514
880.687
881.407
883.986
895.843
1052.12
1044.11
1056.87
1069.47
1074.81
1052.65
1009.51
965.881
930.943
905.392
887
871.039
869.668
872.086
878.873
886.381
888.159
891.184
896.885
910.393
1191.57
1188.58
1187.17
1139.37
1113.01
1113.56
1109.61
1091.51
1064.65
1042.87
1029.07
1020.82
1021.44
1024.97
1030.76
1037.17
1043.64
1049.88
1054.59
1058.38
1188.76
1191.15
1132.38
1086.94
1094.38
1110.81
1111.25
1087.74
1044.02
1003.81
983.129
984.233
989.465
999.096
1010.98
1021.4
1030.53
1039.24
1045.73
1049.45
1189.6
1140.55
1065.17
1046.73
1091.84
1114.27
1114.69
1087.83
1029.71
982.04
975.649
984.706
995.871
1005.51
1017.28
1031.63
1044.03
1056.21
1062.03
1061.29
1138.91
1085.14
1043.99
1021.49
1071.36
1112.42
1120.56
1104.01
1018.34
930.687
931.111
939.165
952.754
968.609
987.884
1013.78
1041.21
1065.05
1075.39
1073.75
1110.51
1087.1
1082.35
1055.74
910.819
915.515
919.926
924.057
929.929
938.404
950.011
966.183
990.942
1025.81
1062.56
1078.72
1109.33
1105.45
1109.62
1108.72
934.801
938.545
936.817
935.53
935.857
937.003
939.052
943.669
953.997
971.613
1004.7
1055.58
1105.73
1106.86
1110.92
1116.75
940.766
936.536
934.677
932.995
931.936
930.867
930.913
931.744
934.613
941.193
955.951
1009.61
1087.77
1083.85
1084.48
1100.05
921.295
895.864
897.652
899.043
900.174
901.612
903.956
906.837
910.864
916.831
925.156
963.878
1061.63
1041.26
1027.81
1018.93
918.539
937.351
943.353
921.785
898.783
862.176
858.663
859.56
862.285
867.282
873.54
880.034
886.041
892.394
899.486
927.14
1040.37
1002.26
981.532
929.848
916.351
939.914
937.663
895.253
862.163
866.046
852.123
848.295
850.374
854.032
857.812
862.286
867.748
873.65
879.809
900.929
1026.54
982.607
975.061
930.333
920.508
938.073
935.706
898.149
859.636
857.812
851.69
845.789
847.276
848.954
850.121
851.476
854.872
861.329
866.065
882.47
1017.83
981.645
983.172
938.147
924.491
936.671
934.053
900.224
860.418
853.126
850.519
840.083
839.53
841.324
844.458
847.723
850.065
853.409
855.619
867.696
1017.3
986.135
993.531
951.289
930.245
937.007
932.96
901.769
863.204
853.868
852.065
843.013
831.628
831.633
837.036
847.904
851.83
854.356
856.158
866.425
1020.09
995.289
1002.37
966.314
938.67
938.302
932.44
903.682
868.303
856.179
852.469
845.573
833.817
831.098
836.858
846.473
852.395
857.258
859.509
868.649
1025.32
1006.18
1012.94
985.292
950.309
940.536
932.687
906.404
874.662
859.067
852.524
847.98
841.542
838.475
841.49
848.312
854.749
862.447
866.897
874.989
1031.07
1015.62
1026.06
1010.07
965.989
945.31
933.856
909.498
881.569
863.469
853.542
850.577
851.346
849.071
849.655
854.426
861.073
870.529
877.028
882.884
1037.03
1024.39
1037.91
1035.45
989.416
955.506
936.868
913.435
888.204
869.85
857.324
853.031
855.039
855.182
856.6
861.589
867.858
875.643
879.351
885.863
1043.09
1032.99
1049.89
1058.51
1022.01
972.301
943.588
919.255
895.187
876.804
864.847
857.152
857.827
860.069
864.242
871.673
876.395
878.677
881.041
889.864
1047.79
1039.62
1056.7
1070.15
1057.07
1003.19
958.027
927.464
902.755
883.511
870.298
859.533
859.681
862.417
869.314
879.289
880.748
881.612
884.287
895.943
1051.58
1043.51
1056.27
1069.1
1074.75
1052.03
1008.72
965.012
930.527
904.87
886.951
871.507
870.174
872.526
878.953
886.533
888.438
891.579
897.291
910.509
1190.16
1187.18
1186.28
1140.87
1114.43
1113.88
1109.54
1091.57
1064.99
1043.72
1030.24
1021.27
1021.76
1025.06
1030.41
1036.39
1042.72
1049.01
1053.91
1058.05
1187.69
1189.13
1138.71
1090.55
1094.58
1110.49
1110.71
1087.41
1043.79
1004.17
984.566
984.211
988.946
998.437
1009.87
1019.78
1028.88
1037.67
1044.45
1048.71
1188.58
1148.96
1069.05
1048.15
1091.38
1113.65
1114.09
1087.35
1029.37
982.202
976.522
985.108
995.051
1003.98
1015.54
1029.67
1042.01
1053.97
1060.26
1059.89
1140.89
1088.57
1045.73
1022.09
1071.21
1111.59
1119.58
1103.4
1017.63
929.997
930.913
939.789
953.921
970.003
989.302
1014.38
1040.18
1062.85
1073.19
1071.76
1111.93
1087.16
1081.67
1055.38
910.628
916.186
920.299
924.516
930.858
939.818
951.712
968.042
992.907
1027.66
1062.59
1076.79
1109.39
1105.05
1109.16
1108.27
936.922
939.918
937.55
935.889
936.193
937.286
939.52
944.623
955.365
974.156
1009.53
1056.47
1105.43
1105.97
1110.43
1116.55
943.395
938.131
935.554
933.395
931.966
930.748
930.889
932.057
935.367
942.841
959.627
1013.83
1087.4
1083.22
1083.83
1099.74
923.107
897.041
898.767
900.143
900.94
901.937
904.089
907.342
911.918
918.555
927.894
969.414
1061.3
1040.38
1026.62
1016.15
910.562
936.238
942.853
922.165
890.537
860.227
858.685
859.326
862.304
867.584
874.237
880.785
886.637
893.34
901.076
931.766
1040.46
1001.81
980.371
929.485
916.282
939.913
937.738
895.645
860.85
863.36
851.745
849.768
851.341
854.941
858.194
861.807
867.188
873.397
880.008
903.669
1026.6
982.168
974.345
930.246
920.296
937.769
935.49
898.371
859.285
854.621
848.585
845.148
846.442
847.839
848.373
850.898
854.996
861.192
865.763
883.651
1017.41
980.68
982.27
938.314
924.265
936.065
933.645
900.44
860.12
852.441
847.958
836.328
834.348
837.78
843.808
848.451
850.595
853.529
855.087
868.005
1017.8
985.533
991.566
951.256
930.221
936.363
932.227
901.512
863.283
853.659
849.551
837.377
831.09
833.784
841.442
850.229
852.456
853.957
855.318
866.087
1021
995.035
1000.42
966.38
938.873
937.582
931.521
902.887
868.514
856.524
850.565
841.823
835.328
835.873
842.347
849.629
853.557
857.156
858.949
868.502
1026.32
1006.75
1012.12
985.284
950.643
939.929
931.812
905.331
875.291
859.499
851.136
847.493
844.823
843.807
845.841
850.236
855.945
863.141
866.712
874.386
1032.15
1016.77
1026.63
1010.11
966.405
945.164
933.208
908.581
882.179
863.682
853.803
851.69
853.162
851.805
851.463
854.759
861.169
870.25
875.604
881.014
1038.12
1025.66
1038.97
1035.97
990.514
955.93
936.73
913.025
888.434
869.868
858.613
854.462
855.783
856.228
857.839
862.025
867.336
874.431
877.804
884.408
1043.98
1034.03
1050.62
1059
1024.38
974.283
944.506
919.659
895.502
876.871
865.796
857.924
858.027
860.72
865.833
871.826
875.517
877.349
879.861
888.878
1048.37
1040.24
1056.55
1069.25
1058.68
1008.22
961.343
929.287
903.664
884.076
870.976
860.064
860.141
863.359
870.051
878.042
879.807
880.935
883.778
894.004
1052.08
1043.97
1056.1
1067.95
1073.48
1053.65
1013.36
970.721
935.083
908.442
889.537
873.939
872.092
874.297
879.175
885.003
888.034
891.725
895.984
905.827
1187.94
1184.99
1184.7
1143.7
1117.85
1115.12
1110.04
1092.2
1065.92
1045.13
1031.44
1022.12
1022.49
1025.43
1030.26
1035.94
1042.04
1048.17
1052.94
1057.64
1185.58
1185.5
1152.92
1098.49
1096.2
1111.03
1110.65
1087.83
1044.25
1005.61
986.007
983.853
988.632
997.769
1009.02
1018.88
1027.95
1036.5
1043.03
1047.81
1185.7
1165.02
1079.84
1054.4
1091.26
1114.08
1114.51
1087.87
1029.99
983.424
976.826
984.344
992.349
1001.26
1013.85
1028.34
1040.81
1051.86
1057.89
1057.87
1143.99
1096.95
1051.45
1025.42
1071.63
1111.58
1119.83
1103.33
1018.94
929.633
931.633
941.644
955.846
971.775
991.057
1015.33
1039.52
1060.87
1070.42
1068.84
1115.81
1089.26
1081.78
1056.1
910.068
916.78
921.545
926.904
934.461
944.279
956.643
973.235
998.893
1033.53
1063.25
1073.95
1110.29
1104.87
1109.08
1108.45
936.289
940.788
938.594
937.966
938.586
940.141
943.202
949.616
961.751
983.412
1019.79
1057.8
1105.82
1105.32
1110.21
1116.4
943.868
939.468
937.201
935.402
933.975
933.541
934.044
936.007
940.551
950.403
970.928
1022.31
1087.73
1083.08
1083.77
1099.56
923.834
898.804
901.855
903.081
903.567
904.956
907.81
912
917.612
925.534
937.031
981.505
1061.63
1040.1
1026.43
1018.48
916.629
937.817
944.525
923.45
884.521
860.656
860.05
861.271
865.402
871.615
878.893
885.345
891.288
899.151
908.373
943.407
1040.97
1002
980.622
929.19
917.657
942.03
940.106
898.557
860.489
861.289
848.29
849.399
853.497
857.94
860.529
864.358
869.894
876.893
885.001
913.283
1026.66
981.695
973.402
930.571
922.074
939.74
937.847
901.823
860.953
851.365
840.575
842.501
845.253
846.195
846.535
849.834
856.192
862.961
868.63
891.077
1017.43
979.741
980.589
939.344
926.773
938.406
936.031
903.56
863.171
852.527
844.77
832.186
829.248
834.428
843.522
850.131
852.511
854.241
856.544
873.796
1018.33
984.943
988.299
952.099
933.442
938.936
934.469
904.291
868.038
855.806
847.567
831.448
829.659
834.789
845.864
853.145
853.337
854.52
856.299
868.941
1022.32
995.113
997.832
966.865
942.585
940.459
934.372
905.929
873.958
859.853
848.888
837.3
836.627
840.544
847.412
852.22
854.522
857.285
859.478
870.371
1027.84
1007.91
1011.73
985.279
954.32
943.319
934.934
908.772
880.738
862.812
850.085
846.975
848.419
848.392
849.272
850.871
855.145
862.909
867.155
874.863
1033.7
1018.53
1027.92
1010.16
969.816
949.293
936.987
912.684
887.004
867.271
854.741
853.921
855.76
854.376
851.959
853.094
858.614
869.544
874.054
879.127
1039.74
1027.46
1040.77
1036.74
994.7
960.901
941.48
918.051
893.068
873.562
861.886
857.456
857.061
857.443
857.451
859.889
865.17
871.877
875.105
881.679
1045.54
1035.62
1051.76
1059.32
1029.67
981.843
951.245
926.018
901.213
881.181
869.022
860.012
859.143
860.882
865.864
871.726
873.276
874.695
876.928
885.048
1049.72
1041.39
1056.57
1068.49
1060.38
1017.15
971.329
937.76
910.811
889.547
874.748
862.613
861.547
863.849
870.334
876.808
877.346
878.139
879.997
888.608
1053.51
1045.06
1056.11
1066.91
1071.73
1055.01
1021.05
981.856
945.959
917.759
896.866
880.061
875.276
876.225
879.368
882.917
885.074
887.849
890.674
898.51
1186.58
1182.48
1182.26
1147.55
1123.33
1117.86
1112.17
1094.41
1068.49
1047.89
1033.44
1024.03
1024.51
1027.48
1031.97
1037.16
1042.88
1048.79
1053.54
1058.49
1183.32
1180.36
1167.56
1108.49
1100.16
1112.77
1111.84
1089.71
1046.45
1008.39
987.769
983.703
988.919
998.608
1010.46
1020.02
1028.88
1037.01
1043.32
1048.15
1182.26
1176.75
1096.47
1064.01
1092.98
1115.87
1116.2
1089.96
1032.25
985.803
977.274
983.267
989.668
999.627
1014.14
1029.55
1041.99
1051.56
1056.81
1057.02
1147.13
1106.6
1058.95
1030.42
1072.86
1113.06
1121.62
1104.77
1025.19
931.481
934.374
944.723
958.056
973.539
993.15
1017.08
1040.68
1061.22
1068.41
1066.83
1120.87
1093.2
1083.54
1056.57
917.933
921.654
926.806
932.65
940.288
949.769
961.86
978.975
1006.08
1039.81
1064.31
1071.81
1112.43
1105.7
1109.93
1109.08
939.362
945.883
943.803
943.006
943.575
945.157
948.55
955.856
969.721
994.152
1029.45
1058.98
1107.08
1105.66
1110.67
1116.91
947.256
944.847
942.652
940.619
938.702
938.243
938.898
941.378
947.283
959.92
983.46
1030.02
1088.95
1083.73
1084.3
1100.01
927.674
905.187
908.635
908.985
909.288
910.825
913.911
918.449
924.677
933.973
947.907
993.687
1062.82
1040.31
1026.22
1018.11
914.329
940.25
948.183
927.774
883.622
860.089
862.974
867.444
873.492
879.701
885.869
891.296
897.519
906.475
917.334
956.037
1042.72
1002.74
980.567
930.543
921.438
946.386
944.862
903.957
859.983
856.756
846.689
850.634
856.711
860.742
863.537
868.013
874.008
882.719
892.871
925.633
1027.6
981.634
973.858
933.501
926.842
944.157
942.776
908.425
863.602
848.943
836.539
838.546
841.022
842.653
844.711
850.999
859.285
866.966
874.8
901.77
1019.21
979.31
979.628
943.392
932.488
942.735
940.767
909.521
868.907
852.416
839.504
823.992
823.998
831.387
842.632
849.581
853.767
857.711
861.79
882.997
1020.52
985.125
985.507
955.785
939.707
943.186
938.89
910.026
875.41
857.72
842.478
825.102
825.682
833.641
844.344
850.423
852.475
854.746
857.549
874.171
1025.11
996.299
995.822
970.049
948.658
944.711
938.766
911.6
881.857
862.252
844.646
833.008
834.364
839.297
844.496
848.884
851.492
855.908
859.441
872.072
1030.63
1010.51
1012.33
988.091
959.804
947.915
939.471
914.47
887.92
865.921
847.879
843.818
844.983
844.999
845.297
846.391
851.098
859.651
864.334
873.829
1036.53
1021.64
1030.38
1012.7
975.232
954.626
941.983
918.688
893.156
871.157
855.391
851.748
851.798
850.139
847.052
848.207
853.752
863.342
868.258
875.9
1042.49
1030.61
1043.8
1039.09
1000.86
967.547
947.577
924.69
899.184
877.721
864.057
857.097
854.541
853.307
852.609
854.726
859.169
865.28
869.268
877.533
1048.09
1038.3
1053.69
1060.87
1035.38
990.568
959.452
933.805
908.042
886.554
872.06
862.253
857.481
858.134
861.793
865.4
866.64
868.589
870.849
879.756
1052.05
1043.53
1056.94
1067.8
1061.87
1025.25
981.77
947.371
918.805
896.47
879.801
866.931
860.948
862.258
866.548
870.572
871.321
872.057
873.805
882.145
1055.67
1046.81
1056.3
1065.95
1070.4
1056.39
1027.63
992.072
956.495
928.126
905.755
887.939
878.791
876.29
877.26
878.845
880.326
882.403
884.209
890.911
1189.6
1185.55
1186.63
1154.78
1131.08
1123.4
1117.23
1099.32
1073.9
1053.51
1038.56
1029.71
1030.53
1033.6
1037.87
1042.93
1048.53
1054.22
1058.44
1063.06
1185.98
1182.79
1180.19
1118.82
1106.42
1117.16
1115.82
1093.83
1051.2
1013.87
992.64
989.43
995.027
1004.79
1016.64
1026.24
1034.99
1042.75
1048.16
1052.33
1186.05
1185.93
1111.63
1073.51
1096.72
1119.29
1119.52
1093.65
1036.36
991.571
982.854
988.573
994.937
1005.37
1020.59
1036.55
1048.7
1057.07
1060.86
1060.82
1153.6
1116.11
1067.49
1036.88
1074.57
1115.99
1124.12
1107.27
1028.13
936.577
941.141
952.795
966.551
982.392
1002.27
1025.92
1049.11
1068.22
1072.51
1070.51
1127.97
1098.93
1087.25
1058.92
921.687
928.534
935.012
942.052
950.622
960.803
973.407
991.205
1019.17
1051.64
1072.75
1076.21
1117.45
1109.47
1112.56
1110.64
946.071
953.291
951.965
952.113
953.249
955.581
959.828
968.228
983.758
1009.69
1043.92
1067.03
1111.37
1108.95
1113.01
1118.56
954.3
952.42
950.937
949.426
948.169
948.371
949.62
952.896
960.187
974.937
1000.25
1043.05
1092.99
1086.67
1086.4
1101.55
935.22
913.559
917.218
918.441
919.707
921.949
925.44
930.353
937.219
947.698
963.695
1009.8
1067.29
1043.03
1027.3
1017.52
916.964
945.796
953.704
932.848
865.124
860.367
869.47
877.594
884.636
891.182
897.614
903.404
910.221
919.811
931.8
972.504
1048.11
1006.86
983.746
934.591
927.042
952.198
950.807
910.355
857.664
846.569
846.456
853.627
862.84
869.053
873.557
879.153
885.953
895.758
906.941
941.995
1032.1
984.596
978.647
939.694
933.894
950.292
949.341
915.708
868.605
847.378
830.794
835.732
842.947
847.397
851.898
860.598
870.779
879.902
888.59
917.263
1024.99
984.746
983.811
951.042
940.905
950.241
947.837
917.79
877.728
854.441
836.399
824.898
827.062
835.97
848.446
858.52
864.701
869.611
874.08
897.004
1026.69
991.107
989.791
963.793
949.113
951.204
947.201
919.35
885.336
863.118
844.764
828.378
829.778
838.643
851.204
858.963
860.759
862.862
866.324
885.918
1031.37
1002.51
1000.98
978.328
958.484
953.522
947.621
921.726
892.394
869.957
849.6
837.256
839.041
845.778
851.631