/*--------------------------------*- C++ -*----------------------------------*\
  =========                 |
  \\      /  F ield         | OpenFOAM: The Open Source CFD Toolbox
   \\    /   O peration     | Website:  https://openfoam.org
    \\  /    A nd           | Version:  9
     \\/     M anipulation  |
\*---------------------------------------------------------------------------*/
FoamFile
{
    format      ascii;
    class       volVectorField;
    location    "0.006";
    object      U;
}
// * * * * * * * * * * * * * * * * * * * * * * * * * * * * * * * * * * * * * //

dimensions      [0 1 -1 0 0 0 0];

internalField   nonuniform List<vector> 
9720
(
(-719.671 -721.798 -14.9579)
(-564.329 -762.639 -11.6421)
(-471.79 -808.163 -18.6601)
(-458.11 -962.589 -40.3331)
(-323.041 -1136.88 -48.802)
(-88.032 -1163.78 -42.0081)
(146.146 -1159.5 -47.5588)
(425.398 -1168.26 -41.4756)
(729.433 -1144.41 -48.1695)
(975.459 -1035.93 -44.4856)
(1150.56 -890.262 -38.1625)
(1275.24 -758.652 -31.5082)
(1356.09 -648.409 -48.2257)
(1408.97 -559.3 -48.1947)
(1440.6 -479.015 -38.55)
(1481.49 -428.897 -34.9712)
(1513.66 -383.037 -39.1635)
(1558.8 -354.216 -43.5868)
(1600.17 -321.489 -42.2547)
(1699.12 -285.004 -47.659)
(-758.861 -563.478 -8.78091)
(-617.153 -616.646 -5.55987)
(-550.542 -666.947 -14.2159)
(-685.92 -864.425 -41.8114)
(-438.094 -1163.69 -48.9259)
(-121.02 -1163.61 -40.2701)
(133.785 -1146.37 -42.6112)
(477.145 -1165.02 -41.4282)
(891.361 -1095.27 -40.7534)
(1194.74 -897.063 -29.707)
(1379.12 -699.442 -27.2508)
(1469.59 -562.635 -21.3572)
(1527.71 -464.808 -44.0017)
(1532.66 -376.909 -46.9352)
(1515.23 -317.527 -34.1937)
(1533.94 -296.029 -30.4237)
(1557.32 -279.098 -32.7523)
(1590.06 -269.217 -38.4252)
(1627.43 -254.55 -39.0366)
(1719.46 -229.072 -43.6507)
(-805.888 -468.674 -9.84687)
(-671.493 -543.203 -7.99675)
(-795.538 -786.963 -24.6382)
(-873.047 -957.054 -47.4567)
(-488.574 -1160.95 -39.3691)
(-124.54 -1137.04 -35.2684)
(150.374 -1129.72 -34.1819)
(517.763 -1139.44 -33.3655)
(1004.29 -987.154 -37.8995)
(1274.26 -686.187 -26.1371)
(1444.35 -524.102 -24.6727)
(1530.53 -427.599 -33.168)
(1606.63 -375.515 -48.9177)
(1661.35 -305.057 -54.5497)
(1644.74 -260.278 -47.2772)
(1609.11 -213.787 -40.0273)
(1602.54 -191.938 -35.4934)
(1612.87 -201.542 -37.3516)
(1638.73 -202.297 -37.3477)
(1715.63 -184.661 -36.0161)
(-958.599 -442.636 -24.9207)
(-866.794 -672.586 -24.563)
(-964.846 -863.555 -23.1872)
(-1007.48 -973.758 -48.9185)
(-687.324 -1098.3 -45.5402)
(-235.078 -1117.82 -36.0258)
(74.9802 -1106.07 -43.0182)
(401.557 -1101.27 -39.5384)
(999.59 -1008.85 -54.9086)
(1750.14 -649.801 -63.4571)
(1920.12 -626.439 -81.0008)
(1969.62 -568.094 -65.1606)
(1978.74 -504.184 -58.6317)
(1967.99 -433.743 -67.7169)
(1945.8 -333.68 -72.9123)
(1875.95 -248.652 -63.0172)
(1777.7 -175.194 -51.9715)
(1702.67 -99.2971 -55.0636)
(1700.06 -94.8285 -59.3113)
(1738.25 -97.1487 -65.2665)
(-1128.39 -315.401 -47.4265)
(-1160.18 -437.661 -45.0951)
(-1162.09 -487.622 -34.1565)
(-1092.98 -665.427 -40.0818)
(1895.08 -679.714 -91.8946)
(2273.2 -493.014 -68.9892)
(2284.61 -470.143 -74.9209)
(2281.16 -441.448 -79.0184)
(2275.42 -400.848 -78.978)
(2251.36 -361.777 -85.1023)
(2216.45 -312.809 -84.4031)
(2169.77 -231.484 -80.1556)
(2072.69 -122.089 -91.9181)
(1930.55 -66.3523 -83.8164)
(1820.7 -6.38691 -69.7204)
(1817.92 23.6417 -69.476)
(-1160.9 -85.2192 -44.4409)
(-1163.42 -120.539 -42.4469)
(-1136.48 -124.913 -36.6576)
(-1118.61 -236.37 -39.2902)
(2294.48 -261.545 -88.2798)
(2330.87 -147.64 -71.6492)
(2334.13 -142.364 -77.2748)
(2333.27 -137.386 -81.7826)
(2334.77 -130.205 -84.3181)
(2333.91 -119.515 -88.6603)
(2328.82 -102.797 -90.909)
(2315.46 -77.5373 -85.5518)
(2283.09 -29.767 -91.7123)
(2199.4 44.4398 -94.5617)
(2050.03 129.102 -67.9077)
(1946.54 145.068 -67.5668)
(-1157.9 147.49 -52.8457)
(-1151.25 135.433 -48.1929)
(-1133.58 150.804 -37.473)
(-1105.44 75.9785 -46.9952)
(2318.41 23.9082 -85.0412)
(2374.97 126.648 -69.5612)
(2377.79 118.22 -77.0912)
(2384.21 111.317 -82.242)
(2391.26 111.62 -82.7632)
(2396.84 116.265 -84.2917)
(2397.79 124.668 -89.1622)
(2390.4 134.682 -89.3055)
(2376.39 156.496 -86.7063)
(2339.36 190.215 -96.4141)
(2264.04 256.226 -83.7102)
(2086.69 312.33 -70.7127)
(-1169.13 427.986 -46.2087)
(-1170.91 481.366 -46.6474)
(-1144.62 523.933 -37.5678)
(-1102.74 402.986 -44.2264)
(2363.58 345.358 -85.3631)
(2415.51 543.392 -83.4142)
(2426.57 519.412 -73.8123)
(2435.15 494.345 -66.9865)
(2454.22 476.407 -79.5667)
(2457.93 452.803 -92.5805)
(2460.49 433.425 -92.63)
(2463.65 412.112 -85.3519)
(2452.26 397.64 -78.9609)
(2425.78 392.965 -82.9881)
(2393.43 422.149 -82.7738)
(2254.41 461.572 -70.5507)
(-1142.2 733.395 -55.4612)
(-1094.25 899.549 -51.4534)
(-980.443 1014.31 -53.196)
(-1000.74 1030.26 -76.1133)
(-690.077 1941.35 -89.8601)
(-259.946 2244.28 -89.4699)
(33.7521 2267.32 -88.132)
(357.608 2311.14 -86.6228)
(1709.15 1908.55 -81.2188)
(2257.43 1237.36 -44.7408)
(2314.78 1062.89 -55.2204)
(2359.79 963.2 -112.447)
(2380.54 880.445 -112.027)
(2428.7 829.178 -98.9248)
(2445.94 771.602 -77.7794)
(2454.8 722.734 -81.6261)
(2479.66 683.135 -87.6128)
(2471.8 639.72 -92.3286)
(2449.65 629.722 -88.4149)
(2354.6 649.143 -74.83)
(-1031.19 977.845 -57.8163)
(-890.28 1197.52 -51.3668)
(-681.947 1277.38 -49.6919)
(-659.852 1755.19 -83.1424)
(-503.197 2227.72 -76.9835)
(-142.871 2278.54 -74.2062)
(136.921 2323.3 -72.1092)
(549.936 2359.33 -77.0808)
(1170.79 2296.68 -63.8852)
(1672.62 1749.9 -6.40369)
(2073.51 1494.62 -150.275)
(2195.08 1349.03 -125.904)
(2218.84 1229.73 -83.8817)
(2258.94 1127.64 -62.4077)
(2332.65 1070.89 -74.6023)
(2372.24 999.218 -85.8125)
(2417.17 942.921 -96.7514)
(2466.16 897.908 -100.645)
(2472.59 845.543 -90.0873)
(2422.15 834.377 -79.5481)
(-885.545 1151.23 -51.4532)
(-698.364 1378.78 -48.7666)
(-524.211 1444.46 -47.9905)
(-631.209 1907.81 -95.324)
(-477.984 2241.94 -82.8781)
(-137.18 2284.07 -79.0897)
(125.772 2329.43 -78.9116)
(521.994 2371.85 -68.8191)
(1021.08 2285.65 -63.5919)
(1432.31 2112.35 -125.37)
(1812.28 1871.45 -135.133)
(2069.27 1667.12 -44.3375)
(2093.21 1507.13 -33.7454)
(2131.21 1392.77 -52.4504)
(2217.36 1329.83 -88.7127)
(2286.69 1252.49 -122.994)
(2320.13 1174.64 -107.891)
(2362.09 1113.24 -97.2928)
(2422.79 1051.21 -93.3181)
(2408.97 1004.22 -78.3757)
(-756.667 1276.03 -46.4597)
(-568.464 1471.33 -44.3737)
(-435.273 1529.06 -54.4296)
(-573.605 1948.9 -79.3345)
(-445.184 2241.04 -84.8183)
(-132.323 2284.32 -83.8648)
(118.487 2336.68 -83.9246)
(491.962 2378.59 -63.2085)
(940.687 2332.83 -96.1213)
(1289.03 2151.44 -129.871)
(1593.75 2072.24 -65.8051)
(1843.11 1879.78 -10.6179)
(2031.44 1735.27 -45.594)
(2120.35 1627.3 -58.3425)
(2148.14 1555.51 -97.3279)
(2177.99 1468.61 -132.693)
(2223.13 1393.61 -110.899)
(2271.1 1316.65 -83.7035)
(2365.12 1268.57 -87.0653)
(2395.53 1182.22 -79.1136)
(-648.461 1357.74 -64.0107)
(-473.362 1530.53 -64.0953)
(-387.925 1607.3 -66.7019)
(-507.974 1960.1 -71.59)
(-403.415 2235.16 -85.1004)
(-125.631 2284.28 -86.3959)
(116.753 2344.18 -83.1958)
(471.365 2398.97 -76.7571)
(867.358 2356.38 -91.8035)
(1196.34 2198.22 -89.1752)
(1447.55 2040.77 -65.0721)
(1663.83 2019.53 -71.0252)
(1912.78 1960.31 -91.0157)
(2044.5 1836.02 -107.275)
(2039.7 1703.14 -117.611)
(2055.71 1595.92 -100.643)
(2125.09 1558.62 -68.8656)
(2196.42 1497.03 -25.3353)
(2282.55 1459.78 -44.5481)
(2344.14 1348.86 -65.8906)
(-559.465 1406.79 -64.4934)
(-383.989 1533.11 -65.8528)
(-319.697 1664.56 -68.4508)
(-439.118 1951.18 -77.6832)
(-361.244 2212.75 -89.4054)
(-113.982 2283.53 -90.254)
(119.401 2351.43 -85.302)
(446.663 2401.55 -88.1883)
(815.712 2402.16 -79.5169)
(1105.72 2246.28 -57.0787)
(1356.74 2096.51 -58.6855)
(1560.29 2054.01 -83.6032)
(1772.51 2020.23 -127.042)
(1889.14 1895.22 -150.606)
(1939.98 1785.93 -102.969)
(1995.94 1695.71 -34.5073)
(2072.91 1689.23 -17.3822)
(2130.3 1642.54 -14.4584)
(2176.07 1592.65 -68.778)
(2260.52 1486.88 -86.8755)
(-479.355 1437.87 -54.0436)
(-318.823 1510.22 -51.7304)
(-272.438 1650.4 -59.3034)
(-343.331 1933.27 -82.5974)
(-310.454 2181.33 -86.7413)
(-96.7297 2278.23 -91.5691)
(126.578 2353.39 -90.2583)
(426.365 2405.29 -90.9084)
(756.884 2414.24 -63.794)
(1051.84 2322.16 -57.0239)
(1301.1 2191.33 -81.0619)
(1494.75 2092.06 -104.718)
(1638.55 1985.36 -129.555)
(1750.11 1916.86 -107.66)
(1862.53 1875.89 -28.3263)
(1950.82 1818.8 2.81758)
(2032.88 1792.62 -39.0622)
(2061.04 1732.28 -67.4066)
(2091.52 1685.81 -81.2757)
(2189.74 1607.3 -69.5288)
(-428.475 1478.67 -49.9691)
(-297.979 1527.44 -47.3644)
(-225.865 1609.3 -53.1921)
(-257.908 1868.43 -68.9415)
(-230.933 2138.84 -83.403)
(-70.4498 2266.27 -86.5159)
(135.553 2347.63 -89.855)
(404.947 2409.51 -86.4893)
(706.007 2417.31 -68.8181)
(982.974 2358.16 -63.6513)
(1228.04 2265.97 -106.976)
(1424.01 2142.43 -121.678)
(1557.61 2013.4 -98.3778)
(1661.14 1959.95 -40.4352)
(1785.74 1940.22 -2.29615)
(1884.47 1895.36 -36.1363)
(1954.62 1839.32 -87.0813)
(1976.4 1758.7 -87.1032)
(2010.64 1732.04 -54.8846)
(2124.06 1696.08 -38.6439)
(-383.256 1511.17 -54.1599)
(-282.232 1552.05 -49.718)
(-197.648 1598.8 -51.5796)
(-186.597 1770.29 -52.5966)
(-127.814 2046.43 -91.8763)
(-22.2256 2236.29 -93.9362)
(156.313 2335.17 -88.2824)
(392.193 2399.09 -81.4759)
(664.6 2438.11 -78.5134)
(926.064 2396.84 -78.2202)
(1152.62 2302.54 -91.4015)
(1363.62 2198.87 -89.2128)
(1533.19 2091.68 -55.43)
(1660.49 2032.92 -15.0471)
(1762.42 2008.06 -39.6203)
(1819.42 1942.7 -87.3087)
(1874.54 1879.38 -115.028)
(1910.23 1804 -102.95)
(1948.9 1787.18 -51.6398)
(2067.68 1760.19 -25.1184)
(-354.903 1556.46 -58.021)
(-272.7 1586.03 -54.8619)
(-205.995 1608.62 -53.2134)
(-110.502 1695.23 -59.4059)
(-72.8548 1908.24 -74.0426)
(43.5124 2155.72 -89.6239)
(187.609 2298.7 -97.0059)
(388.389 2373.75 -84.631)
(622.357 2426.36 -87.4947)
(878.08 2439.1 -84.6476)
(1090.84 2343.31 -73.151)
(1291.84 2251.44 -57.3329)
(1474.83 2169.4 -8.47474)
(1617.8 2098.18 -12.1612)
(1707.69 2036.96 -70.9262)
(1743.06 1962.79 -85.7598)
(1793.08 1907.77 -99.4383)
(1847.23 1855.44 -75.3363)
(1906.41 1844.14 -9.15818)
(2022.27 1821.94 -7.3047)
(-322.394 1598.31 -56.49)
(-258.002 1624.41 -55.1052)
(-207.741 1634.52 -52.6829)
(-102.843 1692.93 -66.1746)
(-12.2802 1801.29 -64.0935)
(129.036 2008.59 -62.2524)
(247.472 2223.71 -78.8375)
(416.907 2341.41 -80.3622)
(615.144 2403.94 -84.6205)
(826.351 2441.77 -77.308)
(1028.8 2400.63 -69.2846)
(1245.94 2343.94 -61.3816)
(1439.25 2259.85 -28.4477)
(1567.81 2152.65 -61.3771)
(1666.27 2071.38 -77.1231)
(1724.48 1995.79 -51.4623)
(1780.92 1941.2 -50.4023)
(1843.42 1910.25 -14.466)
(1876.94 1877.04 8.43406)
(1959.89 1842.81 -6.71507)
(-286.051 1696.88 -60.8474)
(-232.523 1716.64 -58.6405)
(-190.609 1711.89 -50.545)
(-104.461 1731.3 -72.5188)
(14.012 1802.1 -68.7945)
(138.461 1921.46 -67.3926)
(300.978 2055.99 -67.7524)
(453.927 2209.13 -66.5635)
(634.371 2312.23 -71.3386)
(815.326 2388.68 -68.5768)
(984.789 2383.63 -62.2902)
(1162.12 2373.74 -59.8835)
(1328.61 2324.86 -49.8369)
(1464.2 2240.71 -71.0954)
(1589.5 2171.86 -56.577)
(1687.22 2109.97 -29.9999)
(1755.6 2057.66 -21.5336)
(1826.04 2021.79 -9.79171)
(1847.34 1962.01 -7.32963)
(1919.93 1916.66 -8.34841)
(-722.373 -726.437 5.77294)
(-562.476 -769.566 14.8732)
(-473.061 -816.233 24.9994)
(-474.087 -981.821 12.8281)
(-332.39 -1162.67 -4.84448)
(-91.6713 -1183.13 -9.19506)
(143.99 -1177.33 -14.9069)
(426.408 -1187.11 -10.0746)
(733.526 -1161.36 -14.4272)
(978.885 -1049.24 -9.91322)
(1157.6 -903.922 -3.95883)
(1282.69 -769.07 5.27499)
(1361.92 -656.445 -5.38633)
(1413.69 -566.315 -4.52454)
(1444.66 -485.668 2.65514)
(1486.18 -433.769 6.32298)
(1517.36 -387.064 1.47721)
(1560.89 -357.675 -3.47948)
(1601 -324.826 -5.20399)
(1699.55 -289.148 -12.9856)
(-763.894 -564.178 15.6049)
(-614.91 -620.662 32.6237)
(-554.752 -685.169 54.3757)
(-714.851 -904.222 12.9293)
(-435.28 -1199.06 -14.1387)
(-119.16 -1186.28 -13.0766)
(135.381 -1169.12 -14.0878)
(478.603 -1190.27 -15.0193)
(897.077 -1117.02 -10.1037)
(1199.45 -912.665 3.52916)
(1390.32 -711.609 1.82203)
(1482.43 -573.049 12.5937)
(1540.35 -474.771 -5.88718)
(1546.84 -385.495 -4.46826)
(1524.07 -320.787 9.45308)
(1540.02 -296.633 14.1722)
(1562.01 -279.882 9.48795)
(1592.86 -270.337 2.16326)
(1628.49 -256.406 -2.31563)
(1719.59 -232.089 -10.5508)
(-809.722 -471.216 28.1134)
(-675.871 -555.635 49.3037)
(-837.31 -841.264 49.5336)
(-886.949 -1018.92 -4.36791)
(-480.693 -1190.76 -15.5836)
(-122.904 -1168.81 -14.4455)
(152.353 -1157.2 -12.8508)
(519.255 -1169.98 -12.5281)
(1013.3 -1016.08 -3.83216)
(1284.94 -703.66 12.2895)
(1462.56 -534.278 12.0723)
(1549.41 -432.655 7.01577)
(1620.83 -378.415 -13.5794)
(1675.5 -308.878 -19.1172)
(1663.81 -261.138 -1.69882)
(1623.36 -215.832 12.6381)
(1610.12 -188.591 8.44444)
(1617.3 -197.383 3.30295)
(1641.54 -201.588 -1.57405)
(1716.16 -186.037 -4.34101)
(-972.811 -456.702 23.4894)
(-894.515 -706.641 21.1053)
(-1008.57 -895.867 3.12338)
(-1019.57 -1037.69 -9.92626)
(-648.751 -1135.1 -22.3966)
(-236.496 -1156.95 -11.6865)
(73.8439 -1145.48 -21.5045)
(399.51 -1138.14 -16.85)
(999.294 -1055.51 -3.89901)
(1788.02 -662.09 -11.0313)
(1967.01 -640.742 -25.2361)
(2012.38 -580.758 -10.2988)
(2017.13 -513.256 -1.68223)
(2001.29 -440.213 -11.2934)
(1977.39 -339.402 -23.5601)
(1909.1 -248.553 -13.256)
(1807.89 -176.356 10.1537)
(1718.76 -99.4791 -3.61216)
(1708.14 -88.481 -24.4454)
(1742.19 -93.7122 -34.1494)
(-1151.63 -324.809 -4.80703)
(-1192 -443.862 -13.9334)
(-1190.04 -497.121 -17.2608)
(-1142.59 -693.233 -17.2459)
(1954.78 -666.188 -19.9194)
(2327.03 -496.87 -35.6868)
(2336.44 -474.228 -36.4691)
(2331.97 -446.025 -34.3083)
(2323.23 -406.115 -28.747)
(2296.27 -367.347 -29.1783)
(2256.91 -319.433 -26.6033)
(2210.52 -239.747 -23.1884)
(2117.58 -127.832 -33.3931)
(1974.3 -63.4769 -6.79661)
(1843.02 -5.03823 -6.35681)
(1830.62 25.6776 -32.7073)
(-1179.51 -89.1828 -10.8685)
(-1185.1 -120.493 -14.9908)
(-1164.76 -125.712 -16.2689)
(-1150.17 -237.51 -17.0964)
(2372.93 -262.991 -50.1129)
(2387.42 -147.477 -37.3973)
(2386.18 -141.297 -35.9888)
(2381.84 -137.132 -33.6967)
(2380.75 -130.756 -31.3)
(2378.89 -120.716 -31.8135)
(2373.02 -104.906 -30.8105)
(2358.77 -81.1502 -19.577)
(2327.72 -36.8667 -24.5549)
(2250.57 34.4758 -20.2759)
(2092.14 134.923 28.7288)
(1971.07 156.277 -7.54556)
(-1176.41 144.044 -21.4644)
(-1172.21 134.28 -21.8426)
(-1158.8 151.877 -18.4229)
(-1143.69 74.3978 -26.4989)
(2398.9 22.6602 -47.9078)
(2434.71 127.476 -35.1414)
(2434.48 118.071 -34.6062)
(2438.82 110.319 -33.1082)
(2441.92 110.991 -29.9772)
(2444.9 115.195 -27.5963)
(2445.3 122.705 -29.3049)
(2438.25 131.576 -28.1756)
(2425.18 150.373 -20.5005)
(2391.99 183.686 -28.289)
(2322.41 243.546 3.30239)
(2137.3 311.247 11.1958)
(-1187.83 427.596 -16.6365)
(-1195.54 479.485 -24.7816)
(-1172.22 521.619 -20.292)
(-1140 398.655 -22.9815)
(2439.98 343.432 -47.7591)
(2482.6 541.28 -47.6993)
(2486.47 519.971 -33.1054)
(2488.82 494.036 -17.065)
(2503.82 475.111 -23.1873)
(2510.01 452.235 -33.6946)
(2508.5 433.42 -33.1642)
(2511.06 413.365 -26.0263)
(2501.12 396.606 -13.6605)
(2475.72 390.777 -13.9437)
(2447.36 414.012 -2.52639)
(2310.66 457.589 17.1483)
(-1161.13 735.848 -25.0344)
(-1119.56 901.302 -30.0398)
(-1008.56 1016.83 -27.4293)
(-1038.25 1017.41 -17.7135)
(-703.752 2011.98 -34.718)
(-262.173 2328.47 -51.1962)
(32.2363 2358.9 -50.5189)
(358.25 2411.59 -47.8888)
(1717.85 1987.29 -15.7227)
(2296.59 1237.51 1.17549)
(2378.99 1069.22 -2.1635)
(2428.79 968.247 -60.0178)
(2447.98 885.781 -65.025)
(2484.36 832.359 -42.0432)
(2502.66 776.122 -8.73983)
(2505.38 726.924 -10.0224)
(2526.68 688.058 -18.9431)
(2522.59 643.304 -26.9565)
(2503.67 625.7 -14.6741)
(2412.26 643.701 9.48503)
(-1048.05 981.219 -23.7071)
(-912.57 1202.41 -23.7448)
(-699.522 1286.04 -20.9204)
(-658.463 1792.03 -37.73)
(-507.313 2303.03 -44.5065)
(-143.36 2359.9 -39.3428)
(136.88 2409.82 -36.3492)
(551.862 2454.84 -44.4866)
(1183.61 2378.81 -14.5506)
(1693.84 1790.72 79.9339)
(2091.84 1498.89 -95.0979)
(2258.33 1358.93 -88.1322)
(2290.87 1243.02 -21.4086)
(2322.77 1138.46 10.178)
(2384.69 1076.2 -5.98995)
(2424.74 1004.68 -30.4818)
(2464.73 946.873 -35.6363)
(2511.14 904.171 -38.3853)
(2524.6 849.369 -18.9235)
(2475.33 833.163 3.30223)
(-902.146 1157.24 -16.4)
(-713.747 1388.94 -18.2293)
(-536.396 1464.06 -7.18344)
(-639.916 1959.88 -44.7407)
(-483.752 2310.58 -44.1062)
(-136.949 2356.62 -39.0713)
(126.809 2407.63 -37.1336)
(524.995 2455.19 -31.0991)
(1031.77 2372.33 -0.472168)
(1452.01 2170.36 -66.5011)
(1823.59 1891.32 -122.288)
(2093.2 1683.8 26.0244)
(2139.33 1527.35 55.2026)
(2172.22 1407.4 1.89034)
(2267.33 1341.13 -49.5631)
(2347.22 1265.72 -73.6097)
(2381.95 1193.82 -35.7942)
(2411.37 1122.3 -15.1879)
(2465.55 1058.68 -20.1641)
(2455.87 1004.39 -0.0912025)
(-770.081 1284.38 -7.03621)
(-583.035 1486.56 -4.00272)
(-443.01 1551.42 -5.61014)
(-586.433 2002.99 -20.5487)
(-453.716 2306.28 -39.5757)
(-133.157 2349.73 -38.2251)
(117.304 2409.9 -37.4913)
(494.948 2453.51 -17.7066)
(945.891 2410.5 -38.39)
(1310.32 2246.24 -83.6625)
(1619.59 2129.27 7.60839)
(1858.66 1902.35 98.5688)
(2032.99 1735.83 7.3446)
(2143.68 1629.7 -54.238)
(2208.35 1568.54 -42.4528)
(2239.5 1489.58 -47.2884)
(2274.09 1405.56 -11.3507)
(2306.72 1317.09 -5.19418)
(2390.93 1270.86 -32.6533)
(2436.71 1185.89 -11.9823)
(-658.495 1365.07 -17.8811)
(-485.563 1546.84 -16.7856)
(-394.495 1628.92 -18.26)
(-521.141 2010.85 -5.94195)
(-412.887 2297.8 -31.5468)
(-127.006 2345.56 -36.5226)
(116.097 2411.26 -33.9635)
(472.596 2467.88 -24.7659)
(869.79 2429.12 -43.6154)
(1215.8 2280.49 -26.1975)
(1481.58 2112.14 26.6863)
(1682.28 2042.07 -1.23088)
(1916.4 1964.75 -87.215)
(2089.6 1865.61 -55.9896)
(2117.07 1748.74 -1.8677)
(2102.6 1615.79 12.8446)
(2149.86 1557.45 15.7875)
(2210.34 1492.28 27.1746)
(2312.87 1463.39 6.98543)
(2387.54 1357.54 9.52026)
(-567.299 1411.14 -17.286)
(-393.452 1546.56 -15.7783)
(-326.542 1685.02 -19.2436)
(-451.415 1996.02 -7.9485)
(-372.221 2271.64 -27.7923)
(-116.644 2342.15 -36.8659)
(118.538 2413.31 -31.0535)
(448.148 2471.66 -33.2074)
(820.062 2465.79 -25.6828)
(1117.97 2311.34 14.7686)
(1372.2 2150.71 9.68316)
(1571.93 2095.47 -48.9304)
(1797.27 2083.05 -58.3916)
(1948.7 1965.59 -36.7664)
(1986.78 1824.53 24.3341)
(2019.2 1703.83 50.3569)
(2087.42 1687.15 33.9537)
(2160.04 1648.74 41.962)
(2220.92 1611.79 10.1643)
(2301.65 1499.78 -0.0871594)
(-485.743 1440.73 -9.64711)
(-320.588 1516.83 -3.62216)
(-275.767 1671.93 -3.17692)
(-355.75 1973.58 -15.0793)
(-324.225 2233.97 -21.4003)
(-101.432 2335.08 -33.8944)
(124.289 2413.23 -31.0965)
(428.279 2467.74 -33.6098)
(764.394 2480.23 2.69998)
(1057.5 2374.23 14.8037)
(1313.8 2245.14 -21.8618)
(1519.93 2150.55 -29.0702)
(1689.89 2059.4 -11.5653)
(1792.49 1958.17 20.234)
(1883.7 1892.72 80.594)
(1971.1 1828.35 75.4279)
(2068.75 1807.49 25.5195)
(2106.65 1767.32 28.1951)
(2127.25 1711.08 23.433)
(2219.03 1613.59 17.1804)
(-433.054 1482.3 -5.70563)
(-297.719 1532.04 0.249658)
(-228.591 1625.96 8.42413)
(-264.283 1905.66 -2.2967)
(-246.825 2189.45 -15.6071)
(-77.8281 2321.57 -21.953)
(131.692 2406.93 -27.7381)
(407.994 2469.18 -26.7443)
(712.65 2478.32 2.60701)
(989.542 2413.51 -1.20719)
(1243.51 2324.03 -43.2555)
(1446.81 2194.18 -28.5431)
(1572.5 2056.31 17.2329)
(1670.47 1981 42.8026)
(1795.41 1957.69 69.2473)
(1921.21 1935.94 33.1422)
(2005.9 1886.73 5.67554)
(2018.97 1808.33 31.5009)
(2038.83 1742.59 50.899)
(2143.53 1697.46 39.9171)
(-387.165 1514.93 -10.2937)
(-283.11 1556.23 -4.3505)
(-196.929 1607.16 -1.83656)
(-190.543 1800.42 22.5741)
(-139.683 2097.49 -19.6662)
(-34.1364 2291.63 -25.2692)
(149.342 2394.1 -19.426)
(391.692 2459.1 -12.9849)
(670.555 2497.14 -6.51031)
(929.986 2449.27 -11.8526)
(1169.71 2358.93 -12.4252)
(1375.12 2244.77 11.8918)
(1532.88 2116.17 32.845)
(1661.1 2043.47 39.1887)
(1775.69 2040.34 24.9405)
(1863.27 1992.42 3.16447)
(1921.22 1921.23 -0.887397)
(1939.44 1826.62 14.1094)
(1971.25 1789.04 35.7319)
(2080.2 1763.98 40.5203)
(-358.516 1559.15 -14.6837)
(-274.549 1588.96 -11.5787)
(-204.879 1613 -8.69556)
(-113.719 1711.29 1.05638)
(-72.6746 1953.44 12.6082)
(33.0232 2215.84 -11.2058)
(181.046 2359.37 -24.2274)
(385.557 2433.03 -11.491)
(624.967 2488.8 -17.1408)
(883.252 2490.57 -20.1683)
(1098.95 2391.4 6.8266)
(1294.93 2287.12 19.628)
(1473.36 2185.21 47.7359)
(1628.33 2125.13 46.8312)
(1742 2076.16 21.191)
(1786.44 1998.31 24.6267)
(1817.25 1930.96 14.5605)
(1860.21 1864.87 14.7552)
(1914.97 1850.36 51.1453)
(2037.53 1833.51 59.5223)
(-326.234 1599.73 -15.8601)
(-260.988 1625.67 -15.794)
(-210.05 1637.22 -15.2076)
(-101.504 1700.81 -29.6047)
(-13.6208 1823.01 1.82139)
(130.734 2055.42 37.2722)
(237.097 2286.25 14.2506)
(408.329 2403.25 4.49328)
(609.594 2467.82 -6.61847)
(828.413 2499.23 -3.88255)
(1035.79 2447.05 3.34788)
(1249.97 2374.4 -5.97228)
(1445.35 2291.52 25.6563)
(1589.3 2193.62 16.0371)
(1690.5 2101.58 23.1645)
(1733.28 2018.6 52.0017)
(1781.24 1958.8 36.5006)
(1849.34 1915.09 45.1618)
(1891.08 1890.26 81.4601)
(1979.2 1855.91 74.429)
(-290.966 1697.66 -22.3469)
(-237.037 1716.99 -22.3484)
(-194.988 1712.28 -17.7917)
(-105.36 1736.7 -41.5066)
(14.051 1815.64 -30.1093)
(146.296 1948.17 -4.70032)
(301.179 2105.2 18.2779)
(449.439 2267.67 24.1618)
(628.25 2374.85 15.7446)
(813.279 2446.53 15.8705)
(984.134 2433.92 16.947)
(1165.51 2417.21 9.27392)
(1337.79 2366.74 24.8591)
(1477.09 2278.14 13.4967)
(1595.15 2196.57 28.8668)
(1687.26 2124.02 48.5799)
(1758.72 2065.15 45.2962)
(1835.87 2032.53 56.7158)
(1861.03 1978.92 74.3546)
(1932.25 1927.95 72.4627)
(-737.852 -737.24 9.76032)
(-573.299 -784.913 21.6876)
(-483.363 -839.753 39.4893)
(-508.03 -1017.47 22.3771)
(-343.79 -1201.96 5.43542)
(-95.7199 -1210.78 -3.90199)
(143.143 -1205.16 -10.0189)
(429.76 -1217.49 -7.09139)
(741.357 -1190.41 -6.72634)
(987.028 -1073.22 -2.08823)
(1167.68 -926.386 4.565)
(1293.62 -789.53 14.8776)
(1375.3 -677.532 4.68507)
(1429.89 -587 0.766533)
(1456.92 -504.744 3.90382)
(1496.92 -449.551 8.26823)
(1528.06 -401.203 3.5547)
(1571 -371.476 -1.09552)
(1610.04 -339.398 -3.97766)
(1706.79 -305.799 -10.6647)
(-781.662 -569.553 20.0789)
(-629.481 -628.057 36.317)
(-592.319 -716.981 75.97)
(-760.076 -960.891 24.9816)
(-436.799 -1232.49 2.70649)
(-119.817 -1209.38 -4.12277)
(136.046 -1193.63 -8.5802)
(484.023 -1217.76 -9.45727)
(907.737 -1138.55 1.354)
(1208.31 -927.267 14.5476)
(1404.14 -722.158 12.3381)
(1493.65 -578.704 27.9342)
(1557.3 -489.997 11.6699)
(1575.04 -405.714 2.98832)
(1548.82 -337.732 9.07109)
(1556.9 -303.561 14.673)
(1575.99 -285.482 9.72442)
(1604.58 -276.565 3.49755)
(1638.58 -265.07 -1.53724)
(1727.49 -244.812 -8.98132)
(-829.704 -476.481 33.0347)
(-704.857 -576.662 60.0307)
(-913.298 -904.086 46.4021)
(-897.524 -1084.1 9.90531)
(-483.812 -1203.54 5.00544)
(-122.211 -1188.68 0.0166337)
(154.624 -1181.32 -4.68521)
(525.596 -1194.81 -2.81552)
(1026.08 -1029.76 7.62938)
(1289.61 -710.135 25.852)
(1482.45 -541.878 16.6085)
(1576.19 -433.036 20.4192)
(1640.57 -379.533 9.05974)
(1699.18 -320.613 -1.49803)
(1699.28 -265.684 5.73449)
(1659.04 -218.552 13.053)
(1632.44 -188.853 4.95915)
(1634.99 -197.32 0.754249)
(1656.17 -204.317 -2.38225)
(1726.11 -193.885 -3.93351)
(-1003.79 -489.547 22.0603)
(-941.005 -752.059 11.5347)
(-1067.05 -912.987 -15.3476)
(-1058.69 -1070.54 5.67324)
(-647.491 -1163.58 -3.05099)
(-238.211 -1176.56 0.397224)
(72.9897 -1170.37 -8.90382)
(400.778 -1163.55 -2.79376)
(1015.68 -1078.67 8.61809)
(1821.03 -664.067 12.1089)
(2016.76 -659.776 -4.76894)
(2074.57 -601.491 4.92117)
(2082.26 -525.475 16.5844)
(2064.74 -443.125 11.4847)
(2041.69 -337.981 -4.53292)
(1975.04 -240.795 -3.51444)
(1874.82 -178.602 13.0414)
(1776.69 -102.944 1.01611)
(1744.08 -83.8982 -24.8399)
(1767.77 -91.7692 -31.9997)
(-1193.32 -342.129 -2.73352)
(-1231.5 -445.45 -13.9572)
(-1208.55 -499.411 -12.7338)
(-1171.91 -701.392 -10.125)
(1969.6 -695.807 -7.13693)
(2381.14 -505.384 -19.4624)
(2402.26 -484.953 -24.5201)
(2407.12 -453.765 -25.9795)
(2401.53 -414.938 -20.843)
(2376.72 -380.065 -18.0113)
(2335.32 -337.969 -14.257)
(2289.16 -266.031 -9.88023)
(2209.79 -148.728 -23.5035)
(2074.24 -73.3876 -3.74786)
(1927.87 -23.7794 0.3815)
(1882.03 24.2532 -32.531)
(-1208.19 -96.6916 -7.50494)
(-1210.28 -122.475 -11.1948)
(-1187.52 -126.032 -8.6766)
(-1170.16 -238.525 -2.02761)
(2395.36 -264.558 -23.3525)
(2449.47 -151.016 -18.6315)
(2454.76 -144.658 -18.844)
(2455.3 -140.167 -18.2561)
(2457.22 -135.345 -16.7072)
(2458.31 -127.882 -17.6434)
(2456.35 -113.546 -18.8445)
(2446.53 -91.5127 -8.22129)
(2421.36 -55.0429 -12.1411)
(2357.52 12.5742 -19.5871)
(2215.08 129.796 34.3191)
(2058.44 161.807 0.506912)
(-1204.34 138.372 -15.5795)
(-1195.37 131.381 -14.335)
(-1180.57 153.143 -8.2921)
(-1170.1 74.576 -11.9952)
(2431.7 24.3328 -22.8308)
(2507.01 124.25 -16.6273)
(2514.75 115.912 -18.017)
(2521.48 107.095 -19.4733)
(2527.13 105.698 -17.2653)
(2532.06 108.749 -14.827)
(2535.95 114.648 -17.6708)
(2532.83 123.871 -20.9347)
(2523.81 138.645 -13.9962)
(2499.61 166.451 -23.4129)
(2447.49 222.409 1.7067)
(2265.4 300.99 12.7039)
(-1216.16 425.787 -11.6999)
(-1218.54 477.936 -14.5509)
(-1192.05 518.306 -8.04303)
(-1161.61 398.984 -10.6459)
(2484.31 345.137 -18.3735)
(2556.92 542.359 -25.0134)
(2571.67 519.431 -19.9264)
(2574.37 493.602 -1.90287)
(2585.16 471.8 -2.30237)
(2598.76 450.559 -15.7655)
(2598.05 429.874 -18.7431)
(2603.04 410.74 -17.2427)
(2599.81 392.027 -7.6632)
(2581.09 383.891 -7.72259)
(2560.61 399.169 -0.447128)
(2442.14 447.2 17.5856)
(-1191.27 738.102 -16.6061)
(-1145.22 901.663 -13.2571)
(-1037.37 1013.9 -10.7321)
(-1080.18 1004.12 -19.0222)
(-692.937 1967.85 -28.3808)
(-258.702 2384.15 -23.0086)
(33.2258 2419.13 -21.3153)
(353.36 2475.39 -19.4549)
(1926.76 1850.2 4.92846)
(2362.67 1206.33 16.3599)
(2470.73 1068.09 31.752)
(2525.18 977.353 -24.9067)
(2551.58 894.087 -48.7476)
(2566.86 832.254 -26.5578)
(2594.83 777.691 12.2219)
(2602.76 728.071 18.7724)
(2623.42 694.766 1.94178)
(2628.42 650.759 -20.257)
(2613.5 619.599 -12.9572)
(2540.06 633.104 8.48327)
(-1075.87 985.687 -16.2262)
(-935.16 1202.54 -6.09755)
(-718.939 1277.29 -0.690566)
(-671.283 1794.23 -12.4273)
(-500.595 2352.44 -18.1066)
(-143.535 2424.95 -16.2853)
(135.65 2478.87 -14.6917)
(551.989 2524.84 -20.7189)
(1219.24 2398.75 4.41961)
(1770.73 1805.32 119.635)
(2139.25 1486.72 -55.6663)
(2332.84 1361.34 -86.0678)
(2390.71 1256.87 -16.3488)
(2421.21 1151.86 48.127)
(2474.51 1084.36 42.9307)
(2521.3 1018.25 -4.15357)
(2550.66 950.246 -18.0089)
(2595.14 909.492 -26.1072)
(2622.64 850.401 -13.5293)
(2589.56 829.948 4.5234)
(-929.666 1167.54 -15.365)
(-735.879 1401.06 -15.9286)
(-560.963 1477.51 -3.16733)
(-672.589 1990.29 -18.9042)
(-482.631 2375.24 -22.7577)
(-137.085 2428.64 -17.0859)
(126.728 2485.65 -16.783)
(527.1 2538.11 -14.0087)
(1049.99 2449.84 24.3685)
(1519.12 2221.73 -49.4484)
(1827.05 1868.09 -132.959)
(2100.17 1666.51 31.1651)
(2227.28 1550.41 91.5865)
(2264.87 1439.03 45.294)
(2344.67 1354.16 -23.4473)
(2416.24 1274.99 -60.2962)
(2457.62 1202.58 -15.5776)
(2498.07 1127.73 21.149)
(2552.89 1075.41 -0.537765)
(2559.73 1008.17 -1.33831)
(-795.173 1296.39 -5.58256)
(-599.379 1499.92 2.18354)
(-458.726 1577.99 0.878769)
(-621.742 2062.45 -7.19519)
(-455.2 2381.7 -21.4872)
(-132.073 2426.97 -18.5946)
(118.186 2490.75 -16.5345)
(499.692 2541.64 -0.434432)
(961.759 2497.68 -24.7667)
(1352.61 2322.51 -76.7942)
(1648.34 2130.99 36.6823)
(1879.4 1906 160.169)
(2093.56 1763.36 73.4784)
(2190.46 1634.96 -69.612)
(2240.2 1577.87 -61.1542)
(2286.93 1496.69 -18.3416)
(2358.32 1424.06 35.0119)
(2394.92 1337.69 29.457)
(2462.55 1289.39 -31.6124)
(2521.5 1196.74 -25.5894)
(-682.276 1378 -10.7818)
(-507.722 1561.94 -6.3606)
(-405.842 1648.12 -5.67993)
(-555.013 2075.81 1.58571)
(-416.243 2381.07 -16.4107)
(-127.098 2427.47 -18.557)
(114.915 2496.24 -14.1065)
(478.393 2554.16 -6.03976)
(882.382 2518.17 -41.2093)
(1242.52 2367.22 -7.71076)
(1525.98 2195.2 84.4588)
(1737.46 2097.69 66.9466)
(1959.71 1983.67 -92.4032)
(2131.77 1869.81 -106.55)
(2186.09 1773.27 21.5529)
(2177.96 1654.7 77.9749)
(2224.88 1595.72 55.8338)
(2273.16 1511.38 23.5143)
(2369.63 1479.22 -9.97049)
(2466.33 1372.84 0.711701)
(-590.255 1426.89 -9.90903)
(-418.266 1573.91 -10.4767)
(-347.233 1709.88 -12.4032)
(-481.62 2059.86 1.54658)
(-380.309 2360.09 -15.114)
(-120.675 2427.71 -20.3913)
(115.819 2501.98 -13.6471)
(453.708 2566.3 -18.7867)
(826.233 2542.58 -18.4618)
(1136.68 2400.41 47.554)
(1420.69 2242.04 37.3034)
(1606.66 2148.18 -65.9962)
(1829.88 2127.79 -100.979)
(2008.04 2034.36 -4.94463)
(2087.74 1892.97 89.0458)
(2091.96 1757.71 76.6663)
(2145.19 1713.72 17.434)
(2207.35 1663.22 10.9495)
(2281.61 1632.78 6.02704)
(2378.32 1521.02 4.73921)
(-507.057 1452.3 -3.9012)
(-342.34 1540.71 0.0746474)
(-288.773 1710.88 -0.344865)
(-382.16 2040.79 -8.70488)
(-341.078 2321.16 -12.3122)
(-107.975 2425.82 -21.2773)
(120.323 2507 -17.7007)
(432.215 2560.15 -20.6422)
(773.14 2574.29 12.368)
(1075.58 2461.43 36.9878)
(1344.02 2331.73 -24.0558)
(1552.94 2203.3 -54.3975)
(1735.63 2135.68 18.3915)
(1863.33 2052.3 81.2409)
(1978.85 1976.43 107.451)
(2047.48 1882.92 58.5818)
(2136.43 1836.76 -3.42948)
(2176.91 1805.79 19.6288)
(2200.5 1752.42 42.0186)
(2291.01 1642.96 28.731)
(-451.296 1492.19 2.16055)
(-308.891 1547.24 9.76866)
(-243.07 1666.57 14.5051)
(-276.273 1978.68 -3.72884)
(-274.669 2277.84 -9.86204)
(-87.7042 2417.35 -12.8896)
(128.293 2505.21 -20.1845)
(413.016 2561.99 -20.1666)
(725.136 2580.18 11.1756)
(1011.72 2512.86 -9.30243)
(1265.3 2406.61 -57.2819)
(1472.78 2258.77 -18.0826)
(1618.74 2132.2 66.4312)
(1726.67 2042.25 64.4662)
(1857.31 2021.98 52.2136)
(1982.45 1991.54 4.68048)
(2072.52 1935.35 -5.09791)
(2097.27 1866.76 55.9211)
(2108.67 1788.07 77.9553)
(2206.19 1724.88 50.4252)
(-403.985 1524.37 -0.348784)
(-293.048 1569.45 8.00347)
(-202.997 1634.76 11.4713)
(-208.711 1873.74 23.6752)
(-159.884 2199.91 -22.3144)
(-54.0401 2395.15 -17.4283)
(141.397 2496.96 -13.7618)
(393.976 2559.12 -12.7493)
(687.183 2599.5 -5.29065)
(944.083 2540.25 -22.1604)
(1189.44 2442.55 -14.699)
(1402.92 2331.58 35.4018)
(1571.31 2192.98 57.8177)
(1690.08 2096.7 22.4448)