/*--------------------------------*- C++ -*----------------------------------*\
  =========                 |
  \\      /  F ield         | OpenFOAM: The Open Source CFD Toolbox
   \\    /   O peration     | Website:  https://openfoam.org
    \\  /    A nd           | Version:  9
     \\/     M anipulation  |
\*---------------------------------------------------------------------------*/
FoamFile
{
    format      ascii;
    class       volScalarField;
    location    "0.001";
    object      alpha.C4;
}
// * * * * * * * * * * * * * * * * * * * * * * * * * * * * * * * * * * * * * //

dimensions      [0 0 0 0 0 0 0];

internalField   nonuniform List<scalar> 
9720
(
0.775807
0.866114
0.882304
0.890999
0.894069
0.891003
0.885494
0.873848
0.854197
0.822573
0.773471
0.703781
0.615725
0.516887
0.406966
0.273103
0.121761
0.0207168
0.000508007
3.50242e-07
0.86623
0.953389
0.965914
0.972549
0.974665
0.975127
0.974791
0.972335
0.966147
0.951789
0.921151
0.865
0.777686
0.664331
0.533845
0.379829
0.194695
0.0430497
0.00165737
2.61884e-06
0.882459
0.965903
0.977155
0.9831
0.985377
0.986822
0.987803
0.98779
0.98595
0.978268
0.95752
0.912438
0.83239
0.717316
0.575802
0.405098
0.204937
0.045604
0.00180167
2.87095e-06
0.89124
0.972514
0.982971
0.978644
0.981345
0.984004
0.987351
0.989113
0.989712
0.990321
0.976975
0.94214
0.870933
0.757888
0.609142
0.421611
0.200609
0.0382969
0.00111256
9.83862e-07
0.894345
0.974667
0.985319
0.981022
0.985986
0.98111
0.964959
0.926947
0.854417
0.744471
0.600832
0.413643
0.186017
0.0294076
0.000566796
2.37809e-07
0.891151
0.975174
0.986934
0.984506
0.959833
0.929429
0.912256
0.874018
0.806308
0.708511
0.575415
0.388321
0.158865
0.019594
0.000231809
4.07083e-08
0.885537
0.974822
0.987852
0.987551
0.866362
0.79507
0.785897
0.759355
0.710008
0.631696
0.5076
0.316071
0.100296
0.0070122
2.90192e-05
7.62829e-10
0.873884
0.972346
0.987799
0.989154
0.687768
0.592249
0.589939
0.579755
0.553174
0.492665
0.370877
0.17977
0.0296775
0.000583248
2.32436e-07
2.98586e-13
0.854282
0.966145
0.985921
0.989667
0.985055
0.955201
0.853781
0.676697
0.371584
0.333972
0.340536
0.347385
0.337572
0.28783
0.170949
0.0420289
0.00168242
2.6156e-06
1.18439e-11
8.16495e-18
0.82259
0.95167
0.978021
0.98985
0.978519
0.920842
0.782408
0.58128
0.332835
0.170917
0.128758
0.127357
0.118927
0.0818201
0.0250131
0.00145075
4.36055e-06
6.02388e-11
4.61689e-17
3.63091e-23
0.77336
0.920765
0.956891
0.976062
0.961872
0.904731
0.775353
0.581153
0.341873
0.136371
0.0350991
0.0170837
0.0120375
0.00460003
0.00037408
1.64747e-06
4.38485e-11
6.67316e-17
7.30386e-23
7.59123e-29
0.70352
0.864241
0.911275
0.940595
0.923628
0.86756
0.750469
0.572843
0.349648
0.134919
0.0194915
0.000677815
0.00011608
1.34773e-05
9.43984e-08
4.90794e-12
3.21749e-17
6.48182e-23
9.49793e-29
1.27035e-34
0.615336
0.776554
0.830671
0.868699
0.851061
0.800666
0.702405
0.547318
0.339427
0.124794
0.0135773
0.000146018
4.79557e-08
2.07183e-10
1.14741e-13
3.89654e-18
2.53121e-23
6.40054e-29
1.19093e-34
1.88712e-40
0.516424
0.663001
0.7153
0.755288
0.741217
0.703513
0.625475
0.488501
0.289279
0.084794
0.00502808
1.62367e-05
2.93807e-10
4.80039e-16
1.19803e-19
3.52338e-24
2.20721e-29
6.60205e-35
1.42745e-40
2.48157e-46
0.406445
0.53256
0.573907
0.606739
0.597912
0.571316
0.503347
0.369168
0.172294
0.0258078
0.000401406
1.09735e-07
1.36764e-13
1.43025e-19
2.5197e-25
3.34052e-30
2.0241e-35
6.71207e-41
1.57501e-46
2.92254e-52
0.272515
0.3787
0.403604
0.419863
0.411515
0.385767
0.314338
0.180036
0.0426985
0.00151004
1.79255e-06
5.674e-12
4.41088e-18
3.95537e-24
3.73691e-30
5.93708e-36
2.06136e-41
6.61414e-47
1.61354e-52
1.03101e-56
0.12125
0.193838
0.203999
0.199763
0.18515
0.158142
0.100261
0.0299961
0.00173458
4.66342e-06
4.98667e-11
3.65695e-17
2.85828e-23
2.4813e-29
2.27408e-35
2.26199e-41
3.27881e-47
7.20147e-53
1.65702e-58
5.00531e-60
0.0205394
0.0427264
0.0453006
0.0381343
0.0293318
0.0195894
0.00706466
0.000597884
2.77269e-06
6.7711e-11
7.53983e-17
7.31475e-23
7.18359e-29
7.38893e-35
7.52726e-41
7.41074e-47
8.52377e-53
2.55311e-58
2.25192e-63
8.18073e-65
0.000499668
0.00163551
0.0017826
0.00110821
0.000568064
0.000233464
2.95884e-05
2.44024e-07
1.3081e-11
5.1732e-17
8.20441e-23
1.06313e-28
1.32804e-34
1.59368e-40
4.33269e-46
1.01025e-48
1.75377e-52
2.23242e-57
2.15806e-62
1.8985e-67
3.39532e-07
2.55744e-06
2.8211e-06
9.81593e-07
2.40433e-07
4.14799e-08
7.9357e-10
3.15741e-13
8.96216e-18
4.03981e-23
8.4545e-29
1.41145e-34
2.09846e-40
2.97372e-46
1.38786e-47
4.87924e-49
3.94054e-52
3.80379e-57
2.82206e-62
2.30485e-67
0.788134
0.880404
0.897325
0.906612
0.909952
0.908201
0.904327
0.895264
0.879399
0.852041
0.807327
0.741433
0.655232
0.554901
0.44115
0.301798
0.140708
0.0264324
0.00077915
7.53866e-07
0.880588
0.967749
0.980018
0.986074
0.987646
0.987894
0.98757
0.985944
0.981861
0.971468
0.947334
0.899675
0.82038
0.71059
0.578058
0.418326
0.22339
0.0541764
0.00248492
5.37045e-06
0.897582
0.98006
0.990715
0.995731
0.996692
0.997012
0.997094
0.996893
0.99579
0.990746
0.975786
0.93989
0.870226
0.762021
0.621135
0.446043
0.235345
0.0574413
0.00271149
5.99389e-06
0.906966
0.986147
0.995741
0.998786
0.999754
0.999872
0.999904
0.999911
0.999875
0.997522
0.988768
0.96273
0.903394
0.800284
0.655333
0.465602
0.233682
0.0499829
0.00179609
2.34994e-06
0.910327
0.987703
0.996675
0.999738
0.998476
0.985774
0.973157
0.943594
0.882813
0.782642
0.643575
0.456635
0.220201
0.0405781
0.00104222
7.28086e-07
0.908379
0.987934
0.99703
0.99988
0.965761
0.924913
0.911985
0.882228
0.825192
0.736856
0.611897
0.431695
0.196296
0.0304494
0.000551656
2.02551e-07
0.904386
0.987589
0.997103
0.999906
0.848577
0.782613
0.777175
0.757524
0.717834
0.651764
0.542807
0.365227
0.138761
0.0139185
0.000108583
8.55394e-09
0.895204
0.985926
0.996889
0.999913
0.656791
0.58746
0.588662
0.582893
0.564056
0.517689
0.415552
0.233648
0.053131
0.00186567
2.11279e-06
5.72736e-12
0.879336
0.981841
0.995773
0.999855
0.997985
0.961435
0.839574
0.646701
0.384563
0.365368
0.372433
0.377959
0.370619
0.330016
0.222124
0.0730553
0.00503384
2.0691e-05
4.64969e-10
3.26189e-16
0.85205
0.971513
0.990789
0.997556
0.985667
0.923512
0.77919
0.58156
0.362313
0.225306
0.178878
0.170986
0.159014
0.118181
0.046404
0.00447111
3.35831e-05
2.35895e-09
2.00806e-15
1.56386e-21
0.807445
0.947532
0.976016
0.989035
0.973448
0.910996
0.774211
0.585051
0.37075
0.178756
0.0648973
0.0347917
0.0243022
0.0107004
0.00131652
1.41003e-05
1.76208e-09
2.94052e-15
3.3144e-21
3.17935e-27
0.741662
0.900091
0.940405
0.963357
0.944239
0.881831
0.755435
0.579976
0.376467
0.169597
0.0335353
0.0022779
0.000484022
7.21384e-05
1.04292e-06
2.00416e-10
1.393e-15
2.90951e-21
4.05204e-27
4.72471e-33
0.655517
0.82099
0.871042
0.904453
0.883737
0.825197
0.716468
0.561931
0.368844
0.156249
0.0227891
0.000415541
4.92497e-07
5.00887e-09
1.95894e-12
1.42544e-16
1.0391e-21
2.59707e-27
4.36475e-33
6.17042e-39
0.555181
0.711304
0.763054
0.801751
0.783801
0.737125
0.651009
0.516247
0.327526
0.114642
0.00979957
5.98625e-05
3.59463e-09
9.72994e-15
2.04924e-18
1.02636e-22
7.74112e-28
2.26694e-33
4.5629e-39
7.72343e-45
0.441375
0.578772
0.622246
0.657035
0.644896
0.612482
0.542674
0.414537
0.219292
0.0442897
0.00117782
8.39445e-07
1.44055e-12
1.59831e-18
3.95732e-24
8.13411e-29
6.09608e-34
2.04902e-39
4.83323e-45
9.41319e-51
0.301899
0.418899
0.447055
0.467288
0.458071
0.432736
0.365675
0.232814
0.0714126
0.00417503
1.21858e-05
1.54238e-10
1.09622e-16
7.96989e-23
6.5288e-29
1.218e-34
5.61355e-40
1.96902e-45
5.13742e-51
3.58929e-55
0.140681
0.223739
0.236024
0.234964
0.221568
0.197474
0.139229
0.052693
0.00483602
3.03843e-05
1.44402e-09
1.12843e-15
8.37366e-22
6.25299e-28
4.97746e-34
4.81523e-40
8.22356e-46
2.14686e-51
5.51273e-57
1.70608e-58
0.026398
0.0542775
0.0576782
0.0504511
0.0411139
0.0308511
0.0139967
0.00183282
1.93469e-05
2.02842e-09
2.46244e-15
2.4046e-21
2.13546e-27
1.86853e-33
1.70175e-39
1.66032e-45
1.9186e-51
3.12745e-57
8.27078e-63
2.87541e-63
0.000776509
0.00249039
0.00272848
0.00182574
0.00106986
0.000565716
0.000109459
2.04323e-06
4.17225e-10
1.72823e-15
2.79736e-21
3.38666e-27
3.64044e-33
3.8221e-39
4.17318e-45
3.68746e-49
6.05822e-53
9.78021e-58
1.03757e-62
1.22786e-67
7.48278e-07
5.38252e-06
6.05237e-06
2.41906e-06
7.65021e-07
2.11845e-07
8.65637e-09
5.44063e-12
2.91512e-16
1.34869e-21
2.70131e-27
3.99125e-33
5.21928e-39
6.56755e-45
5.25937e-48
1.78297e-49
1.92303e-52
2.59018e-57
1.72995e-62
1.32094e-67
0.803824
0.896067
0.912897
0.922247
0.925543
0.924519
0.921803
0.914729
0.901614
0.877495
0.836436
0.773964
0.689286
0.587567
0.471178
0.328976
0.161175
0.0338424
0.00122811
1.73573e-06
0.896272
0.978229
0.988325
0.99277
0.993775
0.993825
0.993524
0.992363
0.989506
0.981734
0.962374
0.921632
0.849537
0.74385
0.611345
0.449806
0.250853
0.0674704
0.00378189
1.16742e-05
0.913166
0.988354
0.996024
0.998727
0.999084
0.999137
0.999099
0.998906
0.998207
0.994689
0.9834
0.954122
0.893214
0.792233
0.65417
0.478894
0.264123
0.0715569
0.00415193
1.33583e-05
0.922542
0.992811
0.998733
0.999888
0.999999
1
1
1
0.999995
0.99805
0.991501
0.97054
0.919582
0.825117
0.685414
0.498414
0.264775
0.0647394
0.00302667
6.40379e-06
0.925777
0.993804
0.999081
1
0.998221
0.983102
0.973731
0.949922
0.89708
0.804185
0.67009
0.488088
0.253207
0.0557141
0.0020274
2.68629e-06
0.924619
0.993836
0.999137
1
0.961743
0.918509
0.910766
0.887891
0.837814
0.754683
0.634952
0.463072
0.231775
0.0451786
0.00127562
1.03926e-06
0.921867
0.993524
0.999097
1
0.847656
0.78487
0.781341
0.765564
0.729728
0.667786
0.565996
0.400882
0.176356
0.024484
0.000350966
8.02709e-08
0.914631
0.992338
0.998902
1
0.670445
0.601139
0.601808
0.596484
0.579047
0.537457
0.446695
0.278692
0.081971
0.00470147
1.32748e-05
1.57507e-10
0.901493
0.989502
0.998211
1
0.998723
0.967306
0.855466
0.674467
0.410613
0.385086
0.393089
0.400316
0.394761
0.361582
0.266199
0.109875
0.0119188
0.00010728
1.0581e-08
8.91344e-15
0.87756
0.981883
0.994913
0.99848
0.986933
0.928244
0.794351
0.605667
0.384124
0.247424
0.204345
0.199335
0.190113
0.153136
0.0743815
0.0110506
0.000173419
4.97252e-08
5.36572e-14
4.7181e-20
0.836784
0.962878
0.98405
0.992389
0.977325
0.918016
0.78893
0.605741
0.391874
0.199067
0.0838869
0.0507429
0.0383305
0.0203844
0.00372416
8.32515e-05
4.10625e-08
8.06654e-14
1.02977e-19
1.05979e-25
0.774608
0.922658
0.955389
0.972089
0.95306
0.892861
0.771117
0.599948
0.397761
0.190744
0.0453037
0.00472105
0.00129597
0.000273924
8.37806e-06
5.93923e-09
4.11343e-14
9.39248e-20
1.39152e-25
1.6209e-31
0.690158
0.851111
0.895188
0.92194
0.899765
0.841265
0.733926
0.58168
0.391537
0.18033
0.0329275
0.000946592
2.99525e-06
6.49202e-08
7.03856e-11
4.90075e-15
3.52046e-20
9.12166e-26
1.52388e-31
2.00262e-37
0.588526
0.745769
0.794752
0.828225
0.806771
0.75761
0.671191
0.53897
0.357146
0.144062
0.0172663
0.000193574
3.47921e-08
1.36381e-13
5.27474e-17
3.66034e-21
2.73758e-26
7.87154e-32
1.47734e-37
2.21009e-43
0.472113
0.613291
0.656846
0.688918
0.673023
0.637997
0.568698
0.446688
0.260935
0.0690725
0.00311961
5.86092e-06
3.63424e-11
2.78961e-17
6.56818e-23
2.62352e-27
2.0106e-32
6.39673e-38
1.35915e-43
2.33965e-49
0.329837
0.451578
0.481409
0.501893
0.491426
0.466308
0.402804
0.277304
0.106143
0.00999865
6.75377e-05
3.93954e-09
3.19234e-15
2.36448e-21
1.71945e-27
3.04881e-33
1.55271e-38
5.24482e-44
1.25806e-49
1.33186e-54
0.161846
0.252333
0.266117
0.267583
0.256272
0.234458
0.177259
0.0807723
0.0112202
0.000150047
3.0616e-08
2.96252e-14
2.48126e-20
1.90085e-26
1.39181e-32
1.1537e-38
1.88633e-44
4.96337e-50
1.23421e-55
4.72295e-58
0.0340979
0.0681743
0.0724604
0.0658994
0.0569583
0.0460937
0.0246145
0.00455915
9.68611e-05
3.96069e-08
6.10918e-14
6.90638e-20
6.56841e-26
5.60517e-32
4.55518e-38
3.82233e-44
4.03482e-50
6.52808e-56
1.40264e-61
8.70788e-63
0.00124485
0.00385151
0.00424325
0.00311997
0.00210824
0.00131926
0.000352704
1.25329e-05
8.88724e-09
4.17672e-14
7.82035e-20
1.02984e-25
1.11032e-31
1.07074e-37
9.89922e-44
1.35072e-49
3.90701e-54
7.17047e-59
8.26848e-64
9.66584e-68
1.7775e-06
1.20421e-05
1.3866e-05
6.74469e-06
2.87678e-06
1.09925e-06
8.04656e-08
1.41755e-10
7.37492e-15
3.69672e-20
8.0409e-26
1.20566e-31
1.47604e-37
1.6302e-43
7.8214e-49
1.18812e-50
9.53882e-54
1.25853e-58
9.76041e-64
7.83179e-69
0.812527
0.903308
0.919506
0.928529
0.931708
0.930909
0.928665
0.922359
0.910211
0.887244
0.847393
0.78579
0.701001
0.597896
0.47996
0.337335
0.168933
0.0375045
0.0015243
2.68085e-06
0.903476
0.981209
0.990157
0.993991
0.994854
0.994904
0.994666
0.993692
0.991247
0.984374
0.96667
0.928271
0.858438
0.753505
0.620016
0.457747
0.259268
0.0730905
0.0045389
1.70468e-05
0.919723
0.990183
0.996774
0.998992
0.999281
0.999325
0.999292
0.999132
0.998558
0.995517
0.98538
0.958222
0.90008
0.800972
0.662755
0.4869
0.272414
0.0771423
0.00494913
1.93881e-05
0.928746
0.994027
0.999
0.99991
0.999999
1
1
1
0.999978
0.998308
0.992391
0.973035
0.924786
0.832714
0.693357
0.505983
0.272994
0.0701611
0.00368181
9.83472e-06
0.93188
0.994883
0.999285
1
0.997218
0.984774
0.975734
0.953052
0.902178
0.81093
0.676979
0.494997
0.261692
0.0612664
0.00256504
4.50642e-06
0.931045
0.994924
0.999327
1
0.956151
0.925748
0.916476
0.893163
0.843536
0.76064
0.640561
0.469325
0.240404
0.050389
0.00167283
1.90011e-06
0.928745
0.994672
0.999293
1
0.848014
0.797655
0.791774
0.774196
0.736846
0.673351
0.570602
0.406869
0.185217
0.028435
0.000508235
1.78644e-07
0.922354
0.993689
0.999133
1
0.679883
0.613422
0.612297
0.6054
0.585851
0.542349
0.451546
0.287201
0.0907912
0.00618188
2.45605e-05
5.64921e-10
0.910143
0.991246
0.998562
0.999987
0.998112
0.962968
0.859986
0.688965
0.420016
0.390426
0.398044
0.405014
0.399104
0.366672
0.274942
0.120962
0.0153885
0.000188139
3.3695e-08
3.16383e-14
0.887235
0.98442
0.995587
0.99843
0.98592
0.928965
0.801042
0.614261
0.389076
0.248176
0.204504
0.201359
0.194149
0.160588
0.0836266
0.0145773
0.000306642
1.54229e-07
2.06534e-13
1.79211e-19
0.847528
0.96686
0.985618
0.992718
0.977238
0.919943
0.795654
0.614084
0.3972
0.201512
0.0855863
0.0529192
0.0415353
0.0239343
0.00516159
0.000154723
1.34734e-07
3.27427e-13
3.93774e-19
4.22079e-25
0.786098
0.928727
0.958768
0.9737
0.954639
0.896249
0.77794
0.607668
0.403783
0.196398
0.0493859
0.00567746
0.00165128
0.00041204
1.7521e-05
2.21655e-08
1.66101e-13
3.67108e-19
5.65262e-25
6.78746e-31
0.701472
0.859238
0.901058
0.925913
0.903662
0.845952
0.740023
0.587936
0.397621
0.188415
0.0379259
0.00136076
5.67635e-06
1.57852e-07
3.1548e-10
2.03336e-14
1.43981e-19
3.79328e-25
6.49384e-31
8.5427e-37
0.59847
0.754589
0.802375
0.834351
0.812414
0.76263
0.675955
0.543969
0.36471
0.155319
0.0217452
0.000333904
1.06383e-07
4.0649e-13
2.40613e-16
1.59843e-20
1.17292e-25
3.41227e-31
6.37711e-37
9.23025e-43
0.480624
0.621247
0.66444
0.695443
0.678829
0.642695
0.57289
0.452579
0.272883
0.0806819
0.00469215
1.42615e-05
2.08599e-10
1.58304e-16
2.95077e-22
1.17421e-26
8.849e-32
2.77804e-37
5.69365e-43
9.2065e-49
0.338173
0.459127
0.488815
0.508482
0.497562
0.472081
0.409203
0.287955
0.119867
0.0139957
0.000140034
1.7728e-08
1.59849e-14
1.25094e-20
9.22905e-27
1.44061e-32
6.74287e-38
2.17984e-43
4.92111e-49
1.19145e-54
0.16985
0.260815
0.274375
0.275553
0.264661
0.243437
0.187383
0.0913772
0.0152288
0.000291663
1.18417e-07
1.41039e-13
1.21541e-19
9.81429e-26
7.35853e-32
5.78761e-38
8.16527e-44
1.93529e-49
4.466e-55
1.05429e-58
0.0379586
0.0740577
0.0782952
0.0715106
0.0627908
0.05178
0.029166
0.0062742
0.000185739
1.43676e-07
2.84863e-13
3.2245e-19
3.28637e-25
2.92567e-31
2.36949e-37
1.87196e-43
1.74971e-49
2.47898e-55
4.75979e-61
2.15736e-63
0.00156215
0.00466208
0.00509848
0.00382203
0.0026933
0.0017652
0.000534258
2.52793e-05
3.3046e-08
1.90905e-13
3.56353e-19
5.02618e-25
5.69787e-31
5.5497e-37
4.94183e-43
4.82425e-49
4.87075e-54
8.59865e-59
9.8712e-64
3.31204e-68
2.81103e-06
1.79306e-05
2.05057e-05
1.05464e-05
4.94e-06
2.10151e-06
1.95381e-07
5.9302e-10
3.09475e-14
1.66789e-19
3.84229e-25
6.07708e-31
7.56584e-37
8.13204e-43
1.60454e-48
1.38715e-50
9.78565e-54
1.20655e-58
8.96454e-64
6.14357e-69
0.815182
0.905342
0.921326
0.930227
0.933297
0.932596
0.930529
0.924556
0.912655
0.889869
0.850169
0.788452
0.70314
0.599223
0.480637
0.337962
0.169951
0.0382368
0.00160279
3.01204e-06
0.90553
0.981899
0.990549
0.994235
0.995058
0.995121
0.994915
0.994023
0.991715
0.985085
0.967774
0.929804
0.860109
0.754717
0.62045
0.457866
0.259893
0.0739898
0.00471437
1.87151e-05
0.921595
0.990597
0.996924
0.99904
0.999316
0.999359
0.999331
0.999186
0.998658
0.995739
0.985892
0.959191
0.901406
0.802081
0.663127
0.486857
0.272855
0.0779656
0.00512887
2.12437e-05
0.930598
0.99432
0.999059
0.999919
1
1
1
1
0.999986
0.99832
0.992588
0.973612
0.925753
0.833563
0.693483
0.505711
0.273367
0.0709732
0.00383345
1.09414e-05
0.933704
0.995139
0.999327
1
0.998131
0.984864
0.976145
0.953663
0.902847
0.811265
0.676678
0.494519
0.262056
0.0620688
0.00268338
5.06937e-06
0.932852
0.995169
0.999366
1
0.964189
0.926912
0.917592
0.893882
0.843622
0.759996
0.639383
0.468232
0.24037
0.0509565
0.00174625
2.13612e-06
0.930632
0.994928
0.999334
1
0.864066
0.79728
0.792032
0.774389
0.736201
0.671741
0.568409
0.404867
0.18466
0.0287272
0.000534204
2.04925e-07
0.924532
0.994014
0.999185
1
0.690173
0.610976
0.610248
0.603514
0.583627
0.539656
0.44865
0.285225
0.0907975
0.00635035
2.68619e-05
7.06923e-10
0.91258
0.991701
0.998652
0.999986
0.998042
0.963611
0.86226
0.687342
0.416767
0.387199
0.394447
0.401379
0.395589
0.363531
0.272808
0.12081
0.0157509
0.000203726
4.10401e-08
3.93021e-14
0.889826
0.985107
0.995788
0.998426
0.985848
0.929302
0.80023
0.611621
0.386695
0.245457
0.200976
0.198114
0.191389
0.158941
0.0836155
0.0149719
0.000332695
1.8698e-07
2.6363e-13
2.25648e-19
0.850234
0.967917
0.986082
0.992847
0.977257
0.920054
0.795168
0.612577
0.395361
0.200568
0.0846174
0.0518757
0.0409176
0.0239238
0.00532857
0.000169514
1.65047e-07
4.41112e-13
4.94514e-19
5.29441e-25
0.78865
0.930171
0.959646
0.974158
0.954912
0.896313
0.777603
0.606337
0.402733
0.196929
0.050364
0.00581277
0.00165571
0.00042658
1.94353e-05
2.77194e-08
2.14045e-13
4.62352e-19
7.10886e-25
8.52923e-31
0.703465
0.860762
0.902231
0.926722
0.904259
0.845963
0.739374
0.586584
0.396814
0.189703
0.039322
0.00150976
6.46244e-06
1.77126e-07
4.03165e-10
2.59202e-14
1.83384e-19
4.78915e-25
8.187e-31
1.0722e-36
0.599644
0.75561
0.803272
0.834992
0.812856
0.76229
0.674834
0.542564
0.364438
0.157332
0.0230007
0.000388705
1.48458e-07
5.19256e-13
3.08204e-16
2.04355e-20
1.48923e-25
4.31609e-31
8.0226e-37
1.14867e-42
0.48118
0.621507
0.66459
0.6953
0.678552
0.641869
0.571548
0.451453
0.273761
0.0830785
0.00517883
1.81245e-05
3.49142e-10
2.67649e-16
4.20529e-22
1.50389e-26
1.12293e-31
3.50034e-37
7.09187e-43
1.20096e-48
0.338744
0.459123
0.488572
0.507859
0.496868
0.471206
0.408262
0.288117
0.122084
0.0150596
0.0001684
2.68066e-08
2.50988e-14
1.99007e-20
1.47498e-26
2.03604e-32
8.62627e-38
2.72102e-43
6.04886e-49
3.18152e-52
0.170878
0.26136
0.274646
0.275528
0.264677
0.243572
0.187882
0.09289
0.0162044
0.000342975
1.69994e-07
2.20599e-13
1.89014e-19
1.53513e-25
1.15969e-31
8.91492e-38
1.12349e-43
2.43415e-49
6.01303e-55
4.39519e-56
0.0387285
0.0749482
0.0790561
0.0721469
0.0634818
0.0525116
0.0298703
0.00667334
0.000216712
2.01794e-07
4.79044e-13
4.91433e-19
5.06667e-25
4.5675e-31
3.71015e-37
2.88456e-43
2.54234e-49
3.26264e-55
1.46852e-60
4.6166e-61
0.00164675
0.0048447
0.00527911
0.00396403
0.00281355
0.00185978
0.000578916
2.9619e-05
4.64145e-08
2.93234e-13
5.39146e-19
7.67503e-25
8.82277e-31
8.64695e-37
7.64564e-43
8.05733e-49
1.948e-53
3.74071e-58
4.37781e-63
3.05981e-66
3.17908e-06
1.97416e-05
2.24796e-05
1.16824e-05
5.57008e-06
2.42249e-06
2.38913e-07
8.50537e-10
4.51655e-14
2.51994e-19
5.82709e-25
9.33969e-31
1.1721e-36
1.25438e-42
3.69285e-48
6.00488e-50
5.91286e-53
8.85607e-58
5.92515e-63
3.91752e-68
0.815197
0.905309
0.921265
0.930137
0.933207
0.932562
0.930517
0.924575
0.912674
0.889849
0.850088
0.788305
0.702937
0.59899
0.480416
0.337792
0.169858
0.0382135
0.00160174
3.01008e-06
0.905591
0.981903
0.990537
0.994212
0.995039
0.995111
0.994912
0.994027
0.991717
0.985063
0.967683
0.929607
0.859792
0.754304
0.62001
0.457491
0.25966
0.0739194
0.00470975
1.86977e-05
0.921683
0.990611
0.996925
0.999035
0.999314
0.999358
0.999331
0.999186
0.998662
0.995698
0.985768
0.958949
0.901022
0.801571
0.66256
0.486366
0.272576
0.0778955
0.00512553
2.12404e-05
0.930711
0.994343
0.999064
0.99992
0.999999
1
1
1
0.999983
0.99821
0.992396
0.973298
0.925285
0.832947
0.692787
0.505125
0.273106
0.0709536
0.00383732
1.09786e-05
0.933805
0.995162
0.999329
1
0.997637
0.983789
0.975222
0.952854
0.902041
0.810368
0.675699
0.493704
0.261708
0.0620533
0.00268807
5.09463e-06
0.932899
0.995182
0.999368
1
0.960778
0.924301
0.91538
0.892051
0.841963
0.758294
0.637696
0.466878
0.239728
0.050842
0.00174227
2.12816e-06
0.930648
0.994933
0.999335
1
0.855358
0.793179
0.788585
0.771426
0.73348
0.66915
0.566084
0.40313
0.183849
0.0285789
0.000529801
2.01719e-07
0.924513
0.99401
0.999184
1
0.67978
0.606205
0.606165
0.599896
0.580332
0.536731
0.446222
0.283574
0.090182
0.00628551
2.63842e-05
6.82704e-10
0.912561
0.991698
0.998655
0.999993
0.998367
0.966597
0.865947
0.689455
0.416805
0.384701
0.392072
0.399011
0.39326
0.361281
0.270892
0.119796
0.0155616
0.000199694
3.95826e-08
3.77557e-14
0.889836
0.985121
0.995804
0.998437
0.98584
0.929706
0.800598
0.611533
0.386314
0.245491
0.201293
0.197812
0.190583
0.15778
0.0827488
0.0147479
0.000325171
1.80005e-07
2.5162e-13
2.15653e-19
0.850276
0.967959
0.986121
0.992869
0.977235
0.920071
0.79509
0.611984
0.394737
0.200927
0.0855337
0.0522039
0.0408171
0.0236825
0.00523351
0.000164892
1.58042e-07
4.16737e-13
4.72076e-19
5.05164e-25
0.788715
0.930232
0.959697
0.974191
0.954876
0.896139
0.777192
0.605574
0.4019
0.196809
0.0506537
0.00589023
0.00165257
0.000419394
1.88223e-05
2.63362e-08
2.02857e-13
4.40252e-19
6.76995e-25
8.11839e-31
0.703544
0.860821
0.902266
0.926743
0.90414
0.845629
0.738725
0.585614
0.395932
0.189341
0.0393087
0.0015138
6.47615e-06
1.72194e-07
3.80994e-10
2.45057e-14
1.73815e-19
4.54966e-25
7.77822e-31
1.01858e-36
0.599729
0.755651
0.803263
0.834957
0.812612
0.761753
0.673971
0.541471
0.363561
0.156872
0.0229226
0.000387588
1.48516e-07
5.10977e-13
2.90432e-16
1.9281e-20
1.41001e-25
4.09177e-31
7.60883e-37
1.0905e-42
0.481258
0.621516
0.664516
0.695149
0.678169
0.64113
0.570495
0.450337
0.272942
0.0827459
0.00515242
1.80217e-05
3.47425e-10
2.66159e-16
4.06182e-22
1.41715e-26
1.06164e-31
3.31369e-37
6.73105e-43
1.20934e-47
0.338794
0.45911
0.488459
0.507644
0.496418
0.470353
0.407146
0.287105
0.12151
0.0149636
0.000167059
2.65242e-08
2.4805e-14
1.96477e-20
1.45407e-26
1.96088e-32
8.17546e-38
2.57753e-43
9.20189e-49
5.99236e-50
0.170884
0.261344
0.274585
0.27542
0.264332
0.242867
0.187045
0.0923148
0.0160665
0.000339128
1.67357e-07
2.16689e-13
1.856e-19
1.50657e-25
1.13727e-31
8.71157e-38
1.08189e-43
2.32082e-49
9.46648e-54
9.6619e-54
0.038719
0.0749375
0.0790453
0.0721316
0.0633438
0.0522392
0.0296285
0.00659771
0.000213354
1.97397e-07
4.6601e-13
4.80488e-19
4.95668e-25
4.46581e-31
3.62573e-37
2.81723e-43
2.47364e-49
3.14785e-55
1.18837e-58
7.48911e-59
0.00164562
0.00484315
0.00527875
0.00396434
0.00280265
0.00184237
0.000570435
2.90158e-05
4.50542e-08
2.84624e-13
5.25109e-19
7.48705e-25
8.60476e-31
8.43035e-37
7.4537e-43
6.6846e-49
4.76632e-54
8.75427e-59
2.12282e-63
4.01796e-64
3.17427e-06
1.97284e-05
2.24776e-05
1.16879e-05
5.52901e-06
2.37996e-06
2.325e-07
8.18245e-10
4.36716e-14
2.44549e-19
5.66774e-25
9.08752e-31
1.14034e-36
1.22054e-42
1.758e-48
1.3856e-50
1.42048e-53
2.41257e-58
1.63117e-63
1.23185e-68
0.812543
0.903232
0.919372
0.928308
0.931449
0.930783
0.928627
0.92242
0.910274
0.887233
0.847252
0.785485
0.70053
0.597315
0.479366
0.336821
0.168599
0.0373981
0.00151767
2.66198e-06
0.903583
0.981213
0.990126
0.993933
0.9948
0.994875
0.994659
0.993706
0.991264
0.984333
0.966453
0.927771
0.857608
0.752428
0.618893
0.456778
0.258614
0.0728524
0.00451786
1.69248e-05
0.919887
0.990215
0.996774
0.99898
0.999275
0.99932
0.999291
0.999134
0.998569
0.995422
0.98507
0.957583
0.899045
0.799623
0.661348
0.485731
0.2717
0.076914
0.00493043
1.92802e-05
0.928994
0.994088
0.999014
0.999916
0.999999
1
1
1
0.99998
0.998068
0.991929
0.972223
0.923516
0.831074
0.69169
0.504722
0.272421
0.0700788
0.00368222
9.85073e-06
0.932157
0.994945
0.999293
1
0.99766
0.98262
0.973645
0.950932
0.899857
0.808449
0.674658
0.493292
0.260954
0.0611713
0.00256423
4.50427e-06
0.931202
0.994961
0.999333
1
0.95866
0.920201
0.911467
0.888566
0.839141
0.75637
0.636704
0.466385
0.23885
0.0499848
0.00164982
1.84537e-06
0.928777
0.994684
0.999296
1
0.853672
0.788751
0.783868
0.767194
0.730398
0.667333
0.565264
0.402749
0.182899
0.0278715
0.000489428
1.65965e-07
0.922362
0.993692
0.999133
1
0.679189
0.603854
0.603275
0.597087
0.578257
0.53556
0.445739
0.282825
0.0887201
0.0059318
2.27385e-05
4.87768e-10
0.910145
0.991241
0.998561
0.999981
0.997715
0.95896
0.854275
0.680796
0.415731
0.38417
0.391641
0.398591
0.392891
0.360874
0.269928
0.117863
0.0147232
0.000173715
2.90976e-08
2.69202e-14
0.887178
0.984366
0.995491
0.998212
0.983877
0.923185
0.792882
0.607153
0.385525
0.246619
0.203051
0.198812
0.190849
0.15696
0.080996
0.0138655
0.000282182
1.33314e-07
1.73089e-13
1.50719e-19
0.847375
0.966671
0.985338
0.992281
0.975191
0.915107
0.788806
0.607611
0.393697
0.202552
0.0873975
0.0528123
0.0405988
0.0229843
0.0048561
0.000141079
1.15623e-07
2.66551e-13
3.31279e-19
3.53367e-25
0.785822
0.928307
0.958204
0.972931
0.952664
0.892238
0.772239
0.601682
0.400795
0.19776
0.0513841
0.00593873
0.00159095
0.000381625
1.56296e-05
1.8641e-08
1.38421e-13
3.0802e-19
4.72082e-25
5.63736e-31
0.701051
0.858525
0.900135
0.924722
0.901742
0.84251
0.735075
0.582698
0.395024
0.189669
0.0392762
0.00147539
5.86251e-06
1.38087e-07
2.55751e-10
1.68438e-14
1.19856e-19
3.15732e-25
5.3804e-31
7.05686e-37
0.597936
0.753626
0.801125
0.832768
0.81048
0.759502
0.671576
0.53965
0.362843
0.156236
0.022377
0.000357779
1.22445e-07
4.00312e-13
1.93571e-16
1.3149e-20
9.71088e-26
2.81896e-31
5.25813e-37
7.62121e-43
0.480045
0.620186
0.663033
0.693656
0.676833
0.639778
0.569172
0.44939
0.271821
0.0811083
0.00480528
1.51345e-05
2.37847e-10
1.80572e-16
2.76161e-22
9.63493e-27
7.28346e-32
2.28659e-37
4.75143e-43
8.32194e-47
0.337593
0.458106
0.487452
0.506761
0.495597
0.469475
0.406358
0.285982
0.11941
0.0140622
0.000143043
1.8797e-08
1.7027e-14
1.33383e-20
9.80981e-27
1.33423e-32
5.64574e-38
1.80418e-43
3.07376e-48
5.06762e-49
0.169365
0.259941
0.273295
0.274254
0.263094
0.241543
0.185673
0.0905423
0.015135
0.000292599
1.21277e-07
1.45797e-13
1.25933e-19
1.0198e-25
7.65913e-32
5.90646e-38
7.53847e-44
1.66317e-49
6.58341e-53
8.09225e-53
0.0377585
0.0736207
0.0777918
0.0709799
0.062162
0.0510987
0.0287147
0.00617525
0.000183507
1.43678e-07
2.90152e-13
3.28978e-19
3.36842e-25
3.00876e-31
2.44127e-37
1.92178e-43
1.73829e-49
2.29916e-55
8.27462e-58
5.58515e-58
0.00154696
0.00461241
0.00504079
0.00377394
0.00264562
0.00172297
0.000519022
2.45546e-05
3.22842e-08
1.90281e-13
3.59006e-19
5.09733e-25
5.80512e-31
5.67106e-37
5.05725e-43
4.39114e-49
4.73755e-55
2.07242e-60
7.24042e-63
2.72941e-63
2.76044e-06
1.75892e-05
2.00922e-05
1.03138e-05
4.78054e-06
2.00755e-06
1.85299e-07
5.62609e-10
3.01775e-14
1.65925e-19
3.85837e-25
6.14008e-31
7.67551e-37
8.27036e-43
8.35875e-49
2.53742e-52
2.50027e-55
5.63688e-60
4.26016e-65
1.10417e-68
0.803849
0.89598
0.912745
0.92201
0.925264
0.924345
0.921744
0.914753
0.901679
0.877535
0.836366
0.773709
0.688827
0.58697
0.470522
0.328328
0.160678
0.0336607
0.00121642
1.70638e-06
0.896408
0.978238
0.988288
0.992701
0.99371
0.993785
0.993512
0.992371
0.98953
0.981723
0.962224
0.921218
0.848788
0.74284
0.610264
0.44879
0.250023
0.0670928
0.00374413
1.14667e-05
0.913363
0.988398
0.996025
0.99871
0.999073
0.999131
0.999096
0.998907
0.998219
0.994651
0.983201
0.953637
0.892359
0.791078
0.652951
0.477807
0.263276
0.0711742
0.00411188
1.31247e-05
0.922812
0.992884
0.998752
0.999904
0.999999
1
1
1
0.999978
0.997979
0.991248
0.969994
0.91869
0.823994
0.684336
0.497593
0.264247
0.0645368
0.00300851
6.32817e-06
0.926075
0.993876
0.999094
1
0.997595
0.982628
0.972587
0.948214
0.895002
0.802046
0.668239
0.486725
0.252406
0.0554331
0.00200623
2.62559e-06
0.924827
0.993885
0.999145
1
0.955393
0.916072
0.907421
0.883911
0.833621
0.750697
0.631514
0.460404
0.229992
0.0445299
0.00123641
9.71998e-07
0.921925
0.993542
0.999101
1
0.842979
0.778863
0.775375
0.759752
0.7241
0.662412
0.561079
0.396739
0.17345
0.0236703
0.000327254
6.99956e-08
0.914674
0.992347
0.998902
1
0.671467
0.594678
0.594966
0.589815
0.572696
0.531389
0.440919
0.273563
0.0791519
0.00438612
1.16096e-05
1.22788e-10
0.901528
0.989499
0.998213
0.999994
0.998297
0.961261
0.854032
0.681199
0.41141
0.379942
0.387325
0.394173
0.388693
0.355617
0.260488
0.105889
0.0111059
9.40433e-05
8.30389e-09
6.86078e-15
0.877477
0.981775
0.99477
0.998235
0.984905
0.922351
0.786589
0.599391
0.380826
0.245196
0.201252
0.195299
0.18561
0.14864
0.071196
0.0102565
0.00015214
3.93238e-08
4.10743e-14
3.60443e-20
0.836492
0.96249
0.983576
0.991783
0.974903
0.912298
0.781442
0.599347
0.388861
0.200478
0.0850647
0.0497163
0.036744
0.0191781
0.00341239
7.25967e-05
3.24694e-08
6.25239e-14
7.8735e-20
8.01148e-26
0.774043
0.921803
0.954384
0.970933
0.950395
0.887679
0.764351
0.593807
0.395603
0.193675
0.0481451
0.00496706
0.00120306
0.000243228
7.1054e-06
4.62408e-09
3.18494e-14
7.18235e-20
1.0521e-25
1.21697e-31
0.689321
0.849707
0.893531
0.920119
0.897067
0.836748
0.727959
0.576155
0.389794
0.183562
0.0352171
0.00109689
3.11452e-06
5.29109e-08
5.23577e-11
3.75666e-15
2.68978e-20
6.89863e-26
1.14462e-31
1.50217e-37
0.587521
0.743964
0.792562
0.825831
0.804112
0.753604
0.665965
0.534334
0.356113
0.1467
0.0183633
0.000221276
4.4504e-08
1.32513e-13
3.9337e-17
2.78089e-21
2.07114e-26
5.92009e-32
1.10972e-37
1.67132e-43
0.471051
0.611393
0.654494
0.686303
0.670342
0.634307
0.564256
0.4432
0.260517
0.0702354
0.00328285
6.54319e-06
4.46943e-11
3.37601e-17
5.99107e-23