/*--------------------------------*- C++ -*----------------------------------*\
  =========                 |
  \\      /  F ield         | OpenFOAM: The Open Source CFD Toolbox
   \\    /   O peration     | Website:  https://openfoam.org
    \\  /    A nd           | Version:  9
     \\/     M anipulation  |
\*---------------------------------------------------------------------------*/
FoamFile
{
    format      ascii;
    class       volScalarField;
    location    "0.001";
    object      p;
}
// * * * * * * * * * * * * * * * * * * * * * * * * * * * * * * * * * * * * * //

dimensions      [1 -1 -2 0 0 0 0];

internalField   nonuniform List<scalar> 
9720
(
9.97157e+07
1.21219e+08
1.45307e+08
1.56478e+08
1.65924e+08
1.63914e+08
1.51728e+08
1.37247e+08
1.19152e+08
9.46639e+07
6.82657e+07
4.40349e+07
2.54212e+07
1.67526e+07
1.44996e+07
1.46719e+07
1.74388e+07
1.61817e+07
7.94119e+06
631671
1.21175e+08
1.40327e+08
1.67698e+08
1.85115e+08
2.01426e+08
2.05858e+08
1.95293e+08
1.80698e+08
1.58525e+08
1.19618e+08
8.03666e+07
5.02199e+07
2.87124e+07
1.69472e+07
1.36944e+07
1.26391e+07
1.3895e+07
1.55005e+07
9.10357e+06
1.29319e+06
1.45237e+08
1.67631e+08
1.9687e+08
2.18678e+08
2.45291e+08
2.59988e+08
2.52076e+08
2.35313e+08
1.93561e+08
1.33885e+08
8.88407e+07
5.66163e+07
3.37881e+07
2.04977e+07
1.61891e+07
1.42694e+07
1.39486e+07
1.42564e+07
8.38229e+06
1.18457e+06
1.56344e+08
1.8488e+08
2.18374e+08
2.15714e+08
2.64545e+08
2.96656e+08
3.07119e+08
2.89131e+08
2.40448e+08
9.35862e+07
6.46585e+07
4.32876e+07
2.66288e+07
1.6982e+07
1.40092e+07
1.29203e+07
1.34171e+07
1.35068e+07
7.11247e+06
674977
1.65674e+08
2.00898e+08
2.44289e+08
2.64707e+08
8.64099e+07
4.32621e+07
3.79837e+07
2.85153e+07
1.81452e+07
1.16184e+07
9.97616e+06
1.00106e+07
1.23867e+07
1.2593e+07
5.73849e+06
369526
1.63776e+08
2.05612e+08
2.59363e+08
2.95374e+08
3.19484e+07
2.7195e+07
2.53253e+07
1.98402e+07
1.29346e+07
9.65857e+06
9.16058e+06
1.01831e+07
1.35923e+07
1.20712e+07
4.46948e+06
222561
1.51566e+08
1.94991e+08
2.51645e+08
3.06152e+08
2.17007e+07
1.71752e+07
1.60964e+07
1.34904e+07
1.03538e+07
9.44442e+06
9.67872e+06
1.2254e+07
1.59163e+07
1.03624e+07
2.29062e+06
134596
1.37305e+08
1.80635e+08
2.34748e+08
2.88577e+08
1.31407e+07
1.14467e+07
1.20842e+07
1.15965e+07
1.07923e+07
1.08524e+07
1.30669e+07
1.79851e+07
1.51444e+07
6.25177e+06
352392
122569
1.19272e+08
1.58233e+08
1.91486e+08
2.34265e+08
8.34376e+07
3.44431e+07
2.30424e+07
1.40556e+07
7.01832e+06
8.19264e+06
1.1035e+07
1.25708e+07
1.35955e+07
1.57848e+07
1.99563e+07
1.73347e+07
8.58655e+06
898406
123361
122500
9.46176e+07
1.18997e+08
1.32402e+08
9.25689e+07
4.46336e+07
2.83025e+07
1.79919e+07
1.1995e+07
8.54685e+06
7.08314e+06
1.09901e+07
1.502e+07
1.76376e+07
1.86457e+07
1.48858e+07
8.13647e+06
1.10754e+06
124695
122500
122500
6.81281e+07
7.99068e+07
8.8135e+07
6.45797e+07
3.86784e+07
2.61853e+07
1.67051e+07
1.22747e+07
1.11983e+07
1.1212e+07
1.52944e+07
1.6056e+07
1.31113e+07
9.56973e+06
5.10779e+06
711214
124332
122500
122500
122500
4.38934e+07
4.99678e+07
5.62929e+07
4.33688e+07
2.8858e+07
2.03684e+07
1.38944e+07
1.16722e+07
1.25267e+07
1.51273e+07
1.61459e+07
1.16442e+07
5.02597e+06
1.67041e+06
249680
122982
122500
122500
122500
122500
2.53396e+07
2.85873e+07
3.36134e+07
2.66528e+07
1.83527e+07
1.322e+07
1.05341e+07
1.08451e+07
1.35211e+07
1.77991e+07
1.33823e+07
5.21507e+06
345782
128057
122524
122500
122500
122500
122500
122500
1.6739e+07
1.69123e+07
2.04188e+07
1.69703e+07
1.17367e+07
9.80664e+06
9.55626e+06
1.09031e+07
1.57796e+07
1.8964e+07
9.85896e+06
1.80917e+06
129362
122500
122500
122500
122500
122500
122500
122500
1.4498e+07
1.3688e+07
1.61525e+07
1.40057e+07
1.00604e+07
9.24975e+06
9.73234e+06
1.30839e+07
2.00591e+07
1.51523e+07
5.31035e+06
264885
122530
122500
122500
122500
122500
122500
122500
122500
1.46869e+07
1.26444e+07
1.42543e+07
1.29223e+07
1.00605e+07
1.02105e+07
1.22583e+07
1.80155e+07
1.75041e+07
8.29444e+06
752320
123055
122500
122500
122500
122500
122500
122500
122500
122500
1.74589e+07
1.39186e+07
1.39622e+07
1.3444e+07
1.24169e+07
1.35949e+07
1.59423e+07
1.5227e+07
8.68593e+06
1.15284e+06
124543
122500
122500
122500
122500
122500
122500
122500
122500
122500
1.61687e+07
1.55063e+07
1.42706e+07
1.35296e+07
1.26153e+07
1.2093e+07
1.03989e+07
6.3091e+06
925421
124897
122500
122500
122500
122500
122500
122500
122500
122500
122500
122500
7.91859e+06
9.08841e+06
8.382e+06
7.12843e+06
5.76115e+06
4.48899e+06
2.3097e+06
358820
123424
122500
122500
122500
122500
122500
122500
122500
122500
122500
122500
122500
625193
1.28291e+06
1.18001e+06
677576
372309
223758
134863
122572
122500
122500
122500
122500
122500
122500
122500
122500
122500
122500
122500
122500
1.02228e+08
1.23438e+08
1.47198e+08
1.5781e+08
1.67275e+08
1.65059e+08
1.53422e+08
1.39791e+08
1.22121e+08
9.75343e+07
7.08316e+07
4.65676e+07
2.74853e+07
1.77876e+07
1.52244e+07
1.49774e+07
1.73817e+07
1.68028e+07
8.64565e+06
834516
1.234e+08
1.41755e+08
1.67969e+08
1.83845e+08
2.00538e+08
2.04594e+08
1.9481e+08
1.81119e+08
1.57638e+08
1.17784e+08
8.01154e+07
5.16402e+07
3.06301e+07
1.81478e+07
1.43907e+07
1.30929e+07
1.39058e+07
1.57513e+07
9.79282e+06
1.6475e+06
1.47132e+08
1.67891e+08
1.9531e+08
2.15235e+08
2.42469e+08
2.5683e+08
2.49509e+08
2.32519e+08
1.86096e+08
1.26013e+08
8.38003e+07
5.47276e+07
3.37917e+07
2.08452e+07
1.63644e+07
1.44731e+07
1.39995e+07
1.45044e+07
9.03638e+06
1.52782e+06
1.57689e+08
1.83636e+08
2.14939e+08
2.10308e+08
2.58415e+08
2.90916e+08
3.00556e+08
2.85811e+08
2.28713e+08
8.37397e+07
5.83052e+07
4.01757e+07
2.56711e+07
1.66045e+07
1.36537e+07
1.26504e+07
1.31205e+07
1.38506e+07
7.75103e+06
939984
1.67006e+08
1.9982e+08
2.40901e+08
2.55329e+08
7.19319e+07
3.83104e+07
3.43172e+07
2.68551e+07
1.80844e+07
1.16961e+07
9.93143e+06
9.78517e+06
1.18684e+07
1.30435e+07
6.54631e+06
534776
1.64997e+08
2.04395e+08
2.55932e+08
2.87888e+08
2.86472e+07
2.51892e+07
2.38262e+07
1.95555e+07
1.33473e+07
9.58481e+06
8.86292e+06
9.53526e+06
1.26723e+07
1.27998e+07
5.5684e+06
333850
1.53392e+08
1.94675e+08
2.49125e+08
2.99389e+08
1.96491e+07
1.68794e+07
1.56787e+07
1.33103e+07
1.01076e+07
8.88067e+06
8.9305e+06
1.09279e+07
1.52971e+07
1.17273e+07
3.43438e+06
162397
1.39819e+08
1.81152e+08
2.3242e+08
2.85702e+08
1.24482e+07
1.08454e+07
1.08856e+07
1.03519e+07
9.67017e+06
9.75568e+06
1.14668e+07
1.64413e+07
1.69778e+07
8.14205e+06
760146
123037
1.22217e+08
1.57613e+08
1.85745e+08
2.2483e+08
7.17374e+07
2.89308e+07
1.92332e+07
1.21302e+07
5.4567e+06
6.59274e+06
9.18423e+06
1.0715e+07
1.18404e+07
1.40041e+07
1.86885e+07
1.97653e+07
1.06863e+07
1.98768e+06
129340
122500
9.76382e+07
1.1777e+08
1.25763e+08
8.3971e+07
3.90896e+07
2.51575e+07
1.64312e+07
1.04909e+07
6.55699e+06
5.73303e+06
8.97845e+06
1.33626e+07
1.68761e+07
1.96525e+07
1.79461e+07
1.04356e+07
2.48043e+06
139989
122501
122500
7.09001e+07
8.02062e+07
8.38236e+07
5.84962e+07
3.46772e+07
2.39077e+07
1.55613e+07
1.0713e+07
9.18562e+06
9.06919e+06
1.34223e+07
1.70203e+07
1.57056e+07
1.23258e+07
7.46939e+06
1.70985e+06
137820
122501
122500
122500
4.66192e+07
5.17412e+07
5.49073e+07
4.03386e+07
2.70237e+07
1.97339e+07
1.33582e+07
1.03168e+07
1.07791e+07
1.35517e+07
1.70979e+07
1.41463e+07
8.17757e+06
3.28642e+06
570313
127026
122500
122500
122500
122500
2.75203e+07
3.07052e+07
3.39643e+07
2.57886e+07
1.81984e+07
1.34954e+07
1.01828e+07
9.7264e+06
1.1976e+07
1.7058e+07
1.56328e+07
8.12548e+06
1.01214e+06
157496
122778
122500
122500
122500
122500
122500
1.78068e+07
1.81906e+07
2.09494e+07
1.66787e+07
1.17799e+07
9.66242e+06
8.9412e+06
9.83631e+06
1.42002e+07
1.97436e+07
1.21798e+07
3.16805e+06
153880
122504
122500
122500
122500
122500
122500
122500
1.524e+07
1.44144e+07
1.6429e+07
1.37103e+07
9.99601e+06
8.91392e+06
8.98086e+06
1.15736e+07
1.88991e+07
1.78073e+07
7.32912e+06
536167
122738
122500
122500
122500
122500
122500
122500
122500
1.49896e+07
1.3115e+07
1.45212e+07
1.27017e+07
9.83157e+06
9.56204e+06
1.09656e+07
1.65596e+07
1.97682e+07
1.03488e+07
1.6406e+06
126537
122500
122500
122500
122500
122500
122500
122500
122500
1.73944e+07
1.39283e+07
1.40291e+07
1.31546e+07
1.18858e+07
1.26833e+07
1.53447e+07
1.70131e+07
1.06487e+07
2.41173e+06
136534
122500
122500
122500
122500
122500
122500
122500
122500
122500
1.6809e+07
1.57729e+07
1.45297e+07
1.38886e+07
1.30806e+07
1.2844e+07
1.17621e+07
8.13956e+06
1.9512e+06
138819
122501
122500
122500
122500
122500
122500
122500
122500
122500
122500
8.64228e+06
9.79698e+06
9.05398e+06
7.78267e+06
6.58996e+06
5.60644e+06
3.44668e+06
753323
129000
122501
122500
122500
122500
122500
122500
122500
122500
122500
122500
122500
831978
1.6468e+06
1.53267e+06
951254
544966
338305
162691
123024
122500
122500
122500
122500
122500
122500
122500
122500
122500
122500
122500
122500
1.03852e+08
1.23759e+08
1.46653e+08
1.5748e+08
1.67381e+08
1.65819e+08
1.54706e+08
1.41324e+08
1.24074e+08
9.94362e+07
7.29943e+07
4.91972e+07
2.98447e+07
1.87952e+07
1.58034e+07
1.51024e+07
1.69912e+07
1.71276e+07
9.33753e+06
1.15442e+06
1.23676e+08
1.40857e+08
1.67595e+08
1.85167e+08
2.03393e+08
2.09447e+08
2.00287e+08
1.8622e+08
1.61272e+08
1.19846e+08
8.18904e+07
5.39014e+07
3.31338e+07
1.95876e+07
1.49558e+07
1.34293e+07
1.38377e+07
1.56468e+07
1.05447e+07
2.13441e+06
1.46551e+08
1.67533e+08
1.96486e+08
2.17914e+08
2.46196e+08
2.62019e+08
2.5639e+08
2.3884e+08
1.87835e+08
1.27008e+08
8.60037e+07
5.80742e+07
3.74522e+07
2.34458e+07
1.7822e+07
1.54658e+07
1.43567e+07
1.45263e+07
9.80208e+06
2.02159e+06
1.57263e+08
1.84832e+08
2.17242e+08
2.12318e+08
2.60241e+08
2.94781e+08
3.06387e+08
2.95214e+08
2.2741e+08
8.37454e+07
6.11056e+07
4.47417e+07
3.06853e+07
2.02567e+07
1.60845e+07
1.43852e+07
1.38835e+07
1.42896e+07
8.70798e+06
1.40695e+06
1.67264e+08
2.03211e+08
2.45388e+08
2.584e+08
6.59462e+07
3.95067e+07
3.70659e+07
3.10052e+07
2.25614e+07
1.48105e+07
1.19906e+07
1.12072e+07
1.22532e+07
1.36278e+07
7.67102e+06
936046
1.65902e+08
2.09665e+08
2.61993e+08
2.93252e+08
2.91549e+07
2.69314e+07
2.63292e+07
2.3089e+07
1.70759e+07
1.21885e+07
1.07714e+07
1.08055e+07
1.27855e+07
1.35993e+07
7.03029e+06
632087
1.54777e+08
2.00427e+08
2.56535e+08
3.064e+08
1.98119e+07
1.85599e+07
1.80039e+07
1.61675e+07
1.29359e+07
1.09003e+07
1.05887e+07
1.16653e+07
1.492e+07
1.31417e+07
5.12253e+06
259559
1.41356e+08
1.86539e+08
2.39847e+08
2.953e+08
1.29069e+07
1.25731e+07
1.26732e+07
1.22524e+07
1.15674e+07
1.14579e+07
1.23932e+07
1.57823e+07
1.79417e+07
1.01526e+07
1.72735e+06
127037
1.24282e+08
1.62354e+08
1.90798e+08
2.31326e+08
6.72422e+07
2.82781e+07
1.98752e+07
1.27578e+07
6.31325e+06
7.73254e+06
1.05359e+07
1.23034e+07
1.32613e+07
1.47128e+07
1.80052e+07
2.0616e+07
1.31331e+07
3.86866e+06
167793
122503
9.98644e+07
1.20939e+08
1.28642e+08
8.34233e+07
3.75382e+07
2.63473e+07
1.84905e+07
1.26363e+07
7.7858e+06
6.63399e+06
9.66362e+06
1.41288e+07
1.73452e+07
1.98975e+07
2.0029e+07
1.3102e+07
4.74174e+06
232055
122517
122500
7.33913e+07
8.2485e+07
8.64096e+07
5.99566e+07
3.53811e+07
2.56482e+07
1.77957e+07
1.26955e+07
1.06463e+07
9.71382e+06
1.2912e+07
1.73293e+07
1.75538e+07
1.48631e+07
1.00262e+07
3.54731e+06
222840
122526
122500
122500
4.94769e+07
5.41904e+07
5.80635e+07
4.37987e+07
2.97408e+07
2.23783e+07
1.58098e+07
1.22773e+07
1.25027e+07
1.44444e+07
1.76572e+07
1.65816e+07
1.11764e+07
5.55967e+06
1.48639e+06
157147
122513
122500
122500
122500
3.00078e+07
3.33005e+07
3.74185e+07
3.01526e+07
2.17304e+07
1.64629e+07
1.25631e+07
1.1583e+07
1.3534e+07
1.77257e+07
1.74712e+07
1.10454e+07
2.66301e+06
287879
125623
122502
122500
122500
122500
122500
1.88345e+07
1.96453e+07
2.34165e+07
2.002e+07
1.43491e+07
1.17719e+07
1.06667e+07
1.14407e+07
1.50103e+07
2.0097e+07
1.44276e+07
5.13534e+06
250904
122564
122500
122500
122500
122500
122500
122500
1.58138e+07
1.49528e+07
1.77721e+07
1.59257e+07
1.16822e+07
1.04636e+07
1.03961e+07
1.23823e+07
1.82785e+07
1.9821e+07
9.59601e+06
1.2841e+06
124619
122500
122500
122500
122500
122500
122500
122500
1.50892e+07
1.34212e+07
1.54277e+07
1.42772e+07
1.09916e+07
1.05895e+07
1.15356e+07
1.58423e+07
2.06581e+07
1.28063e+07
3.26079e+06
149705
122501
122500
122500
122500
122500
122500
122500
122500
1.69629e+07
1.38159e+07
1.43233e+07
1.38128e+07
1.2128e+07
1.26797e+07
1.48931e+07
1.79685e+07
1.29921e+07
4.50983e+06
207078
122510
122500
122500
122500
122500
122500
122500
122500
122500
1.71313e+07
1.56398e+07
1.45134e+07
1.42772e+07
1.36238e+07
1.3622e+07
1.31537e+07
1.01024e+07
3.73766e+06
218643
122520
122500
122500
122500
122500
122500
122500
122500
122500
122500
9.35149e+06
1.05654e+07
9.83027e+06
8.74081e+06
7.70647e+06
7.06199e+06
5.11877e+06
1.68865e+06
163483
122513
122500
122500
122500
122500
122500
122500
122500
122500
122500
122500
1.16279e+06
2.1493e+06
2.04056e+06
1.4275e+06
957301
642368
258984
126748
122502
122500
122500
122500
122500
122500
122500
122500
122500
122500
122500
122500
1.09003e+08
1.29216e+08
1.51322e+08
1.62287e+08
1.7262e+08
1.72063e+08
1.61761e+08
1.49895e+08
1.34112e+08
1.09951e+08
8.25009e+07
5.69211e+07
3.51129e+07
2.15635e+07
1.76962e+07
1.63696e+07
1.76783e+07
1.78401e+07
1.0034e+07
1.42966e+06
1.29115e+08
1.46865e+08
1.71883e+08
1.89688e+08
2.09072e+08
2.16795e+08
2.08833e+08
1.96127e+08
1.71385e+08
1.2978e+08
9.17676e+07
6.24083e+07
3.93593e+07
2.31286e+07
1.69857e+07
1.49248e+07
1.47861e+07
1.61809e+07
1.13227e+07
2.5389e+06
1.51244e+08
1.71941e+08
2.0054e+08
2.22168e+08
2.51784e+08
2.69316e+08
2.65859e+08
2.49573e+08
1.96029e+08
1.33776e+08
9.3866e+07
6.62299e+07
4.43173e+07
2.79212e+07
2.05245e+07
1.74489e+07
1.56135e+07
1.51518e+07
1.0562e+07
2.42279e+06
1.62123e+08
1.89697e+08
2.22318e+08
2.18334e+08
2.67934e+08
3.05479e+08
3.20177e+08
3.12202e+08
2.33952e+08
8.58742e+07
6.53494e+07
5.07494e+07
3.67929e+07
2.46585e+07
1.90062e+07
1.65614e+07
1.52297e+07
1.50393e+07
9.55321e+06
1.76681e+06
1.72594e+08
2.09072e+08
2.51596e+08
2.67219e+08
6.82932e+07
4.15863e+07
4.02423e+07
3.55024e+07
2.72921e+07
1.81858e+07
1.42442e+07
1.29129e+07
1.32639e+07
1.4442e+07
8.55793e+06
1.258e+06
1.72227e+08
2.17146e+08
2.69628e+08
3.0564e+08
3.03786e+07
3.09981e+07
3.06164e+07
2.75459e+07
2.09196e+07
1.4829e+07
1.27944e+07
1.237e+07
1.37624e+07
1.45646e+07
7.99568e+06
896273
1.61856e+08
2.09011e+08
2.66127e+08
3.21068e+08
2.32332e+07
2.33441e+07
2.26588e+07
2.03182e+07
1.61609e+07
1.31886e+07
1.24986e+07
1.31094e+07
1.58378e+07
1.43489e+07
6.22795e+06
364344
1.50002e+08
1.96429e+08
2.5007e+08
3.12369e+08
1.68283e+07
1.67285e+07
1.65659e+07
1.56647e+07
1.42727e+07
1.37321e+07
1.41885e+07
1.70604e+07
1.93212e+07
1.16651e+07
2.47676e+06
134146
1.34285e+08
1.72165e+08
1.98074e+08
2.38503e+08
6.75186e+07
2.9853e+07
2.32861e+07
1.67788e+07
8.85049e+06
1.0094e+07
1.33127e+07
1.51592e+07
1.58126e+07
1.68787e+07
1.97369e+07
2.24619e+07
1.51074e+07
5.25955e+06
226467
122512
1.10335e+08
1.30773e+08
1.3538e+08
8.73045e+07
4.12445e+07
3.03613e+07
2.26399e+07
1.61305e+07
1.00134e+07
8.23529e+06
1.14e+07
1.63934e+07
1.97362e+07
2.21261e+07
2.23672e+07
1.52763e+07
6.38118e+06
366070
122573
122500
8.29732e+07
9.2593e+07
9.48243e+07
6.58072e+07
3.98805e+07
3.00061e+07
2.18692e+07
1.59543e+07
1.32477e+07
1.14659e+07
1.42821e+07
1.93217e+07
1.9795e+07
1.70708e+07
1.19211e+07
4.96828e+06
350706
122616
122500
122500
5.73693e+07
6.30217e+07
6.68866e+07
5.09334e+07
3.51289e+07
2.69749e+07
1.95535e+07
1.52335e+07
1.51495e+07
1.66272e+07
1.95112e+07
1.89854e+07
1.34845e+07
7.15461e+06
2.26327e+06
207786
122562
122500
122500
122500
3.54416e+07
3.98062e+07
4.48233e+07
3.6967e+07
2.70212e+07
2.04639e+07
1.56574e+07
1.40644e+07
1.58539e+07
1.98466e+07
1.96151e+07
1.33429e+07
4.03495e+06
452778
131654
122508
122500
122500
122500
122500
2.17052e+07
2.33634e+07
2.82484e+07
2.48366e+07
1.80501e+07
1.45542e+07
1.29587e+07
1.35826e+07
1.69021e+07
2.19476e+07
1.65511e+07
6.74265e+06
399147
122735
122500
122500
122500
122500
122500
122500
1.77655e+07
1.70811e+07
2.06799e+07
1.91073e+07
1.41303e+07
1.25935e+07
1.23294e+07
1.40926e+07
1.9672e+07
2.19354e+07
1.14608e+07
2.04194e+06
129509
122500
122500
122500
122500
122500
122500
122500
1.63915e+07
1.49838e+07
1.7554e+07
1.66255e+07
1.28168e+07
1.22423e+07
1.29957e+07
1.69743e+07
2.22861e+07
1.49432e+07
4.68707e+06
195103
122506
122500
122500
122500
122500
122500
122500
122500
1.76565e+07
1.48028e+07
1.56595e+07
1.52461e+07
1.31744e+07
1.36769e+07
1.57597e+07
1.92591e+07
1.49672e+07
6.19534e+06
329186
122551
122500
122500
122500
122500
122500
122500
122500
122500
1.7859e+07
1.61854e+07
1.51624e+07
1.50453e+07
1.44312e+07
1.45839e+07
1.43745e+07
1.1653e+07
5.19191e+06
351882
122601
122500
122500
122500
122500
122500
122500
122500
122500
122500
1.00781e+07
1.13779e+07
1.06228e+07
9.62004e+06
8.62751e+06
8.06598e+06
6.28764e+06
2.48559e+06
223655
122566
122500
122500
122500
122500
122500
122500
122500
122500
122500
122500
1.45651e+06
2.57865e+06
2.46712e+06
1.80878e+06
1.30002e+06
930201
373639
134287
122512
122500
122500
122500
122500
122500
122500
122500
122500
122500
122500
122500
1.14185e+08
1.35005e+08
1.56801e+08
1.67911e+08
1.78292e+08
1.78562e+08
1.69054e+08
1.59254e+08
1.44965e+08
1.20808e+08
9.14559e+07
6.32945e+07
3.88148e+07
2.34352e+07
1.89918e+07
1.72975e+07
1.83077e+07
1.83564e+07
1.0401e+07
1.5459e+06
1.34992e+08
1.52453e+08
1.7629e+08
1.94002e+08
2.13556e+08
2.22327e+08
2.15475e+08
2.05095e+08
1.81675e+08
1.40748e+08
1.02088e+08
7.01247e+07
4.39747e+07
2.5428e+07
1.83663e+07
1.59744e+07
1.55376e+07
1.66858e+07
1.17312e+07
2.70843e+06
1.56822e+08
1.76319e+08
2.03372e+08
2.23527e+08
2.53478e+08
2.71632e+08
2.69648e+08
2.5475e+08
2.02279e+08
1.42233e+08
1.03258e+08
7.43377e+07
4.97823e+07
3.08737e+07
2.22679e+07
1.87675e+07
1.65304e+07
1.57122e+07
1.09669e+07
2.59223e+06
1.67915e+08
1.93902e+08
2.22997e+08
2.18846e+08
2.6796e+08
3.06255e+08
3.23876e+08
3.19223e+08
2.42717e+08
8.97524e+07
7.18409e+07
5.75445e+07
4.19531e+07
2.75585e+07
2.07629e+07
1.79031e+07
1.62067e+07
1.56787e+07
9.98512e+06
1.91504e+06
1.78314e+08
2.13355e+08
2.52428e+08
2.6628e+08
6.90517e+07
4.53729e+07
4.46739e+07
4.0081e+07
3.08764e+07
2.0206e+07
1.55086e+07
1.39094e+07
1.40406e+07
1.50494e+07
8.97737e+06
1.37526e+06
1.78696e+08
2.22503e+08
2.71439e+08
3.05421e+08
3.44133e+07
3.49188e+07
3.44719e+07
3.09274e+07
2.31864e+07
1.60835e+07
1.37808e+07
1.32349e+07
1.45279e+07
1.51909e+07
8.3948e+06
984064
1.69119e+08
2.15573e+08
2.6969e+08
3.24024e+08
2.93267e+07
2.60313e+07
2.48508e+07
2.20408e+07
1.74177e+07
1.41464e+07
1.33651e+07
1.39298e+07
1.6626e+07
1.49702e+07
6.60724e+06
399971
1.59242e+08
2.05136e+08
2.54955e+08
3.1948e+08
2.09484e+07
1.79507e+07
1.77205e+07
1.67509e+07
1.52254e+07
1.46095e+07
1.50589e+07
1.80099e+07
2.02292e+07
1.22717e+07
2.71272e+06
136904
1.45088e+08
1.82217e+08
2.03392e+08
2.43872e+08
6.83088e+07
3.41535e+07
2.82767e+07
1.98508e+07
9.7965e+06
1.06246e+07
1.40703e+07
1.60859e+07
1.67741e+07
1.78836e+07
2.08649e+07
2.36599e+07
1.59384e+07
5.70559e+06
248014
122517
1.21138e+08
1.41666e+08
1.43625e+08
9.12648e+07
4.57925e+07
3.49842e+07
2.57708e+07
1.76394e+07
1.06442e+07
8.60929e+06
1.20169e+07
1.74283e+07
2.09809e+07
2.34226e+07
2.36054e+07
1.61575e+07
6.90608e+06
414018
122600
122500
9.18922e+07
1.02985e+08
1.04441e+08
7.28288e+07
4.50251e+07
3.45472e+07
2.47011e+07
1.75659e+07
1.41226e+07
1.20803e+07
1.50756e+07
2.05567e+07
2.10035e+07
1.80158e+07
1.26082e+07
5.40379e+06
396069
122660
122500
122500
6.37185e+07
7.08109e+07
7.52232e+07
5.81788e+07
4.03015e+07
3.09655e+07
2.19747e+07
1.67111e+07
1.6168e+07
1.75432e+07
2.05946e+07
2.01445e+07
1.44295e+07
7.67406e+06
2.48936e+06
225745
122585
122500
122500
122500
3.91171e+07
4.44289e+07
5.0385e+07
4.23467e+07
3.09847e+07
2.3195e+07
1.74307e+07
1.52859e+07
1.68782e+07
2.09852e+07
2.08398e+07
1.43478e+07
4.55361e+06
506896
133852
122512
122500
122500
122500
122500
2.35689e+07
2.56515e+07
3.12152e+07
2.77911e+07
2.02578e+07
1.60942e+07
1.41835e+07
1.46771e+07
1.79569e+07
2.32588e+07
1.77126e+07
7.46196e+06
478409
122834
122500
122500
122500
122500
122500
122500
1.90547e+07
1.8459e+07
2.24326e+07
2.08873e+07
1.55196e+07
1.3781e+07
1.33973e+07
1.5106e+07
2.08336e+07
2.33504e+07
1.23861e+07
2.39438e+06
132860
122500
122500
122500
122500
122500
122500
122500
1.73215e+07
1.60341e+07
1.88846e+07
1.79975e+07
1.39172e+07
1.32401e+07
1.39421e+07
1.79798e+07
2.3579e+07
1.60604e+07
5.32395e+06
222285
122511
122500
122500
122500
122500
122500
122500
122500
1.82921e+07
1.55636e+07
1.65975e+07
1.62639e+07
1.40334e+07
1.45222e+07
1.66068e+07
2.02464e+07
1.59943e+07
6.92133e+06
396748
122586
122500
122500
122500
122500
122500
122500
122500
122500
1.8388e+07
1.67e+07
1.57432e+07
1.57179e+07
1.50894e+07
1.52697e+07
1.50894e+07
1.24039e+07
5.80122e+06
422834
122667
122500
122500
122500
122500
122500
122500
122500
122500
122500
1.04626e+07
1.18031e+07
1.10499e+07
1.00737e+07
9.08645e+06
8.52887e+06
6.76309e+06
2.81082e+06
255699
122608
122500
122500
122500
122500
122500
122500
122500
122500
122500
122500
1.58255e+06
2.76019e+06
2.64804e+06
1.96609e+06
1.43301e+06
1.04162e+06
423215
138424
122519
122500
122500
122500
122500
122500
122500
122500
122500
122500
122500
122500
1.14206e+08
1.35028e+08
1.56814e+08
1.67925e+08
1.7838e+08
1.78608e+08
1.69116e+08
1.59286e+08
1.44941e+08
1.20732e+08
9.13843e+07
6.3252e+07
3.87927e+07
2.34299e+07
1.89909e+07
1.72998e+07
1.83143e+07
1.83612e+07
1.04039e+07
1.54646e+06
1.35004e+08
1.5246e+08
1.76309e+08
1.94015e+08
2.138e+08
2.22438e+08
2.15591e+08
2.05056e+08
1.81488e+08
1.40631e+08
1.02054e+08
7.01149e+07
4.3969e+07
2.5426e+07
1.83685e+07
1.59765e+07
1.55426e+07
1.66917e+07
1.17328e+07
2.70877e+06
1.56822e+08
1.76281e+08
2.03374e+08
2.235e+08
2.53986e+08
2.72002e+08
2.69804e+08
2.54557e+08
2.01973e+08
1.42206e+08
1.03367e+08
7.44597e+07
4.98643e+07
3.09123e+07
2.22825e+07
1.87738e+07
1.65328e+07
1.57166e+07
1.09711e+07
2.59403e+06
1.67915e+08
1.93841e+08
2.23008e+08
2.14768e+08
2.65134e+08
3.02012e+08
3.18442e+08
3.12973e+08
2.37397e+08
9.0135e+07
7.23442e+07
5.79462e+07
4.22033e+07
2.7666e+07
2.07999e+07
1.79185e+07
1.62064e+07
1.56789e+07
9.99469e+06
1.92002e+06
1.78211e+08
2.13096e+08
2.51999e+08
2.61519e+08
6.40016e+07
4.5648e+07
4.49854e+07
4.04048e+07
3.11418e+07
2.03518e+07
1.55677e+07
1.39363e+07
1.40347e+07
1.50405e+07
8.98499e+06
1.37956e+06
1.78653e+08
2.22361e+08
2.71067e+08
2.99118e+08
3.70432e+07
3.49142e+07
3.45115e+07
3.10417e+07
2.33385e+07
1.61754e+07
1.38299e+07
1.32472e+07
1.45135e+07
1.51753e+07
8.38231e+06
981051
1.69102e+08
2.15503e+08
2.69519e+08
3.18123e+08
2.91888e+07
2.57403e+07
2.47914e+07
2.2086e+07
1.7489e+07
1.41884e+07
1.33879e+07
1.39256e+07
1.66128e+07
1.49469e+07
6.57795e+06
396574
1.59202e+08
2.05062e+08
2.55e+08
3.13198e+08
1.97508e+07
1.76855e+07
1.76412e+07
1.67207e+07
1.52233e+07
1.46119e+07
1.50573e+07
1.79981e+07
2.02045e+07
1.22216e+07
2.68635e+06
136544
1.45108e+08
1.82397e+08
2.03821e+08
2.43025e+08
6.48753e+07
3.71019e+07
2.98546e+07
2.02962e+07
9.66058e+06
1.05222e+07
1.39928e+07
1.60192e+07
1.67228e+07
1.78515e+07
2.08451e+07
2.36219e+07
1.58641e+07
5.65414e+06
245105
122516
1.2118e+08
1.41814e+08
1.43868e+08
9.08675e+07
4.50183e+07
3.49015e+07
2.59499e+07
1.7882e+07
1.06787e+07
8.60317e+06
1.19761e+07
1.73529e+07
2.09021e+07
2.33619e+07
2.35385e+07
1.60706e+07
6.84475e+06
407480
122596
122500
9.19122e+07
1.03036e+08
1.04508e+08
7.27557e+07
4.45468e+07
3.44513e+07
2.48424e+07
1.7735e+07
1.41845e+07
1.20946e+07
1.50632e+07
2.05088e+07
2.09808e+07
1.79837e+07
1.25539e+07
5.35173e+06
389730
122654
122500
122500
6.37075e+07
7.07971e+07
7.52067e+07
5.82455e+07
4.01928e+07
3.09173e+07
2.20229e+07
1.67958e+07
1.62165e+07
1.75458e+07
2.05906e+07
2.01751e+07
1.44721e+07
7.66606e+06
2.46587e+06
223197
122581
122500
122500
122500
3.90972e+07
4.43932e+07
5.0341e+07
4.24205e+07
3.10387e+07
2.31905e+07
1.74249e+07
1.53081e+07
1.69046e+07
2.09921e+07
2.08522e+07
1.44062e+07
4.59322e+06
505623
133571
122511
122500
122500
122500
122500
2.35586e+07
2.56244e+07
3.11824e+07
2.78166e+07
2.03015e+07
1.61046e+07
1.41875e+07
1.46882e+07
1.79738e+07
2.32722e+07
1.7731e+07
7.50325e+06
482885
122836
122500
122500
122500
122500
122500
122500
1.90517e+07
1.84439e+07
2.24117e+07
2.08814e+07
1.55329e+07
1.37897e+07
1.3399e+07
1.51093e+07
2.08449e+07
2.33493e+07
1.23997e+07
2.40064e+06
132899
122500
122500
122500
122500
122500
122500
122500
1.73245e+07
1.60244e+07
1.88674e+07
1.79865e+07
1.3926e+07
1.32456e+07
1.39459e+07
1.79889e+07
2.3565e+07
1.60324e+07
5.31557e+06
221830
122511
122500
122500
122500
122500
122500
122500
122500
1.83021e+07
1.55625e+07
1.65883e+07
1.62575e+07
1.40464e+07
1.45322e+07
1.66113e+07
2.02197e+07
1.59418e+07
6.89252e+06
394195
122584
122500
122500
122500
122500
122500
122500
122500
122500
1.83924e+07
1.6704e+07
1.57417e+07
1.57188e+07
1.50913e+07
1.52502e+07
1.50461e+07
1.23501e+07
5.76348e+06
418955
122663
122500
122500
122500
122500
122500
122500
122500
122500
122500
1.04609e+07
1.18025e+07
1.10476e+07
1.00743e+07
9.07519e+06
8.49978e+06
6.72308e+06
2.78534e+06
253410
122605
122500
122500
122500
122500
122500
122500
122500
122500
122500
122500
1.581e+06
2.75895e+06
2.64695e+06
1.96617e+06
1.42737e+06
1.03215e+06
418452
138054
122518
122500
122500
122500
122500
122500
122500
122500
122500
122500
122500
122500
1.09015e+08
1.29211e+08
1.51334e+08
1.62326e+08
1.72746e+08
1.72151e+08
1.6186e+08
1.50011e+08
1.34086e+08
1.09802e+08
8.23413e+07
5.68069e+07
3.50578e+07
2.1558e+07
1.77009e+07
1.63791e+07
1.76924e+07
1.78437e+07
1.00323e+07
1.42732e+06
1.2913e+08
1.46865e+08
1.71957e+08
1.899e+08
2.09486e+08
2.16971e+08
2.08986e+08
1.96236e+08
1.70988e+08
1.29289e+08
9.1434e+07
6.22416e+07
3.92921e+07
2.31187e+07
1.69982e+07
1.49359e+07
1.47974e+07
1.61879e+07
1.13167e+07
2.53409e+06
1.51234e+08
1.71867e+08
2.00548e+08
2.2257e+08
2.52845e+08
2.69938e+08
2.66129e+08
2.49418e+08
1.95012e+08
1.33006e+08
9.34385e+07
6.60428e+07
4.4262e+07
2.79158e+07
2.05254e+07
1.7446e+07
1.56097e+07
1.51503e+07
1.05556e+07
2.41866e+06
1.62123e+08
1.89526e+08
2.2186e+08
2.21114e+08
2.71719e+08
3.10425e+08
3.25823e+08
3.2003e+08
2.40672e+08
8.54953e+07
6.52053e+07
5.07167e+07
3.68345e+07
2.46939e+07
1.90092e+07
1.65483e+07
1.52036e+07
1.5019e+07
9.54657e+06
1.76655e+06
1.72484e+08
2.08737e+08
2.50627e+08
2.66983e+08
6.72565e+07
4.17402e+07
4.03489e+07
3.5552e+07
2.7368e+07
1.82486e+07
1.42604e+07
1.28997e+07
1.3214e+07
1.43951e+07
8.5358e+06
1.25377e+06
1.72176e+08
2.17009e+08
2.69071e+08
3.06464e+08
3.31723e+07
3.07711e+07
3.04339e+07
2.74645e+07
2.0929e+07
1.48304e+07
1.27847e+07
1.23361e+07
1.37044e+07
1.45093e+07
7.93905e+06
879654
1.61795e+08
2.0893e+08
2.65954e+08
3.25343e+08
2.73993e+07
2.30703e+07
2.23594e+07
2.00738e+07
1.60565e+07
1.31477e+07
1.24559e+07
1.30538e+07
1.57852e+07
1.42662e+07
6.13609e+06
353165
1.50024e+08
1.96385e+08
2.49773e+08
3.20261e+08
2.00308e+07
1.65371e+07
1.62656e+07
1.54416e+07
1.41491e+07
1.36351e+07
1.41127e+07
1.70014e+07
1.92222e+07
1.15305e+07
2.39442e+06
133113
1.34262e+08
1.71592e+08
1.96283e+08
2.42143e+08
6.71727e+07
3.26661e+07
2.6871e+07
1.93989e+07
9.56751e+06
1.01009e+07
1.32354e+07
1.50174e+07
1.56642e+07
1.6745e+07
1.96288e+07
2.23126e+07
1.4917e+07
5.11255e+06
218171
122510
1.10153e+08
1.30063e+08
1.34104e+08
8.65173e+07
4.17894e+07
3.0606e+07
2.2791e+07
1.61983e+07
9.94483e+06
8.25395e+06
1.14213e+07
1.63259e+07
1.95866e+07
2.19208e+07
2.21164e+07
1.50539e+07
6.21036e+06
347534
122562
122500
8.27363e+07
9.20834e+07
9.42027e+07
6.57051e+07
4.04064e+07
3.03186e+07
2.20858e+07
1.60323e+07
1.31284e+07
1.14002e+07
1.42325e+07
1.92704e+07
1.97178e+07
1.69019e+07
1.17497e+07
4.81265e+06
332742
122600
122500
122500
5.71466e+07
6.26986e+07
6.65688e+07
5.10175e+07
3.55893e+07
2.73605e+07
1.98394e+07
1.53189e+07
1.50424e+07
1.64341e+07
1.93754e+07
1.90188e+07
1.3559e+07
7.07841e+06
2.17625e+06
200288
122553
122500
122500
122500
3.52781e+07
3.95826e+07
4.46161e+07
3.704e+07
2.73747e+07
2.08284e+07
1.59195e+07
1.4137e+07
1.5769e+07
1.97194e+07
1.97171e+07
1.35321e+07
4.16123e+06
442043
130717
122507
122500
122500
122500
122500
2.16328e+07
2.3243e+07
2.81111e+07
2.4831e+07
1.8254e+07
1.47796e+07
1.31108e+07
1.36498e+07
1.68645e+07
2.19794e+07
1.67887e+07
6.96621e+06
426354
122745
122500
122500
122500
122500
122500
122500
1.77287e+07
1.70278e+07
2.06063e+07
1.90851e+07
1.42546e+07
1.27499e+07
1.24424e+07
1.41459e+07
1.96941e+07
2.20844e+07
1.16543e+07
2.12788e+06
130270
122500
122500
122500
122500
122500
122500
122500
1.63799e+07
1.49501e+07
1.75004e+07
1.66042e+07
1.28998e+07
1.23309e+07
1.30635e+07
1.70226e+07
2.23462e+07
1.50521e+07
4.78074e+06
199032
122507
122500
122500
122500
122500
122500
122500
122500
1.76687e+07
1.47945e+07
1.56347e+07
1.52333e+07
1.32171e+07
1.37152e+07
1.58005e+07
1.92826e+07
1.49926e+07
6.24186e+06
334637
122553
122500
122500
122500
122500
122500
122500
122500
122500
1.78523e+07
1.61835e+07
1.51556e+07
1.5035e+07
1.44295e+07
1.45707e+07
1.43544e+07
1.16309e+07
5.18845e+06
353901
122604
122500
122500
122500
122500
122500
122500
122500
122500
122500
1.0062e+07
1.13556e+07
1.05982e+07
9.59496e+06
8.59934e+06
8.02618e+06
6.24159e+06
2.46231e+06
222929
122566
122500
122500
122500
122500
122500
122500
122500
122500
122500
122500
1.44673e+06
2.56349e+06
2.45069e+06
1.795e+06
1.28378e+06
912328
366821
133972
122511
122500
122500
122500
122500
122500
122500
122500
122500
122500
122500
122500
1.03867e+08
1.23794e+08
1.46681e+08
1.57542e+08
1.67454e+08
1.6586e+08
1.54791e+08
1.41403e+08
1.24065e+08
9.93233e+07
7.2805e+07
4.903e+07
2.97433e+07
1.87633e+07
1.5788e+07
1.51015e+07
1.70039e+07
1.71258e+07
9.32783e+06
1.14821e+06
1.23675e+08
1.40885e+08
1.67606e+08
1.85243e+08
2.03617e+08
2.09465e+08
2.00385e+08
1.86383e+08
1.61159e+08
1.19405e+08
8.14575e+07
5.35995e+07
3.29624e+07
1.95265e+07
1.49391e+07
1.34211e+07
1.38393e+07
1.56509e+07
1.05288e+07
2.12299e+06
1.46554e+08
1.67552e+08
1.96489e+08
2.17958e+08
2.46778e+08
2.62246e+08
2.56512e+08
2.39011e+08
1.87467e+08
1.26091e+08
8.51279e+07
5.74856e+07
3.71221e+07
2.32793e+07
1.77325e+07
1.54022e+07
1.43239e+07
1.45189e+07
9.78307e+06
2.00971e+06
1.57269e+08
1.84843e+08
2.17161e+08
2.16453e+08
2.65191e+08
3.01574e+08
3.13764e+08