/*--------------------------------*- C++ -*----------------------------------*\
  =========                 |
  \\      /  F ield         | OpenFOAM: The Open Source CFD Toolbox
   \\    /   O peration     | Website:  https://openfoam.org
    \\  /    A nd           | Version:  9
     \\/     M anipulation  |
\*---------------------------------------------------------------------------*/
FoamFile
{
    format      ascii;
    class       surfaceScalarField;
    location    "0.001";
    object      phi;
}
// * * * * * * * * * * * * * * * * * * * * * * * * * * * * * * * * * * * * * //

dimensions      [0 3 -1 0 0 0 0];

internalField   nonuniform List<scalar> 
28500
(
-427.671
-427.436
-32.1837
-310.182
-422.079
-40.977
-202.149
-435.042
-47.2003
-87.7745
-433.307
-57.5458
21.4712
-441.678
-59.1554
131.528
-437.068
-69.7143
248.814
-441.053
-70.4164
357.981
-436.184
-73.3182
469.081
-438.596
-75.4527
584.388
-426.545
-74.9764
698.21
-401.241
-73.6461
799.918
-376.816
-69.6261
888.444
-357.544
-63.6141
992.626
-346.878
-57.7741
1100.69
-338.097
-50.0249
1122.08
-302.096
-40.2869
1083.07
-284.089
-38.1516
889.12
-240.913
-34.9135
288.459
-110.054
-19.7204
-11.0404
-1.68617
-422.184
-309.798
-41.0846
-310.426
-309.941
-53.6073
-202.219
-323.977
-65.5013
-88.5581
-325.912
-80.7943
20.659
-348.502
-81.8222
131.363
-354.031
-92.5499
249.113
-357.187
-95.586
360.418
-351.464
-100.43
474.054
-343.579
-102.148
593.377
-306.478
-100.132
704.798
-260.322
-94.6698
802.437
-222.769
-86.1456
885.784
-195.526
-78.4658
977.728
-183.011
-72.4979
1114.16
-175.664
-66.3675
1178.47
-146.384
-52.0577
1178.26
-132.592
-46.6833
990.381
-115.911
-41.9557
397.368
-68.2688
-24.852
-10.0587
-4.07256
-435.021
-201.625
-47.3983
-324.565
-201.187
-65.608
-220.208
-218.821
-80.388
-108.16
-60.3642
-95.7288
-60.5295
-61.5744
-60.9873
13.5176
-63.3148
-100.009
-69.1084
-65.3786
-70.879
137.423
-71.5524
-107.798
-70.9052
-73.2968
-72.6755
258.51
-72.5279
-114.298
-69.3122
-74.4441
-71.0698
376.197
-68.1927
-120.746
-68.7844
-70.5749
-71.116
499.296
-60.3845
-120.46
-60.2125
-61.9668
-61.6527
624.008
-160.209
-115.778
728.286
-104.117
-106.227
818.938
-67.5706
-93.8082
897.847
-44.8428
-81.526
981.75
-34.2098
-73.1996
1099.49
-23.0078
-65.8911
1164.11
-3.13131
-53.8254
1165.44
3.56839
-48.6386
985.967
14.0935
-44.5767
383.837
17.2866
-26.6804
2.75897
-4.19475
-432.995
-87.4106
-57.9196
-325.773
-87.7764
-80.9976
-60.5105
-107.115
-95.3302
-60.34
-62.0666
-60.7941
-46.5664
-46.1891
-29.0801
-15.9497
-28.0403
32.7947
-14.3339
-13.8865
-13.9084
-14.2754
-1.20079
18.2398
-29.791
-16.103
-16.2262
-16.3242
-16.0339
-35.1027
49.7166
-31.966
-16.3682
-16.2445
-16.3699
-16.2424
-66.246
79.3757
-33.1185
-15.3482
-15.154
-15.3251
-15.1421
-97.1555
112.988
-52.3705
-33.5153
683.377
65.4329
-121.235
-140.139
-149.532
-140.033
-149.424
769.654
92.0365
-125.544
842.325
106.645
-121.235
904.892
115.32
-114.747
978.411
121.371
-110.493
1088.07
127.421
-103.99
1132.46
125.008
-86.9453
1119.24
119.776
-82.1417
898.571
107.172
-67.344
294.069
59.4933
-32.305
4.71634
-2.93141
-441.133
21.3483
-59.7831
-347.447
20.547
-82.2392
-63.1147
13.2847
-99.3495
-69.0561
-65.3393
-70.5689
-15.9477
-27.9787
33.8914
-14.7736
-14.3297
-14.5534
-14.5603
-2.79593
36.5263
7.86034
-7.58652
676.824
304.171
-114.533
-159.92
-164.508
-160.154
-166.09
739.994
301.716
-115.117
813.584
291.296
-114.944
883.459
274.29
-114.665
969.241
265.13
-113.625
1084.83
256.185
-102.885
1111.16
237.727
-82.2865
1059.93
226.413
-77.6888
796.347
182.613
-61.849
208.065
76.9318
-28.0127
2.69017
-1.50395
-436.63
131.218
-69.8873
-353.25
131.051
-92.957
-71.4852
137.069
-108.399
-70.8214
-73.3219
-72.7124
-1.04202
18.0395
-30.2104
-16.103
-16.2149
-16.328
-16.0211
-16.9665
42.709
19.3978
-6.37371
723.436
448.176
-97.2254
-175.201
-179.978
-178.906
-185.017
753.165
438.891
-101.163
815.657
414.653
-106.901
896.979
389.439
-108.637
1005.02
383.08
-105.177
1088.54
361.171
-89.6868
1093.78
339.424
-78.5629
1020.18
323.452
-76.2907
724.403
243.775
-62.3103
128.345
82.6382
-26.8347
0.838562
-0.776785
-440.538
248.574
-70.6475
-356.438
248.796
-95.9204
-72.4377
258.312
-114.661
-69.1059
-74.432
-70.9647
-34.9485
49.5904
-32.2978
-16.3474
-16.2267
-16.365
-16.2189
-25.5793
46.4288
27.4322
-5.42969
783.99
567.905
-95.8065
-191.062
-195.993
-197.368
-203.871
821.922
559.223
-100.719
891.896
541.544
-101.248
965.733
535.646
-97.1418
1034.5
517.16
-89.7069
1050.85
467.712
-80.5641
1030.94
449.421
-78.5347
927.631
418.934
-78.7889
545.297
270.012
-61.1008
37.2359
35.0419
-18.15
0.0275737
-0.111839
-436.501
357.54
-73.1378
-351.833
359.694
-100.151
-67.9744
374.857
-120.424
-68.4381
-70.4101
-70.8233
-66.1539
79.1997
-33.2433
-15.1814
-15.0431
-15.2104
-14.9583
-32.3884
50.8709
34.3544
-4.58284
926.28
689.432
-97.2527
-209.936
-229.865
-216.307
-232.416
933.157
676.879
-87.6976
945.351
671.457
-84.7786
966.945
649.086
-83.0647
979.371
609.258
-80.2298
960.903
576.972
-81.8194
915.848
551.959
-86.59
758.426
444.96
-82.8669
194.248
143.074
-46.3049
0.862128
0.900315
-2.69715
1.08359e-05
-0.00063593
-439.003
469.048
-75.1839
-342.607
474.254
-102.128
-60.1971
500.185
-121.377
-59.653
-61.7612
-61.396
-95.3615
-52.591
113.641
-33.288
1.44286
8.94008
38.505
-11.3092
-16.9025
19.3093
42.9856
-6.00534
-25.3772
27.2015
46.6743
-5.19384
-32.231
34.1134
50.9632
-4.23897
-35.0269
-42.612
230.388
231.361
-19.7632
-41.8166
-32.3227
-39.8393
-45.7814
-45.6222
-47.9168
936.935
745.616
-68.1177
-239.385
-224.892
-244.235
-230.918
926.893
691.759
-69.2615
910.165
695.978
-78.6946
887.924
697.395
-85.0668
859.861
682.524
-88.8138
823.042
646.818
-93.3638
739.213
560.257
-92.987
295.244
233.648
-62.253
5.87438
5.22485
-9.90816
9.84379e-05
0.000138813
-0.0100916
7.56586e-11
-3.07278e-08
-425.835
584.714
-75.0761
-304.939
593.993
-100.588
-157.331
624.758
-117.825
66.3544
682.245
-127.73
-140.485
-149.722
-140.13
-149.796
301.12
680.873
-118.954
-161.413
-165.698
-161.517
-167.803
445.994
728.853
-96.08
-176.696
-181.382
-180.748
-186.58
569.608
786.903
-90.0523
-192.107
-197.029
-198.238
-204.927
705.631
924.015
-89.8975
-211.031
-231.637
-217.674
-234.576
750.306
937.566
-63.1523
-240.632
-226.857
-246.298
-232.582
825.091
829.166
-49.7777
813.372
692.913
-73.9956
796.06
694.325
-91.432
732.29
708.699
-100.077
683.267
678.194
-100.85
603.586
593.29
-94.7961
266.044
234.656
-63.5198
8.79695
7.81449
-13.0245
0.000407352
0.000408103
-0.0289372
8.16712e-10
5.61471e-10
-2.04068e-07
0
-1.77636e-13
-400.236
698.512
-74.4993
-258.755
705.192
-95.5448
-102.058
728.746
-108.827
92.7919
768.148
-131.108
299.107
742.502
-119.245
437.958
755.992
-100.345
561.333
821.562
-95.9574
690.164
931.308
-83.7571
708.52
926.274
-67.7987
705.516
820.446
-72.2418
630.373
634.251
-98.6131
561.615
569.289
-109.482
493.519
565.62
-101.556
377.518
410.169
-82.782
150.431
127.294
-49.7611
4.1455
3.62738
-8.79121
0.00035492
0.000299883
-0.0250559
1.01375e-09
1.04478e-09
-3.14616e-07
0
0
-3.90799e-13
0
0
-375.887
799.996
-70.7584
-221.496
802.502
-87.8386
-66.3702
819.054
-96.0999
106.739
841.037
-125.03
289.682
814.883
-118.111
414.99
816.262
-105.924
542.883
890.949
-99.0188
680.711
945.574
-82.907
710.252
910.494
-78.5612
708.128
800.346
-88.8244
587.463
572.838
-105.196
320.16
319.139
-91.6778
141.661
115.035
-56.316
29.4037
20.7848
-23.2886
0.467211
0.340343
-2.05546
7.83518e-05
4.29067e-05
-0.00648554
3.63308e-10
5.7468e-10
-1.43785e-07
0
0
-3.48166e-13
0
0
0
0
0
-356.726
888.37
-64.7235
-194.608
885.698
-80.8548
-44.1522
897.639
-83.3966
115.257
903.859
-117.393
273.673
884.099
-117.038
389.838
896.37
-108.07
535.851
964.642
-96.9513
654.987
968.099
-83.5313
705.288
889.779
-85.1487
717.709
738.362
-95.8111
583.388
505.363
-93.7663
124.575
151.438
-51.1464
1.23897
1.31471
-4.56166
0.00544305
0.00252002
-0.101424
2.73249e-06
1.1548e-06
-0.000312042
2.84928e-11
8.28635e-11
-1.40897e-08
0
0
-1.27898e-13
0
0
0
0
0
0
0
0
-346.144
992.619
-58.8086
-182.325
977.692
-74.198
-33.659
981.438
-74.9471
121.351
977.744
-112.913
264.947
969.252
-115.648
383.005
1003.74
-105.417
518.553
1034.6
-90.9607
612.474
980.887
-82.1279
686.243
862.65
-88.4796
683.494
689.483
-95.0194
427.32
388.403
-74.6932
23.8426
33.2659
-20.3924
0.0035092
0.00761305
-0.0906607
1.24117e-08
1.1552e-08
-3.08801e-06
4.54747e-13
3.26139e-12
-3.01306e-10
0
0
-1.42109e-14
0
0
0
0
0
0
0
0
0
0
0
-337.398
1100.58
-51.1145
-175.202
1114.21
-68.3406
-22.7102
1099.34
-67.9086
127.314
1087.89
-106.293
256.166
1084.51
-104.353
362.086
1088.74
-91.1063
469.238
1051.69
-83.2247
578.985
962.316
-83.8605
649.516
826.072
-91.7359
598.907
610.854
-88.8123
134.436
157.097
-44.9302
0.406062
0.545325
-1.83474
1.41553e-06
3.50303e-06
-0.000295938
4.07141e-12
5.61329e-13
-3.14451e-10
0
0
0
0
0
0
0
0
0
0
0
0
0
0
0
0
0
-301.571
1121.78
-41.3187
-146.132
1178.07
-53.7003
-3.06743
1163.69
-55.8751
124.869
1132.31
-89.0162
237.854
1111.21
-83.886
340.585
1094.19
-81.0595
450.889
1032.02
-81.4298
553.461
917.14
-87.6256
562.558
742.892
-90.2927
240.699
272.338
-59.3054
4.02113
4.57843
-7.95542
5.29266e-05
9.32383e-05
-0.00597788
9.91633e-11
3.53282e-11
-1.35633e-08
0
0
-7.10543e-15
0
0
0
0
0
0
0
0
0
0
0
0
0
0
0
0
0
-283.828
1082.69
-39.2291
-132.571
1177.63
-48.2265
3.50765
1164.99
-50.4412
119.708
1119.03
-83.9598
226.672
1060.28
-79.3348
324.422
1020.71
-78.7844
419.984
928.525
-81.0025
446.443
760.941
-82.6871
237.483
300.035
-59.8079
8.36494
9.40702
-12.0776
0.000352826
0.000413374
-0.02316
6.80743e-10
4.33786e-10
-1.36181e-07
0
0
-1.13687e-13
0
0
0
0
0
0
0
0
0
0
0
0
0
0
0
0
0
0
0
0
-240.615
888.181
-35.9356
-115.988
989.429
-43.3587
13.9111
985.292
-46.164
107.085
899.028
-68.7441
182.951
797.626
-63.3914
244.469
725.538
-64.2385
270.903
547.41
-62.0603
145.058
196.96
-45.5559
5.51265
6.19084
-9.40341
0.000464929
0.000463913
-0.0270684
1.20723e-09
1.17991e-09
-2.99203e-07
0
0
-3.19744e-13
0
0
0
0
0
0
0
0
0
0
0
0
0
0
0
0
0
0
0
0
0
0
0
-109.862
287.022
-20.2462
-68.1969
395.983
-25.6193
16.9506
383.123
-27.5242
59.4047
294.716
-33.0757
77.1784
209.218
-28.8519
83.0658
129.157
-27.5518
35.5245
37.7179
-18.2456
0.940701
0.899932
-2.63055
0.000153911
0.000109338
-0.00961296
6.33463e-10
9.29738e-10
-1.95117e-07
0
0
-3.62377e-13
0
0
0
0
0
0
0
0
0
0
0
0
0
0
0
0
0
0
0
0
0
0
0
0
0
0
-10.9311
-1.7135
-9.96166
-4.17063
2.65436
-4.30919
4.73311
-3.01858
2.72216
-1.56809
0.852607
-0.802051
0.0284974
-0.112538
1.16897e-05
-0.000625272
8.31761e-11
-2.98122e-08
0
-1.7053e-13
0
0
0
0
0
0
0
0
0
0
0
0
0
0
0
0
0
0
0
-429.871
-429.7
-34.0092
-312.672
-425.525
-41.4239
-205.263
-439.439
-46.0333
-91.4058
-438.439
-53.6736
18.1988
-447.615
-55.6311
128.142
-446.581
-63.0291
243.923
-450.729
-64.2003
352.708
-448.657
-67.8845
464.697
-452.136
-69.2126
581.26
-435.718
-69.4961
696.739
-406.704
-69.5141
800.915
-380.208
-66.7426
891.359
-361.516
-60.7842
993.995
-350.746
-54.3564
1106.08
-342.606
-47.3555
1134.53
-309.05
-37.4147
1102.19
-288.3
-35.8019
920.621
-250.837
-38.5028
328.404
-121.055
-29.3659
-15.1417
-4.27359
-425.52
-312.388
-41.529
-314.705
-314.348
-50.8803
-208.746
-329.966
-57.6833
-95.7811
-336.057
-67.2306
15.0197
-360.442
-70.1314
126.309
-369.617
-77.2041
242.509
-372.124
-80.0431
353.988
-371.771
-84.7639
470.1
-361.002
-84.3711
589.71
-319.961
-82.2254
701.645
-271.938
-80.3286
802.283
-234.115
-77.6633
888.559
-207.209
-71.6319
979.667
-193.6
-64.643
1114.01
-185.125
-59.6839
1191.53
-155.233
-48.2201
1193.04
-137.22
-42.168
1026.08
-122.59
-41.6165
446.353
-73.9734
-33.9382
-13.2018
-8.97997
-439.385
-204.724
-46.2479
-330.722
-207.367
-57.8679
-231.207
-227.71
-64.1059
-119.801
-63.9397
-73.3824
-62.7967
-64.9761
-63.174
5.78526
-68.9264
-79.6252
-74.6551
-71.0157
-76.5803
130.944
-76.7541
-86.0925
-76.3643
-78.5582
-78.5132
251.957
-77.7512
-91.0267
-74.9888
-79.7594
-76.9959
370.338
-73.5778
-96.1593
-75.6701
-75.5173
-77.6401
500.345
-65.738
-92.2645
-64.6127
-67.98
-65.7009
626.061
-169.928
-86.0835
729.662
-111.371
-81.0454
820.356
-74.7609
-76.4632
899.916
-51.3359
-70.1289
982.744
-38.9961
-63.657
1098.63
-27.259
-59.5604
1174.81
-6.32937
-51.5075
1177.76
1.62842
-46.1191
1019.06
10.2535
-45.5231
435.028
15.6502
-36.6666
3.16408
-9.51681
-438.481
-90.8813
-54.0789
-336.371
-94.36
-67.734
-65.0393
-115.792
-74.0363
-63.1611
-66.1585
-63.4781
25.7654
-51.1656
-49.2793
-22.2119
26.065
-18.5598
-23.537
38.4782
-16.2029
-16.2012
-16.0347
-16.3888
27.6545
0.963238
16.0801
-25.2272
-17.495
-17.602
-17.3316
-17.7332
29.5401
-33.2244
47.909
-27.0106
-17.7947
-17.653
-17.6786
-17.7329
30.5313
-64.3463
76.8334
-27.6581
-16.816
-16.6727
-16.767
-16.8106
-96.5961
30.0034
113.443
-57.949
-27.4728
691.665
57.7054
-88.1433
-141.908
-151.91
-142.956
-151.918
776.127
87.7408
-89.1094
847.982
103.116
-86.4415
910.331
112.835
-79.8672
981.17
120.593
-73.1385
1089.33
127.806
-69.0031
1139.96
123.72
-61.1537
1138.97
117.369
-57.7907
937.123
104.211
-56.7813
342.552
59.8298
-41.0117
6.58162
-7.36941
-447.436
18.0959
-55.7482
-358.893
14.9701
-70.0597
-67.8954
5.5268
-79.4523
-73.9796
-69.5822
-75.6156
24.8199
-18.7838
-22.6426
35.3302
-15.9804
-14.9102
-15.8686
-14.9266
6.72754
-0.879173
37.1238
6.93908
-6.17073
695.369
283.993
-82.9075
-163.581
-171.574
-165.607
-173.798
751.845
282.815
-82.1324
822.358
276.415
-82.7573
891.605
263.557
-80.3795
972.604
257.031
-74.834
1087.93
250.427
-69.4173
1122.69
231.355
-57.5941
1084.19
220.847
-54.6428
839.9
182.245
-57.1846
261.345
82.3176
-41.1787
4.61271
-5.04722
-446.217
127.869
-63.0498
-368.947
126.105
-77.2029
-76.733
130.814
-86.0793
-76.4157
-78.5412
-78.6038
27.8552
1.48827
15.8966
-25.3758
-17.5298
-17.634
-17.3713
-17.7529
5.15228
-15.261
45.3686
17.5689
-5.23505
763.759
426.815
-74.4577
-186.678
-192.711
-189.652
-196.168
780.62
420.771
-76.34
829.266
404.064
-79.8997
901.86
380.539
-76.5702
1002.21
372.118
-69.5353
1103.87
359.81
-62.6978
1114.76
338.309
-52.6035
1056.88
322.955
-52.4747
790.659
254.966
-60.8003
189.68
100.688
-42.8446
2.26782
-3.344
-450.748
243.881
-64.5357
-372.17
242.526
-80.3708
-77.7484
252.05
-91.1589
-74.9165
-79.8178
-77.0348
29.7632
-33.2282
47.9361
-27.1288
-17.8212
-17.6582
-17.6863
-17.7269
4.68367
-23.5573
49.7978
25.3161
-4.92719
826.516
555.008
-79.6626
-204.596
-210.052
-207.184
-212.185
846.198
547.814
-82.2941
904.361
531.427
-79.8202
973.053
522.609
-68.9379
1050.6
518.39
-60.0094
1077.59
473.18
-52.8443
1069.37
452.038
-49.7336
979.24
425.099
-58.3739
654.884
299.141
-68.268
74.8657
64.7704
-36.2732
0.156456
-0.81297
-448.576
352.597
-67.6918
-371.62
353.861
-84.4658
-73.4282
369.822
-95.9076
-75.3879
-75.3957
-77.3751
30.6117
-64.4049
76.6749
-27.6237
-16.7292
-16.6089
-16.6067
-16.6973
4.4459
-30.7537
54.3573
33.0387
-5.24308
944.975
693.419
-86.7924
-219.678
-232.219
-221.341
-232.866
960.546
690.19
-78.0824
976.159
681.519
-66.8276
998.186
664.265
-57.1272
1015.44
624.181
-49.7402
1003.97
585.573
-49.7612
959.543
558.481
-61.9224
827.706
469.474
-80.1497
307.034
210.675
-67.3544
4.31974
4.35492
-11.9526
0.000189058
-0.0140842
-452.301
464.628
-69.1122
-361.224
470.059
-84.4988
-65.7041
500.52
-93.6643
-63.8948
-67.4423
-65.9887
-94.9385
30.1816
-57.998
113.855
-28.0151
6.21186
2.55187
8.2453
39.0987
-9.47477
5.50859
-15.5927
17.8294
45.2961
-5.21726
4.609
-23.6206
25.3495
49.8277
-4.66117
4.22557
-30.7276
32.8079
54.6239
-4.77215
-33.7176
-45.8515
22.9585
233.092
234.635
-23.4313
-40.6073
-34.0341
-40.6403
-48.909
-45.747
-48.722
975.17
798.101
-67.0863
-244.643
-235.513
-244.206
-237.39
961.301
732.791
-56.1436
951.14
726.619
-55.8104
935.637
718.796
-54.0443
911.81
696.406
-55.9885
872.322
665.182
-70.4776
795.795
583.16
-89.7347
441.059
334.168
-81.687
23.9672
21.241
-29.8274
0.00237717
0.00285442
-0.187146
1.76922e-09
-3.62584e-06
-435.779
581.291
-69.9248
-320
589.691
-83.6833
-168.893
626.261
-89.3822
59.3756
690.981
-95.4736
-141.931
-151.234
-142.591
-151.846
285.85
695.396
-86.5367
-163.99
-171.474
-165.29
-173.065
427.598
763.113
-71.5531
-186.881
-192.9
-189.193
-195.897
555.713
827.079
-72.8897
-204.671
-210.873
-207.288
-213.307
704.625
945.45
-75.4519
-222.352
-236.386
-224.441
-237.452
794.32
977.557
-60.2733
-247.238
-237.625
-248.903
-239.776
877.293
881.004
-43.7785
868.356
747.113
-53.0381
852.407
730.27
-64.0654
802.608
738.018
-71.2481
746.484
708.866
-83.7061
678.737
638.691
-94.9843
399.742
356.058
-85.0945
34.177
29.7693
-36.7484
0.0100893
0.00970132
-0.50814
2.30771e-08
1.51189e-08
-2.43793e-05
1.42109e-14
-2.56293e-11
-406.686
696.821
-70.5551
-272.014
701.708
-82.7462
-111.133
729.746
-84.9171
88.1627
775.812
-95.2367
283.526
752.282
-85.428
421.586
780.652
-73.8432
548.821
845.925
-74.4562
696.16
960.268
-67.2929
737.979
960.077
-57.5281
749.315
866.449
-53.504
694.422
689.865
-71.4147
654.241
633.726
-92.606
586.83
639.622
-96.1453
479.798
545.534
-92.8999
249.388
234.061
-75.8913
19.9499
17.0174
-29.1678
0.00864968
0.00791447
-0.466285
2.92555e-08
2.9971e-08
-3.91726e-05
7.10543e-14
5.68434e-14
-5.72626e-11
0
0
-380.179
800.991
-68.0992
-234.239
802.403
-80.3019
-74.897
820.474
-80.4316
102.889
848.043
-91.2389
276.33
822.963
-86.5813
404.691
829.5
-77.7128
532.537
904.167
-73.6192
684.738
975.637
-61.8279
730.682
948.664
-58.3171
731.951
846.558
-65.5183
632.07
648.841
-92.7179
426.471
426.654
-101.365
242.042
227.364
-80.4964
80.9243
62.7723
-48.7063
3.06003
2.43654
-11.3671
0.0017776
0.00125629
-0.144309
1.07197e-08
1.74199e-08
-1.94291e-05
4.9738e-14
7.10543e-14
-5.30918e-11
0
0
0
0
0
-361.474
891.419
-62.074
-207.295
888.628
-73.9977
-51.5666
900.135
-73.8501
112.423
910.685
-83.5872
263.18
892.204
-84.2711
380.843
902.144
-75.9422
523.383
973.053
-66.9349
666.006
997.419
-56.4433
720.475
933.107
-55.9377
737.56
797.864
-70.4894
635.077
581.283
-91.4771
221.286
236.418
-74.8467
9.14852
8.92755
-19.9207
0.0667914
0.0464095
-1.11033
5.8473e-05
2.18913e-05
-0.00978215
7.9897e-10
2.22183e-09
-2.17671e-06
7.10543e-15
2.84217e-14
-2.0222e-11
0
0
0
0
0
0
0
0
-350.652
994.062
-55.48
-193.54
979.765
-66.673
-39.1722
982.986
-66.7611
120.064
981.601
-76.291
256.536
972.931
-78.4499
372.148
1001.88
-70.6051
519.275
1050.71
-60.9562
625.297
1015.01
-51.2827
696.779
909.767
-57.1002
707.389
743.328
-80.6044
535.694
472.838
-86.2114
58.722
76.1942
-42.4709
0.039055
0.0553804
-0.814512
1.89015e-07
1.97806e-07
-0.000158905
8.63309e-12
4.66827e-11
-2.98404e-08
0
7.10543e-15
-2.20979e-12
0
0
0
0
0
0
0
0
0
0
0
-342.592
1106.07
-48.4722
-185.017
1114.09
-61.6096
-27.4135
1098.75
-62.291
127.278
1089.69
-71.9446
250.132
1088.02
-72.3136
360.244
1104.29
-64.6249
473.754
1078.04
-55.0266
586.026
1003.27
-51.8791
665.174
870.893
-70.3953
637.565
675.462
-90.6984
226.314
242.636
-69.8217
2.16508
2.72472
-9.23924
1.75657e-05
4.76214e-05
-0.0064567
3.93641e-11
7.14806e-12
-1.64852e-08
0
0
-6.39488e-14
0
0
0
0
0
0
0
0
0
0
0
0
0
0
-309.208
1134.45
-38.5177
-155.429
1191.48
-49.8613
-6.74787
1174.94
-53.6444
123.163
1140.38
-63.254
231.188
1123.33
-59.2665
338.621
1115.56
-54.859
452.543
1069.78
-52.2171
558.964
958.875
-63.6203
583.002
794.65
-88.2277
349.77
392.745
-81.2059
15.8431
18.6007
-26.0984
0.00105594
0.00152127
-0.108859
1.85459e-09
6.62325e-10
-1.31742e-06
0
0
-1.3145e-12
0
0
0
0
0
0
0
0
0
0
0
0
0
0
0
0
0
-288.474
1102.03
-37.0099
-137.562
1192.98
-43.7218
1.13787
1177.89
-47.8709
116.869
1139.98
-59.5606
220.754
1085.69
-56.2184
323.274
1058.18
-54.7603
425.666
979.501
-60.7157
469.606
827.17
-80.6721
331.138
435.864
-79.8441
28.4152
32.6664
-34.2435
0.00689623
0.00757576
-0.377291
1.50067e-08
9.18286e-09
-1.29748e-05
2.84217e-14
7.10543e-15
-1.301e-11
0
0
0
0
0
0
0
0
0
0
0
0
0
0
0
0
0
0
0
0
-250.924
920.236
-39.9035
-123.007
1026.05
-43.196
9.67742
1019.41
-47.1859
103.841
938.964
-58.4193
182.603
842.664
-58.7815
255.695
792.917
-62.8095
299.757
655.654
-69.5812
209.679
305.421
-66.9238
20.5136
23.1769
-28.4267
0.00870918
0.0090444
-0.429591
2.64721e-08
2.56388e-08
-2.76152e-05
6.39488e-14
4.26326e-14
-3.57758e-11
0
0
0
0
0
0
0
0
0
0
0
0
0
0
0
0
0
0
0
0
0
0
0
-121.197
327.943
-30.4844
-74.1572
446.331
-35.2583
15.1659
435.645
-38.0003
59.7168
344.439
-42.1823
82.8264
263.906
-42.3259
101.484
191.652
-43.9253
64.8241
75.1556
-36.5843
4.26112
4.2431
-11.5711
0.00263333
0.00219203
-0.163825
1.36711e-08
2.0655e-08
-1.7981e-05
4.9738e-14
6.39488e-14
-4.0032e-11
0
0
0
0
0
0
0
0
0
0
0
0
0
0
0
0
0
0
0
0
0
0
0
0
0
0
-15.1455
-4.44273
-13.1899
-9.3508
3.03985
-9.90403
6.657
-7.65566
4.72496
-5.26995
2.31133
-3.45196
0.156054
-0.808557
0.000180499
-0.012828
1.6515e-09
-2.81397e-06
1.42109e-14
-1.8467e-11
0
0
0
0
0
0
0
0
0
0
0
0
0
0
0
0
0
0
0
-434.426
-434.238
-26.8379
-317.858
-431.795
-33.044
-209.924
-447.849
-35.7513
-95.4592
-450.204
-41.1268
14.9316
-461.069
-43.7165
125.47
-463.679
-48.312
240.684
-467.945
-49.019
349.225
-467.997
-50.7964
461.978
-470.652
-50.0462
579.538
-449.911
-48.2201
696.652
-418.573
-45.7987
804.647
-391.628
-41.4291
898.085
-372.126
-34.8012
998.265
-359.978
-29.169
1112.19
-352.717
-25.4717
1148.58
-321.885
-21.2727
1124.86
-296.998
-20.7012
960.305
-265.135
-22.5715
380.236
-137.57
-17.972
-21.6041
-3.30376
-431.955
-317.576
-33.0695
-322.721
-322.274
-41.1203
-216.025
-339.883
-44.3148
-102.363
-350.032
-51.1367
9.98723
-376.434
-54.5001
123.296
-388.891
-59.2081
239.969
-390.96
-60.9863
352.158
-393.113
-63.0851
470.368
-378.1
-61.6365
590.433
-332.757
-58.6609
702.883
-282.936
-54.4897
806.135
-245.733
-48.2895
895.92
-218.401
-39.8
985.86
-202.872
-32.2938
1114.71
-194.236
-28.8914
1206.74
-167.959
-25.1401
1210.62
-147.605
-22.8264
1070.16
-135.175
-23.239
513.805
-85.3621
-20.2425
-18.0102
-6.3242
-448.136
-209.757
-35.7671
-340.739
-215.397
-44.3167
-240.58
-238.687
-47.2769
-128.377
-67.0338
-54.5856
-64.7108
-68.1562
-65.3918
-1.00956
-73.2635
-59.4431
-78.8923
-74.5157
-80.2043
126.64
-80.8304
-64.7381
-80.8532
-82.2401
-82.5701
248.874
-82.0222
-68.1659
-79.3696
-83.3823
-81.0492
368.592
-77.3305
-70.7505
-79.7525
-78.8338
-81.3988
504.655
-69.9169
-67.9369
-67.8047
-70.2917
-68.0031
630.244
-175.942
-63.4402
733.29
-120.299
-57.9604
825.668
-88.2565
-51.9907
908.448
-67.4586
-43.7839
991.297
-55.9787
-35.7592
1102.5
-46.0692
-31.9462
1191.16
-23.9979
-28.4916
1197.37
-12.4933
-25.5649
1065.66
-3.4412
-25.2616
506.242
8.25784
-21.5038
2.4711
-6.66224
-450.753
-95.1875
-41.3407
-350.917
-101.581
-51.4333
-67.8706
-125.962
-55.3116
-64.5964
-68.3205
-65.1122
19.5186
-52.9704
-51.4982
-17.1375
20.8354
-20.775
-17.8781
40.7013
-17.4094
-17.5693
-17.2786
-17.6817
22.6565
2.99941
14.4589
-20.0385
-18.6258
-18.8148
-18.4745
-18.9318
24.3831
-31.9813
46.754
-21.4203
-19.0742
-18.9101
-18.9834
-18.9626
24.9525
-62.9155
75.3112
-21.6214
-17.9905
-17.899
-17.8714
-17.9757
-96.4804
24.043
114.796
-61.7218
-19.9698
692.35
49.7198
-69.9022
-143.434
-153.443
-143.963
-153.631
778.205
78.2348
-65.9734
856.963
89.4115
-59.938
926.656
96.5444
-50.2327
998.291
103.043
-40.1466
1099.95
110.562
-35.4482
1167.37
111.664
-32.8406
1168.48
108.084
-30.7662
1003.5
98.4757
-29.9967
418.031
60.2018
-23.1638
9.61748
-5.44193
-460.961
14.8852
-43.9032
-375.393
10.0778
-54.7505
-71.9094
-1.2007
-60.2115
-77.9679
-73.267
-79.654
20.3427
-21.092
-18.3535
37.857
-17.0897
-15.9195
-16.9931
-15.9705
5.72858
-1.03254
38.2182
6.45198
-4.72811
713.071
266.62
-56.0874
-167.413
-178.063
-170.347
-180.961
762.067
267.449
-56.4947
830.959
266.319
-55.3742
904.252
259.204
-48.9577
984.017
254.651
-39.804
1096.79
251.04
-35.1454
1145.71
232.123
-32.0497
1133.35
221.819
-30.0603
924.659
189.897
-30.1287
342.074
94.2379
-22.8051
8.95714
-4.00388
-463.285
125.346
-48.3876
-388.485
123.447
-59.1902
-80.7939
126.878
-64.7113
-80.9009
-82.2021
-82.633
22.796
3.40928
14.3591
-20.0908
-18.6549
-18.8223
-18.5038
-18.9405
4.38339
-13.8402
47.1473
16.1706
-3.93149
784.899
413.319
-43.8408
-193.827
-199.326
-195.972
-200.549
794.682
410.518
-45.2355
835.545
401.584
-44.6902
906.484
382.893
-39.4067
1003.24
374.114
-32.7355
1119.56
366.837
-30.7866
1146.34
340.932
-29.2198
1112.81
329.741
-28.1724
890.978
277.924
-30.1797
284.626
126.899
-22.1812
6.44669
-2.79032
-468.503
240.868
-49.2497
-391.62
240.267
-61.1966
-82.0641
249.072
-68.3303
-79.474
-83.4491
-81.1365
24.4307
-31.9993
46.7925
-21.4047
-19.0897
-18.9179
-18.9973
-18.9695
4.41549
-22.2719
51.4144
24.2037
-3.76218
835.419
550.711
-36.4209
-208.846
-213.421
-208.339
-212.972
850.006
543.994
-35.646
904.64
531.222
-34.8138
975.026
520.52
-30.6417
1057.67
521.505
-26.8986
1107.76
485.772
-26.856
1111.93
461.868
-26.3225
1051.99
441.639
-28.0719
783.273
339.173
-31.5705
147.181
112.277
-19.2012
0.852307
-0.896634
-467.082
349.397
-50.913
-392.022
352.438
-63.2313
-77.3347
369.794
-71.0956
-79.7506
-79.1115
-81.6851
24.9005
-63.1301
75.6509
-21.7341
-18.0811
-17.8973
-17.8865
-18.0094
5.03528
-30.106
55.0621
32.2617
-4.22942
940.548
698.666
-24.5052
-221.997
-232.355
-220.526
-229.959
965.103
697.042
-23.2429
986.119
687.072
-23.8698
1015.52
675.36
-23.8257
1042.66
644.262
-23.1128
1045.21
604.999
-23.8252
1016.7
579.643
-28.87
914.26
510.283
-35.2135
466.267
292.705
-31.3955
18.9058
18.2041
-8.98598
0.00342933
-0.0327417
-470.645
461.738
-50.166
-379.782
469.659
-61.7431
-70.2439
503.121
-67.7064
-68.142
-71.5575
-69.3885
-96.4035
25.1238
-61.6932
114.297
-20.987
6.1802
-0.954186
6.70747
37.9411
-5.43052
4.11309
-14.1864
16.4252
46.8001
-3.7052
4.01696
-22.378
24.2718
51.2899
-3.60553
4.42678
-29.9921
32.0393
55.2512
-3.76236
-42.4856
-35.3532
17.9726
232.874
236.212
-12.4374
-44.2954
-40.8182
-44.4774
-43.8285
-38.0999
-44.4511
988.073
824.256
-16.6062
-246.287
-239.938
-243.436
-237.21
980.271
766.354
-22.2542
974.295
757.628
-23.6587
966.974
750.789
-24.2201
955.52
727.009
-24.9676
928.769
696.843
-30.6651
868.294
626.939
-37.966
618.509
446.652
-36.5785
72.9634
62.5772
-18.0261
0.0499209
0.0515653
-0.356722
6.19025e-08
-2.33154e-05
-451.621
579.154
-48.3392
-335.819
589.798
-58.892
-180.786
629.732
-63.5973
47.7111
694.091
-67.797
-143.198
-153.266
-143.836
-153.48
265.283
706.883
-58.0645
-165.899
-176.406
-167.872
-179.38
410.978
782.701
-47.8536
-192.472
-198.453
-194.844
-200.125
547.103
837.649
-41.3657
-208.809
-213.747
-209.249
-214.063
701.8
954.876
-32.747
-224.288
-238.575
-223.096
-236.775
819.493
994.928
-20.3256
-248.774
-239.515
-249.465
-241.669
905.014
907.114
-16.598
899.156
793.475
-23.4052
886.766
774.406
-28.7671
854.152
780.264
-30.3261
812.613
757.524
-34.1908
757.754
691.515
-39.7117
562.18
498.998
-37.5752
97.8736
83.5901
-21.3652
0.202798
0.186484
-0.904393
6.15099e-07
3.72942e-07
-0.000152432
4.76064e-13
-1.97261e-10
-420.566
696.422
-45.8976
-285.792
702.69
-54.6679
-123.202
733.436
-58.1761
76.9228
780.625
-65.3555
266.604
757.81
-58.3237
407.684
793.024
-48.6748
541.996
854.883
-41.8863
698.485
974.043
-30.1935
760.307
981.221
-23.0366
788.459
892.733
-22.708
754.504
747.725
-32.7586
730.744
705.952
-39.9258
673.219
712.928
-39.4381
587.765
653.985
-38.2195
381.867
377.548
-33.8312
66.9621
56.4281
-17.9978
0.177659
0.168094
-0.86133
7.93788e-07
8.03822e-07
-0.000251644
2.40163e-12
1.76925e-12
-4.45539e-10
0
0
-393.433
804.734
-41.536
-248.125
806.34
-48.3886
-89.7709
826.131
-52.1412
89.0167
859.302
-60.2281
265.992
828.177
-57.1393
397.115
834.668
-48.1491
529.387
911.563
-40.7725
686.963
990.628
-29.3208
748.711
971.348
-23.9967
762.135
875.414
-28.7823
687.564
714.891
-41.5181
525.801
527.118
-45.9402
351.272
356.855
-36.1511
169.265
141.992
-23.9818
17.2179
13.6892
-9.09603
0.037635
0.0320994
-0.306001
2.98134e-07
5.05213e-07
-0.00013153
1.55609e-12
2.32347e-12
-4.25807e-10
0
0
0
0
0
-373.731
898.436
-34.8829
-220.409
896.437
-39.82
-68.5003
909.181
-43.933
96.4389
928.881
-50.7943
258.546
902.326
-50.5226
378.705
906.971
-42.4474
519.676
980.245
-34.7767
672.109
1016.46
-27.2627
741.348
962.904
-24.8827
768.956
842.448
-31.8057
693.266
655.308
-43.5061
332.512
332.593
-40.2197
38.7237
37.1937
-15.3921
0.655719
0.512851
-1.40827
0.00146699
0.000771256
-0.0272006
3.2079e-08
7.36115e-08
-1.65772e-05
3.55271e-13
1.11555e-12
-1.66523e-10
0
0
0
0
0
0
0
0
-361.4
998.524
-29.1809
-204.496
986.361
-32.1256
-56.8732
992.074
-35.8424
102.767
1000.5
-40.3352
253.582
983.366
-40.9528
371.552
1004.88
-35.0613
520.974
1060.66
-29.5457
639.436
1042.24
-24.8552
719.614
951.176
-26.0492
747.813
802.126
-37.571
631.979
567.392
-44.2684
122.553
150.144
-28.0041
0.342393
0.428882
-1.37484
4.05526e-06
3.25273e-06
-0.000684059
3.19005e-10
1.26259e-09
-2.54832e-07
2.13163e-14
1.35003e-13
-1.8467e-11
0
0
0
0
0
0
0
0
0
0
0
-354.01
1112.37
-25.6462
-195.589
1114.88
-28.7531
-46.7222
1102.91
-32.0291
110.522
1101.7
-35.5128
250.212
1097.87
-36.4225
365.423
1121.56
-32.8238
483.295
1108.05
-28.4585
600.678
1043.3
-24.9417
692.186
924.323
-32.764
684.999
747.885
-44.7236
351.46
360.58
-39.9747
10.5398
13.373
-10.045
0.000431823
0.00085725
-0.0235605
7.04915e-10
1.74225e-10
-1.75475e-07
0
0
-4.90274e-13
0
0
0
0
0
0
0
0
0
0
0
0
0
0
-322.975
1148.94
-21.8483
-169.052
1207.33
-25.6478
-24.4721
1191.78
-29.0981
111.618
1168.85
-33.3909
231.767
1147.32
-33.2843
339.617
1147.47
-30.3191
459.247
1111.9
-27.3982
576.451
1014.11
-30.4624
622.603
863.274
-41.9196
484.383
545.631
-43.4764
49.6633
59.3975
-20.7599
0.0219935
0.0266241
-0.299117
4.831e-08
1.91188e-08
-1.33351e-05
8.52651e-14
1.42109e-14
-1.46585e-11
0
0
0
0
0
0
0
0
0
0
0
0
0
0
0
0
0
-297.835
1125.32
-21.453
-148.429
1211.32
-23.6476
-12.9588
1198.13
-26.4999
107.866
1169.99
-31.4598
221.44
1134.84
-31.0198
328.36
1113.94
-29.1478
439.506
1050.79
-29.445
507.482
910.915
-38.3783
439.418
607.624
-41.7003
77.1694
90.5548
-24.7418
0.127664
0.135655
-0.893861
3.66198e-07
2.13295e-07
-0.000116278
7.81597e-13
2.4869e-13
-1.42713e-10
0
0
0
0
0
0
0
0
0
0
0
0
0
0
0
0
0
0
0
0
-265.819
960.919
-23.6328
-135.994
1071.33
-24.2229
-4.08558
1067.11
-26.348
98.0865
1005.58
-30.8732
189.863
926.997
-31.3334
277.35
892.413
-31.7612
338.239
782.149
-34.3376
289.274
460.301
-35.5839
59.0031
68.8627
-20.8364
0.150776
0.163651
-0.969095
6.17452e-07
5.97975e-07
-0.000234081
1.71241e-12
1.12266e-12
-3.78492e-10
0
0
0
0
0
0
0
0
0
0
0
0
0
0
0
0
0
0
0
0
0
0
0
-138.244