/*--------------------------------*- C++ -*----------------------------------*\
  =========                 |
  \\      /  F ield         | OpenFOAM: The Open Source CFD Toolbox
   \\    /   O peration     | Website:  https://openfoam.org
    \\  /    A nd           | Version:  9
     \\/     M anipulation  |
\*---------------------------------------------------------------------------*/
FoamFile
{
    format      ascii;
    class       volScalarField;
    location    "0.001";
    object      rho;
}
// * * * * * * * * * * * * * * * * * * * * * * * * * * * * * * * * * * * * * //

dimensions      [1 -3 0 0 0 0 0];

internalField   nonuniform List<scalar> 
9720
(
103.136
125.161
146.532
155.776
163.205
161.34
151.291
138.85
123.073
101.316
76.9478
53.3949
34.0647
23.8609
19.434
16.328
12.0838
6.64121
3.44777
1.42451
125.133
145.734
170.806
185.488
198.545
201.869
193.409
181.213
162.618
128.817
92.3515
62.6025
40.3288
27.0275
21.2177
17.2014
12.9076
7.41743
3.79913
1.61439
146.479
170.755
196.754
214.431
235.474
246.635
240.871
228.288
194.925
143.585
101.923
69.8456
45.7824
30.9375
24.0238
18.7846
13.1559
7.22536
3.72215
1.6012
155.665
185.319
214.217
210.966
248.23
271.346
278.664
266.784
231.738
107.253
78.7394
55.8997
37.195
26.1858
20.9977
16.922
11.98
6.62725
3.45118
1.45822
162.989
198.163
234.792
248.428
100.657
57.4077
51.0849
39.5147
26.6431
18.5875
15.263
13.0958
10.0488
5.88649
3.07402
1.35249
161.201
201.683
246.21
270.621
44.5729
38.3369
35.838
28.7825
20.2844
16.3244
14.4298
12.8993
9.70627
5.37715
2.67422
1.28574
151.131
193.166
240.57
278.093
31.4501
25.4149
24.2227
21.4193
17.692
15.7416
14.5447
13.1473
9.09862
4.54098
2.00838
1.23563
138.884
181.168
227.868
266.431
20.3025
18.7006
19.4749
18.4059
16.9732
16.1194
15.5469
12.8585
6.87089
3.231
1.34482
1.22515
123.179
162.426
193.263
226.977
97.9578
47.2349
32.819
21.2513
11.1689
12.2061
14.9067
16.0335
16.2843
16.0328
14.068
8.30965
4.03537
1.55765
1.22623
1.225
101.285
128.309
142.306
106.399
58.8893
39.4869
26.2365
19.2272
12.7123
8.15073
8.96259
10.7792
11.643
10.6788
7.12099
3.97054
1.64318
1.22772
1.225
1.225
76.8262
91.9406
101.266
78.724
51.8271
36.7477
24.7975
19.6135
15.2661
9.43531
7.00916
6.83122
5.96993
4.65193
3.03108
1.49929
1.22732
1.225
1.225
1.225
53.2547
62.3656
69.5282
56.0283
39.9182
29.3691
21.7917
18.4981
16.2379
11.2547
6.97027
5.03085
3.08059
1.87712
1.30162
1.22575
1.225
1.225
1.225
1.225
33.9771
40.2091
45.6094
37.2606
26.9232
20.6166
17.8782
17.0221
16.4441
12.0485
6.12325
3.13198
1.36926
1.23091
1.22506
1.225
1.225
1.225
1.225
1.225
23.8405
26.9845
30.8465
26.1825
18.749
16.5044
15.863
16.1765
16.1825
10.9403
4.75132
1.92371
1.23196
1.225
1.225
1.225
1.225
1.225
1.225
1.225
19.4237
21.1957
23.9606
20.9809
15.368
14.5244
14.5897
15.5858
14.1912
7.22661
3.08932
1.30887
1.22507
1.225
1.225
1.225
1.225
1.225
1.225
1.225
16.3253
17.1892
18.7485
16.9084
13.1426
12.9143
13.1476
12.9009
8.38052
4.01239
1.51417
1.22584
1.225
1.225
1.225
1.225
1.225
1.225
1.225
1.225
12.074
12.8976
13.1397
11.9822
10.0672
9.70773
9.11211
6.90157
4.05987
1.65784
1.22754
1.225
1.225
1.225
1.225
1.225
1.225
1.225
1.225
1.225
6.63038
7.40784
7.21923
6.6302
5.89303
5.38249
4.5489
3.24379
1.56637
1.22792
1.225
1.225
1.225
1.225
1.225
1.225
1.225
1.225
1.225
1.225
3.4419
3.7949
3.72145
3.45412
3.07901
2.67854
2.01339
1.34733
1.22631
1.225
1.225
1.225
1.225
1.225
1.225
1.225
1.225
1.225
1.225
1.225
1.42248
1.61155
1.59988
1.45889
1.35351
1.28629
1.23581
1.22515
1.225
1.225
1.225
1.225
1.225
1.225
1.225
1.225
1.225
1.225
1.225
1.225
105.643
127.738
149.063
158.017
165.596
163.678
154.114
142.448
127.105
105.18
80.2574
56.3891
36.5133
25.3742
20.5944
17.1931
12.794
7.06581
3.62479
1.48252
127.718
148.037
172.466
186.043
199.531
202.594
194.724
183.316
163.713
128.771
93.3594
64.7797
42.6664
28.7307
22.505
18.1854
13.7071
7.93454
3.98514
1.70725
149.024
172.423
197.296
213.732
235.361
246.356
240.913
228.105
190.499
137.842
98.0838
68.5944
46.08
31.6116
24.7914
19.5938
13.9751
7.73463
3.91107
1.69753
157.93
185.925
213.555
210.188
247.392
271.08
277.561
267.789
225.299
98.615
73.116
53.2847
36.5517
26.063
21.1387
17.262
12.5817
7.09135
3.6394
1.54192
165.374
199
234.277
245.397
87.1256
52.1906
47.3633
38.083
26.9339
18.9527
15.627
13.3941
10.5186
6.3047
3.30588
1.41543
163.606
202.444
245.703
269.025
40.7009
35.9536
34.1859
28.703
20.8756
16.4081
14.4147
12.972
10.1687
5.84736
2.97468
1.33455
154.067
194.613
240.631
276.776
28.7415
25.0181
23.5977
21.0129
17.4552
15.3915
14.2033
13.1871
9.89609
5.07416
2.34475
1.25286
142.452
183.346
228.04
267.712
19.347
17.7788
18.141
17.3017
15.9828
15.402
15.2678
13.7606
8.15264
3.77049
1.49866
1.22583
127.184
163.717
190.22
222.196
87.2447
40.9747
28.1572
18.8715
9.40538
11.1311
14.0256
15.369
15.9272
16.2516
15.3321
10.204
4.71917
1.92204
1.23155
1.225
105.275
128.784
137.639
98.8592
53.0707
35.897
24.4489
17.3452
11.1324
8.24358
9.6989
11.869
13.0719
12.5504
8.90213
4.73542
2.09637
1.23939
1.225
1.225
80.3214
93.4594
98.1236
73.3326
47.7732
34.2823
23.4513
17.9463
14.0884
9.81062
7.61996
7.7582
7.17752
5.68702
3.7621
1.8522
1.23787
1.225
1.225
1.225
56.4411
64.8876
68.7894
53.4802
38.3008
28.9535
21.0856
17.258
15.4615
11.9674
7.73318
5.68583
3.98675
2.42169
1.44198
1.22959
1.225
1.225
1.225
1.225
36.552
42.7507
46.2775
36.6955
27.0958
21.1098
17.5837
16.0519
16.0461
13.065
7.09244
3.97378
1.65784
1.25182
1.22546
1.225
1.225
1.225
1.225
1.225
25.3994
28.7898
31.7484
26.1673
19.0844
16.5528
15.4957
15.5032
16.3588
12.4441
5.60574
2.38328
1.24951
1.22501
1.225
1.225
1.225
1.225
1.225
1.225
20.6146
22.5448
24.8916
21.2355
15.7368
14.5142
14.2883
15.3805
15.3605
8.77409
3.71552
1.42805
1.22541
1.225
1.225
1.225
1.225
1.225
1.225
1.225
17.2063
18.2192
19.6655
17.3469
13.4754
13.0369
13.2509
13.8182
10.1518
4.70118
1.82811
1.22918
1.225
1.225
1.225
1.225
1.225
1.225
1.225
1.225
12.7993
13.7337
14.0178
12.6428
10.5731
10.2134
9.93748
8.15542
4.70439
2.07391
1.23697
1.225
1.225
1.225
1.225
1.225
1.225
1.225
1.225
1.225
7.06684
7.94785
7.75421
7.1209
6.33179
5.87126
5.08773
3.77051
1.91016
1.23861
1.225
1.225
1.225
1.225
1.225
1.225
1.225
1.225
1.225
1.225
3.62431
3.98709
3.91688
3.64781
3.31715
2.98448
2.34846
1.49622
1.23129
1.225
1.225
1.225
1.225
1.225
1.225
1.225
1.225
1.225
1.225
1.225
1.48179
1.70707
1.69899
1.54513
1.41883
1.33627
1.253
1.22581
1.225
1.225
1.225
1.225
1.225
1.225
1.225
1.225
1.225
1.225
1.225
1.225
107.43
128.733
149.658
158.985
167.055
165.728
156.608
145.178
130.16
107.985
83.0242
59.3799
39.1786
26.7891
21.6129
17.904
13.4055
7.48518
3.78794
1.56471
128.671
148.035
173.108
188.154
203.003
207.738
200.414
188.814
168.071
131.59
95.6999
67.3992
45.3721
30.4721
23.6117
19.0397
14.4785
8.45395
4.18891
1.82262
149.592
173.08
199.038
216.437
238.782
250.797
246.605
233.535
192.416
139.16
100.615
72.3593
50.1878
34.6259
26.8556
21.0997
15.0595
8.31077
4.13191
1.82268
158.828
187.932
215.947
212.146
248.942
273.989
281.662
274.246
224.132
98.726
76.1692
58.3688
42.2235
30.2554
24.2894
19.496
14.0386
7.79544
3.89255
1.67269
166.96
202.899
238.215
247.82
81.445
53.5238
50.5454
42.9936
32.3153
22.771
18.4412
15.3535
11.7796
6.95027
3.59151
1.5379
165.782
207.915
250.773
272.966
41.2777
37.9293
37.1139
32.9746
25.4675
19.8323
17.0616
14.9175
11.4621
6.50325
3.32897
1.4344
156.66
200.525
246.709
281.669
28.9927
27.0345
26.4287
24.5038
21.1517
18.3642
16.6535
14.9229
11.0886
5.72344
2.76412
1.29691
145.184
189.057
234.3
274.297
20.0825
19.8581
20.4356
19.9889
18.7584
17.934
17.1967
15.1875
9.47548
4.30634
1.79607
1.2294
130.301
168.929
194.863
227.248
82.6216
40.27
29.1314
20.0178
10.5838
12.9554
16.2307
17.8577
18.3308
18.3092
16.992
11.991
5.55956
2.45805
1.25452
1.22501
108.34
132.527
140.611
98.3118
51.2391
37.3217
27.0781
20.0898
13.0685
9.92082
11.6834
14.1747
15.2406
14.5052
10.7922
5.6625
2.74061
1.28709
1.22504
1.225
83.3864
96.2506
100.984
74.9448
48.6161
36.3743
26.3183
20.547
16.3372
11.538
8.74123
8.75561
8.41236
6.79541
4.51116
2.40036
1.28286
1.22506
1.225
1.225
59.6544
67.6799
72.3295
57.3359
41.5592
32.1977
24.2396
20.0132
17.9398
13.9243
8.56215
6.29429
4.73229
3.0655
1.75188
1.24845
1.22503
1.225
1.225
1.225
39.3484
45.5239
50.1318
41.603
31.3563
24.8263
20.8278
18.7311
18.3991
14.9094
8.10566
4.69937
2.19471
1.31779
1.2282
1.225
1.225
1.225
1.225
1.225
26.835
30.5141
34.5919
29.9685
22.2215
19.4162
18.0925
17.8874
18.321
14.1476
6.53114
2.95239
1.3014
1.22515
1.225
1.225
1.225
1.225
1.225
1.225
21.6377
23.6237
26.8444
24.141
18.0845
16.7536
16.4446
17.153
16.9347
10.5047
4.379
1.68688
1.22735
1.225
1.225
1.225
1.225
1.225
1.225
1.225
17.9108
19.0537
21.1097
19.436
15.1593
14.7501
14.8238
15.1671
11.8796
5.55446
2.32005
1.24426
1.225
1.225
1.225
1.225
1.225
1.225
1.225
1.225
13.415
14.5025
15.089
14.0505
11.7414
11.434
11.0876
9.4535
5.50915
2.67946
1.27541
1.22502
1.225
1.225
1.225
1.225
1.225
1.225
1.225
1.225
7.4976
8.47941
8.33766
7.82379
6.97327
6.52771
5.73607
4.29857
2.42506
1.28096
1.22504
1.225
1.225
1.225
1.225
1.225
1.225
1.225
1.225
1.225
3.79178
4.19643
4.14218
3.90203
3.60116
3.33862
2.76661
1.78587
1.25228
1.22503
1.225
1.225
1.225
1.225
1.225
1.225
1.225
1.225
1.225
1.225
1.56691
1.82624
1.82763
1.67841
1.54437
1.43782
1.29681
1.22918
1.22501
1.225
1.225
1.225
1.225
1.225
1.225
1.225
1.225
1.225
1.225
1.225
111.88
133.673
153.852
163.348
171.796
171.297
162.894
152.786
139.102
117.483
91.8278
66.8498
44.6187
29.8776
23.7705
19.2809
14.231
7.91381
3.95066
1.63163
133.59
153.773
177.014
192.208
207.955
213.984
207.676
197.326
177
140.73
105.225
75.9443
51.9191
34.5273
26.1727
20.7998
15.5687
8.98511
4.39781
1.91256
153.802
177.082
202.297
219.682
242.856
255.948
253.423
241.64
199.118
145.127
108.049
80.5452
57.4289
39.5396
30.0235
23.2768
16.3666
8.88653
4.35103
1.91787
163.226
192.233
219.785
216.555
254.317
280.927
290.452
285.412
228.881
100.68
80.4992
64.7411
48.8593
35.1062
27.7134
21.8551
15.3963
8.37694
4.12461
1.76563
171.774
207.977
242.683
253.632
83.7148
55.6951
54.015
48.0893
37.7608
26.7136
21.2198
17.2898
12.8804
7.47841
3.82119
1.62665
171.426
214.265
256.164
281.025
42.6958
42.5373
41.9422
38.0488
29.9482
23.082
19.6383
16.7386
12.5496
7.02563
3.57479
1.50872
162.973
207.824
253.619
291.041
32.9844
32.5223
31.7789
29.3475
25.119
21.3718
19.0411
16.5735
12.0722
6.21084
3.03158
1.33505
152.865
197.562
242.008
285.525
24.6392
24.7336
25.0384
24.2087
22.1445
20.7427
19.2785
16.5976
10.4064
4.71742
2.0008
1.23418
139.226
177.626
200.749
232.386
82.7001
42.0158
33.1442
24.7172
13.9088
15.9649
19.485
21.0078
21.0794
20.5833
18.7478
13.3418
6.2187
2.81477
1.28162
1.22503
117.799
141.574
146.535
101.957
55.2507
41.8378
31.7956
24.1464
15.9202
11.7471
13.303
16.0206
17.1092
16.2173
12.1972
6.40885
3.16584
1.34123
1.22514
1.225
92.2513
105.984
108.943
80.8879
53.5614
41.2833
30.9697
24.4248
19.3761
13.2433
9.65692
9.67698
9.38024
7.65552
5.07492
2.78076
1.33556
1.2252
1.225
1.225
67.2832
76.5356
81.1898
64.879
47.6364
37.4283
28.5761
23.6921
20.8923
15.8616
9.51752
6.9137
5.31343
3.49567
1.9828
1.2729
1.22512
1.225
1.225
1.225
44.9625
52.3618
57.9432
49.0005
37.4314
29.448
24.6143
21.8524
20.9652
16.8036
9.10359
5.26665
2.58687
1.38409
1.23247
1.22502
1.225
1.225
1.225
1.225
30.0368
34.7722
39.8807
35.2656
26.5413
22.7892
21.1109
20.5398
20.4379
15.8418
7.38761
3.38372
1.36383
1.22544
1.225
1.225
1.225
1.225
1.225
1.225
23.8645
26.303
30.2207
27.8416
21.0979
19.4355
18.8633
19.1716
18.6064
11.9157
4.9327
1.91695
1.23103
1.225
1.225
1.225
1.225
1.225
1.225
1.225
19.3287
20.8895
23.4218
21.9567
17.2204
16.6601
16.5123
16.5708
13.2496
6.30193
2.70542
1.26705
1.22502
1.225
1.225
1.225
1.225
1.225
1.225
1.225
14.2627
15.6359
16.4663
15.48
12.884
12.5736
12.1057
10.4216
6.18453
3.11953
1.32723
1.2251
1.225
1.225
1.225
1.225
1.225
1.225
1.225
1.225
7.94209
9.03237
8.94147
8.42871
7.51596
7.07139
6.2455
4.72154
2.7994
1.33599
1.22518
1.225
1.225
1.225
1.225
1.225
1.225
1.225
1.225
1.225
3.96105
4.4153
4.37137
4.14411
3.83866
3.59258
3.04734
2.00422
1.28047
1.22513
1.225
1.225
1.225
1.225
1.225
1.225
1.225
1.225
1.225
1.225
1.6383
1.92151
1.92863
1.77652
1.63844
1.51838
1.33833
1.23428
1.22503
1.225
1.225
1.225
1.225
1.225
1.225
1.225
1.225
1.225
1.225
1.225
116.193
138.628
158.393
168.001
176.455
176.607
168.9
160.542
148.179
126.801
99.7894
72.8096
48.3367
31.8917
25.1415
20.1572
14.7113
8.13828
4.04063
1.6593
138.625
158.821
180.776
195.796
211.585
218.38
212.986
204.581
185.481
150.269
114.749
83.423
56.6663
37.1368
27.8155
21.9293
16.2333
9.27826
4.50825
1.95078
158.423
180.823
204.475
220.579
243.898
257.432
256.02
245.374
204.133
152.403
116.66
88.4032
63.0218
42.7465
31.9913
24.6322
17.1512
9.2128
4.46775
1.95837
168.021
195.772
220.221
216.801
254.035
281.214
292.672
289.911
235.35
104.323
86.8428
71.6091
54.249
38.2573
29.6958
23.2171
16.1961
8.71339
4.24629
1.80322
176.481
211.489
243.215
252.972
84.2612
59.6567
58.6978
53.0026
41.6856
29.0156
22.6986
18.3257
13.507
7.76696
3.93464
1.65791
176.709
218.534
257.299
280.67
47.1773
46.7863
46.1267
41.7448
32.467
24.5489
20.8015
17.6326
13.1322
7.28952
3.68135
1.53255
168.944
213.067
256.052
292.772
39.7956
35.4178
34.1106
31.2313
26.6075
22.5554
20.0282
17.3431
12.5643
6.4254
3.12801
1.34688
160.518
204.608
245.526
290.082
29.238
26.0812
26.3898
25.4751
23.2305
21.6954
20.1135
17.2798
10.8087
4.88121
2.06299
1.2358
148.271
185.918
205.016
236.196
83.4811
46.8879
38.655
28.0381
15.0585
16.5369
20.171
21.8225
21.8946
21.386
19.5087
13.9092
6.47195
2.92722
1.29033
1.22504
127.075
151.057
153.622
105.706
60.0839
46.8776
35.1647
25.8147
16.6594
12.0602
13.6345
16.5218
17.7238
16.8574
12.7286
6.68501
3.30054
1.35836
1.22518
1.225
100.177
115.57
117.759
87.7767
59.0509
46.2248
33.9864
26.3015
20.2865
13.6908
9.95432
10.0349
9.75573
7.96504
5.27618
2.89477
1.35206
1.22527
1.225
1.225
73.2159
84.0842
89.2689
72.2202
53.2144
41.7949
31.2015
25.4668
21.9149
16.5194
9.95096
7.20628
5.55401
3.63864
2.04676
1.28047
1.22515
1.225
1.225
1.225
48.653
57.1257
63.6405
54.635
41.7813
32.4891
26.6703
23.321
21.9765
17.6117
9.60107
5.52483
2.73118
1.40408
1.23381
1.22503
1.225
1.225
1.225
1.225
32.0441
37.383
43.1158
38.496
29.0671
24.5939
22.6374
21.7976
21.4366
16.6905
7.82223
3.57983
1.39379
1.22559
1.225
1.225
1.225
1.225
1.225
1.225
25.2271
27.9449
32.2006
29.8568
22.7304
20.8455
20.1068
20.2142
19.5308
12.6223
5.20963
2.0192
1.23319
1.225
1.225
1.225
1.225
1.225
1.225
1.225
20.2073
22.0207
24.7874
23.3494
18.3672
17.6941
17.4341
17.3737
13.9541
6.66838
2.87465
1.27904
1.22503
1.225
1.225
1.225
1.225
1.225
1.225
1.225
14.7489
16.3078
17.2639
16.3045
13.5719
13.2242
12.6724
10.9091
6.51186
3.3069
1.35257
1.22515
1.225
1.225
1.225
1.225
1.225
1.225
1.225
1.225
8.17267
9.33072
9.27618
8.77641
7.82605
7.36396
6.49856
4.92597
2.95375
1.36192
1.22528
1.225
1.225
1.225
1.225
1.225
1.225
1.225
1.225
1.225
4.05539
4.53035
4.49498
4.27294
3.96345
3.71508
3.16617
2.09
1.29363
1.22519
1.225
1.225
1.225
1.225
1.225
1.225
1.225
1.225
1.225
1.225
1.66837
1.96245
1.97175
1.81656
1.67394
1.54826
1.35464
1.23671
1.22504
1.225
1.225
1.225
1.225
1.225
1.225
1.225
1.225
1.225
1.225
1.225
116.211
138.644
158.397
168.007
176.528
176.651
168.957
160.575
148.161
126.735
99.7237
72.7697
48.316
31.8855
25.1377
20.1562
14.7122
8.13885
4.04107
1.6594
138.643
158.831
180.791
195.795
211.764
218.467
213.079
204.553
185.331
150.175
114.722
83.4135
56.6633
37.1378
27.8137
21.9265
16.2315
9.27806
4.50841
1.95084
158.432
180.8
204.488
220.568
244.268
257.696
256.131
245.229
203.891
152.394
116.772
88.5282
63.1053
42.7808
31.9974
24.6296
17.1465
9.21185
4.46862
1.95893
168.024
195.74
220.269
213.642
251.956
278.297
289.075
285.721
231.243
104.724
87.3578
72.0256
54.513
38.3685
29.7292
23.2254
16.1925
8.71254
4.24841
1.80469
176.393
211.305
242.934
249.641
79.3703
59.9628
59.0391
53.3558
41.9797
29.1787
22.7635
18.3499
13.5031
7.76398
3.93613
1.65927
176.669
218.425
257.034
276.38
50.0171
46.7577
46.1547
41.864
32.6329
24.6398
20.847
17.6315
13.1144
7.28123
3.67762
1.53168
168.925
213.011
255.93
288.874
39.5474
35.0445
34.0252
31.2565
26.6578
22.583
20.0319
17.3157
12.5357
6.41305
3.11987
1.34573
160.479
204.545
245.563
285.882
27.8391
25.7454
26.2622
25.4069
23.2008
21.6674
20.0761
17.2292
10.7747
4.8654
2.0554
1.23559
148.277
186.056
205.373
235.601
80.2359
50.1642
40.3788
28.5434
14.8933
16.4337
20.0977
21.7471
21.826
21.3232
19.4401
13.8502
6.44234
2.91301
1.28912
1.22504
127.104
151.176
153.832
105.328
59.2549
46.7982
35.3592
26.0787
16.707
12.0886
13.6684
16.5196
17.6843
16.7906
12.6622
6.64886
3.28321
1.35594
1.22517
1.225
100.194
115.613
117.819
87.6981
58.5395
46.1231
34.1504
26.4602
20.3664
13.7471
10.0202
10.0495
9.74875
7.9427
5.25556
2.87966
1.34966
1.22526
1.225
1.225
73.2071
84.0704
89.2534
72.2791
53.0983
41.738
31.2647
25.5556
21.9642
16.5457
9.97201
7.21915
5.5654
3.63613
2.03946
1.27936
1.22515
1.225
1.225
1.225
48.6358
57.0902
63.5938
54.6999
41.835
32.4807
26.6695
23.3345
21.9924
17.6116
9.60507
5.54174
2.74373
1.40368
1.23364
1.22503
1.225
1.225
1.225
1.225
32.0368
37.3561
43.0745
38.5092
29.1044
24.6035
22.634
21.7962
21.4264
16.6698
7.82164
3.59294
1.39566
1.22559
1.225
1.225
1.225
1.225
1.225
1.225
25.2263
27.9284
32.1724
29.8407
22.7326
20.8454
20.0939
20.1919
19.4946
12.5952
5.21146
2.02128
1.23322
1.225
1.225
1.225
1.225
1.225
1.225
1.225
20.2112
22.0105
24.7655
23.3302
18.3641
17.6836
17.4108
17.3363
13.9111
6.65304
2.8716
1.27882
1.22503
1.225
1.225
1.225
1.225
1.225
1.225
1.225
14.7543
16.3051
17.2536
16.2947
13.57
13.209
12.6436
10.8709
6.48896
3.298
1.35154
1.22515
1.225
1.225
1.225
1.225
1.225
1.225
1.225
1.225
8.17386
9.33117
9.27393
8.77508
7.82261
7.34882
6.47669
4.90808
2.9426
1.36042
1.22527
1.225
1.225
1.225
1.225
1.225
1.225
1.225
1.225
1.225
4.05463
4.52968
4.49365
4.27221
3.95969
3.70662
3.15504
2.08255
1.29266
1.22519
1.225
1.225
1.225
1.225
1.225
1.225
1.225
1.225
1.225
1.225
1.66776
1.96192
1.97126
1.81637
1.6721
1.54554
1.35304
1.23649
1.22504
1.225
1.225
1.225
1.225
1.225
1.225
1.225
1.225
1.225
1.225
1.225
111.891
133.662
153.853
163.369
171.897
171.378
162.988
152.899
139.093
117.359
91.6812
66.7362
44.5599
29.8668
23.7649
19.2788
14.2294
7.91088
3.94978
1.63097
133.616
153.779
177.069
192.344
208.249
214.116
207.8
197.422
176.68
140.311
104.922
75.7824
51.8518
34.515
26.1721
20.7964
15.5622
8.97968
4.39556
1.91141
153.805
177.037
202.321
219.977
243.587
256.391
253.617
241.517
198.3
144.447
107.649
80.358
57.3651
39.5227
30.0066
23.2582
16.3491
8.87771
4.3484
1.91681
163.235
192.141
219.516
218.593
256.783
284.054
293.979
290.503
233.881
100.349
80.3794
64.7292
48.9206
35.1437
27.704
21.8317
15.3699
8.36517
4.1213
1.76536
171.684
207.758
242.07
253.662
82.6789
55.82
54.0954
48.1351
37.8649
26.795
21.2343
17.2721
12.8416
7.45816
3.8138
1.62545
171.377
214.169
255.773
281.446
45.7782
42.2086
41.6836
37.9354
29.9525
23.0542
19.5947
16.6751
12.4859
6.99537
3.56013
1.50422
162.91
207.758
253.497
293.681
37.6104
32.1636
31.4026
29.0336
24.9489
21.2603
18.9325
16.4583
11.9808
6.16967
3.00945
1.33123
152.879
197.529
241.786
290.656
28.1565
24.4374
24.6047
23.8494
21.9028
20.5381
19.1002
16.4374
10.2934
4.6761
1.97853
1.23354
139.217
177.173
199.305
234.969
82.4826
45.2006
37.0448
27.4962
14.7844
15.9554
19.3434
20.7709
20.8168
20.3211
18.509
13.1533
6.13966
2.77674
1.27802
1.22503
117.651
140.976
145.412
101.257
55.8416
42.0514
31.8953
24.1139
15.7826
11.7968
13.3744
15.9396
16.9005
15.953
11.978
6.3137
3.12057
1.33416
1.22512
1.225
92.0422
105.523
108.368
80.8235
54.1333
41.5875
31.1494
24.4272
19.2153
13.2956
9.77454
9.65869
9.29868
7.55171
5.0139
2.73804
1.32856
1.22518
1.225
1.225
67.074
76.2318
80.8853
64.9936
48.1458
37.8344
28.8328
23.7407
20.7786
15.8815
9.59216
6.93094
5.32943
3.47658
1.95724
1.26948
1.2251
1.225
1.225
1.225
44.7992
52.1491
57.7347
49.0998
37.8366
29.8417
24.8564
21.9063
20.8908
16.8465
9.20957
5.31707
2.62429
1.38057
1.23186
1.22502
1.225
1.225
1.225
1.225
29.9593
34.6538
39.7305
35.2684
26.7814
23.0147
21.2568
20.5802
20.4108
15.9159
7.48344
3.445
1.37454
1.22546
1.225
1.225
1.225
1.225
1.225
1.225
23.816
26.2319
30.1205
27.8035
21.2352
19.5842
18.9564
19.1799
18.5983
11.9773
4.98674
1.9425
1.23155
1.225
1.225
1.225
1.225
1.225
1.225
1.225
19.3048
20.8402
23.3447
21.9148
17.2917
16.7117
16.5281
16.5454
13.2413
6.32707
2.7295
1.26888
1.22502
1.225
1.225
1.225
1.225
1.225
1.225
1.225
14.2506
15.6045
16.4171
15.4406
12.8887
12.559
12.0761
10.3906
6.18134
3.1299
1.32933
1.2251
1.225
1.225
1.225
1.225
1.225
1.225
1.225
1.225
7.9312
9.01285
8.91777
8.40613
7.50004
7.049
6.22353
4.7105
2.7973
1.3367
1.22518
1.225
1.225
1.225
1.225
1.225
1.225
1.225
1.225
1.225
3.95692
4.40796
4.3627
4.13592
3.8308
3.58227
3.03554
1.99743
1.28013
1.22513
1.225
1.225
1.225
1.225
1.225
1.225
1.225
1.225
1.225
1.225
1.63582
1.918
1.92455
1.77281
1.63386
1.51338
1.33598
1.23408
1.22503
1.225
1.225
1.225
1.225
1.225
1.225
1.225
1.225
1.225
1.225
1.225
107.443
128.757
149.672
159.027
167.113
165.767
156.687
145.256
130.167
107.894
82.8438
59.2064
39.0617
26.7416
21.58
17.8857
13.3941
7.47713
3.78544
1.56309
128.68
148.063
173.107
188.192
203.154
207.743
200.491
188.954
167.989
131.204
95.2933
67.0964
45.1897
30.3913
23.5704
19.0107
14.4566
8.44056
4.18429
1.81998
149.605
173.112
199.048
216.468
239.192
250.956
246.689
233.66
192.114
138.321
99.753
71.7408
49.8264
34.45
26.7534
21.0297
15.0163
8.29188
4.12583
1.81975
158.842
187.972
215.925
215.246
252.348
278.467
286.402
280.076
225.184
97.3004
74.8187
57.4436
41.7165
30.0001
24.1208
19.3908
13.9857
7.77777
3.88667
1.67049
166.927
202.814
237.893
249.679
81.0914
52.8755
49.7201
42.2495
31.8581
22.4954
18.2438
15.2182
11.7044
6.92299
3.58109
1.53428
165.784
207.974
250.682
276.486
42.0812
37.462
36.651
32.6232
25.2237
19.5776
16.8498
14.7545
11.3606
6.46565
3.30938
1.42797
156.62
200.544
246.763
286.591
31.4266
26.848
26.2575
24.3489
20.9515
18.1262
16.4464
14.7543
10.9808
5.67586
2.7346
1.29267
145.215
189.001
234.016
280.292
22.9269
19.69
20.2776
19.8324
18.582
17.752
17.0174
15.0268
9.35176
4.26121
1.76953
1.22891
130.288
168.535
193.448
229.388
82.1687
42.6261
32.2547
23.5975
12.402
12.8596
16.0858
17.6935
18.166
18.1441
16.8178
11.8106
5.48119
2.41229
1.25155
1.22501
108.186
131.943
139.51
97.6528
52.2706
37.6707
27.1148
20.013
13.086
9.93835
11.602
14.0122
15.0473
14.3069
10.6119
5.57974
2.68897
1.28122
1.22503
1.225
83.1865
95.8546
100.477
74.9574
49.3085
36.7121
26.4019
20.4894
16.3051
11.6458
8.78594
8.69713
8.3273
6.70902
4.45956
2.35552
1.27738
1.22505
1.225
1.225
59.4839
67.4619
72.1319
57.5529
42.0041
32.5292
24.3516
19.9748
17.8658
14.0215
8.65511
6.30902
4.75721
3.04545
1.72658
1.24607
1.22503
1.225
1.225
1.225
39.235
45.4017
50.035
41.7906
31.6975
25.0796
20.9117
18.68
18.305
15.0161
8.25184
4.74863
2.22959
1.31407
1.22783
1.225
1.225
1.225
1.225
1.225
26.7996
30.4725
34.5431
30.0468
22.4168
19.5237
18.1315
17.8402
18.2449
14.2594
6.64294
3.01306
1.30925
1.22515
1.225
1.225
1.225
1.225
1.225
1.225
21.6131
23.6049
26.8055
24.1634
18.2104
16.8339
16.4749
17.1031
16.8899
10.5791
4.42953
1.70952
1.22761
1.225
1.225
1.225
1.225
1.225
1.225
1.225
17.8947
19.0328
21.07
19.4293
15.2232
14.7854
14.8163
15.1124
11.8574
5.57284
2.33973
1.2452
1.225
1.225
1.225
1.225
1.225
1.225
1.225
1.225
13.3939
14.4709
15.0443
14.0183
11.7395
11.4146
11.0478
9.41068
5.49821
2.68474
1.27636
1.22502
1.225
1.225
1.225
1.225
1.225
1.225
1.225
1.225
7.47886
8.45088
8.30716
7.79805
6.95251
6.50198
5.70994
4.282
2.41767
1.28094
1.22504
1.225
1.225
1.225
1.225
1.225
1.225
1.225
1.225
1.225
3.78543
4.18688
4.13112
3.89354
3.59283
3.32559
2.75035
1.77638
1.25178
1.22503
1.225
1.225
1.225
1.225
1.225
1.225
1.225
1.225
1.225
1.225
1.56356
1.82131
1.82207
1.67336
1.53852
1.43212
1.29437
1.22901
1.22501
1.225
1.225
1.225
1.225
1.225
1.225
1.225
1.225
1.225
1.225
1.225
105.66
127.774
149.079
158.088
165.566
163.632
154.112
142.454
127.099
105.138
80.1985
56.3278
36.4689
25.3578
20.5836
17.1867
12.7851
7.05781
3.62137
1.48103
127.727
148.075
172.461
186.145
199.377
202.341
194.603
183.261
163.683
128.71
93.2878
64.7073
42.6097
28.7045
22.4908
18.1748
13.695
7.92381
3.98093
1.70475
149.046
172.484
197.317
213.953
235.34
246.049
240.686
227.914
190.401
137.781
98.0301
68.5368
46.0153
31.572
24.7671
19.5761
13.9592
7.72434
3.90691
1.69532
157.905
185.917
213.425
212.794
248.518
272.785
279.964
271.451
225.137
98.7002
73.1994
53.3335
36.5674
26.0673
21.1397
17.2627
12.577
7.0852
3.63704
1.54071
165.427
199.216
234.413
246.356
82.5088
52.5145
47.4378
38.1172
27.0052
19.0228
15.6811
13.4244
10.5229
6.29803
3.30204
1.41428
163.675
202.731
246.054
271.279
40.0268
35.8495
34.1573
28.7816
20.9943
16.4948
14.4636
12.9719
10.1432
5.82845
2.96298
1.33227
154.075
194.773
240.945
280.354
28.5069
24.6357
23.5704
21.1088
17.5407
15.4401
14.2063
13.1473
9.84389
5.04443
2.32634
1.2516
142.518
183.449
228.202
271.981
19.4484
17.6345
18.1099
17.3145
15.9957
15.3938
15.2269
13.6762
8.06894
3.74029
1.48704
1.22575
127.208
163.711
190.315
222.641
82.0426
39.3227
28.1065
19.1666
9.58509
11.0819
14.0048
15.3456
15.8953
16.1945
15.2288
10.0746
4.67593
1.8969
1.231
1.225
105.246
128.73
137.674
98.8872
52.6958
35.7743
24.488
17.3769
11.0672
8.20043
9.67625
11.8384
13.0079
12.4513
8.79083
4.69334
2.06649
1.23821
1.225
1.225
80.2617
93.3473
98.0317
73.4098
47.7003
34.2113
23.5234
18.0072
14.0345
9.76995
7.62054
7.75397
7.1546
5.65569
3.73284
1.82982
1.23683
1.225
1.225
1.225
56.3578
64.7597
68.6044
53.5012
38.3468
28.9378
21.162
17.304
15.4335
11.967
7.78832
5.72326
4.00986
2.41027
1.43324
1.22922
1.225
1.225
1.225
1.225
36.4728
42.6333
46.0733
36.6459
27.1337
21.1249
17.6226
16.0747
16.037
13.1268
7.17449
4.01904
1.66913
1.251
1.22543
1.225
1.225
1.225
1.225
1.225
25.3509
28.6965
31.5908
26.0898
19.0948
16.5868
15.5332
15.5132
16.358
12.51
5.66194
2.40905
1.25067
1.22501
1.225
1.225
1.225
1.225
1.225
1.225
20.577
22.4812
24.7715
21.1579
15.737
14.5406
14.3092
15.3747
15.343
8.79757
3.73762
1.43157
1.22542
1.225
1.225
1.225
1.225
1.225
1.225
1.225
17.1748
18.1665
19.5771
17.2783
13.4716
13.0409
13.2449
13.7776
10.1127
4.70588
1.8292
1.22919
1.225
1.225
1.225
1.225
1.225
1.225
1.225
1.225
12.7667
13.6841
13.9537
12.5893
10.555
10.1882
9.89708
8.10827
4.69466
2.06929
1.23683
1.225
1.225
1.225
1.225
1.225
1.225
1.225
1.225
1.225
7.04447
7.91543
7.72132
7.09131
6.31328
5.84896
5.06633
3.75869
1.90222
1.23832
1.225
1.225
1.225
1.225
1.225
1.225
1.225
1.225
1.225
1.225
3.61392
3.97506
3.9046
3.63827
3.30967
2.97482
2.33781
1.49081
1.2311
1.225
1.225
1.225
1.225
1.225
1.225
1.225
1.225
1.225
1.225
1.225
1.47823
1.70132
1.69347
1.5407
1.41621
1.33415
1.25223
1.22578
1.225
1.225
1.225
1.225
1.225
1.225
1.225
1.225
1.225
1.225
1.225
1.225
103.149
125.187
146.531
155.806
163.131
161.234
151.21
138.817
123.059
101.27
76.8819
53.325
34.0149
23.8424
19.4227
16.3224
12.0762
6.63445
3.4441
1.4234
125.146
145.774
170.787
185.505
198.39
201.57
193.173
181.06
162.472
128.648
92.2294
62.5099
40.262
26.9934
21.1941
17.1863
12.8963
7.40875
3.79544
1.6125
146.51
170.847
196.817
214.682
235.546
246.358
240.565
227.968
194.308
143.259
101.786
69.7499
45.6967
30.8873
23.9904
18.7634
13.1437
7.21837
3.71977
1.59983
155.66
185.375
214.147
210.936
248.713
271.678
278.032
267.104
227.295
107.491
79.1373
56.1395
37.2712
26.1885
20.9885
16.9105
11.9762
6.62532
3.45107
1.45815
163.065
198.358
234.855
246.975
88.7864
57.9617
51.582
39.8549
26.8526
18.697
15.3335
13.1289
10.0599
5.88746
3.07528
1.35278
161.312
202.002
246.537
270.713
41.6975
38.5571
36.1143
29.0594
20.4478
16.4178
14.4883
12.9183
9.70439
5.37302
2.67321
1.2857
151.21
193.429
240.949
278.48
28.9057
25.4195
24.1344
21.3485
17.6973
15.7641
14.5635
13.147
9.08712
4.53412
2.00506
1.23553
139.016
181.467
228.221
267.838
19.3473
18.4776
19.2057
18.1993
16.8545
16.0707
15.5457
12.8488
6.85362
3.22259
1.3435
1.22514
123.263
162.448
192.72
225.443
90.4275
42.5862
29.4833
19.986
10.2319
12.0775
14.7817
15.959
16.2759
16.063
14.0701
8.28481
4.02452
1.55386
1.22621
1.225
101.255
128.007
141.543
105.497
58.9205
39.3771
26.2375
19.3544
12.6755
8.15537
9.07124
10.9246
11.7974
10.7625
7.12312
3.96428
1.63888
1.22766
1.225
1.225
76.7008
91.6257
100.66
78.1263
51.6331
36.662
24.9093
19.723
15.1985
9.30288
7.01538
6.91296
6.05129
4.68818
3.0358
1.49739
1.22728
1.225
1.225
1.225
53.0975
62.1143
69.1222
55.6814
39.7326
29.3884
21.9001
18.5768
16.1894
11.1485
6.97696
5.07954
3.12686
1.88971
1.30193
1.22574
1.225
1.225
1.225
1.225
33.8469
40.0276
45.346
37.0864
26.8257
20.673
17.9313
17.0549
16.4241
11.9882
6.13382
3.16471
1.37548
1.23114
1.22506
1.225
1.225
1.225
1.225
1.225
23.7637
26.8765
30.6938
26.1012
18.7209
16.538
15.8894
16.1843
16.1794
10.9293
4.76539
1.9301
1.2321
1.225
1.225
1.225
1.225
1.225
1.225
1.225
19.3694
21.1172
23.8584
20.9209
15.35
14.5305
14.5896
15.5827
14.1848
7.23002
3.09769
1.30975
1.22507
1.225
1.225
1.225
1.225
1.225
1.225
1.225
16.2864
17.1346
18.6752
16.8669
13.1323
12.9008
13.1383
12.8877
8.36973
4.01956
1.51633
1.22585
1.225
1.225
1.225
1.225
1.225
1.225
1.225
1.225
12.0393
12.8555
13.091
11.9485
10.0546
9.69464
9.1014
6.89411
4.06324
1.66024
1.22757
1.225
1.225
1.225
1.225
1.225
1.225
1.225
1.225
1.225
6.60723
7.38002
7.19479
6.61107
5.88548
5.37874
4.54846
3.24711
1.56788
1.22795
1.225
1.225
1.225
1.225
1.225
1.225
1.225
1.225
1.225
1.225
3.42869
3.78202
3.71153
3.44621
3.07801
2.68146
2.01704
1.34814
1.22632
1.225
1.225
1.225
1.225
1.225
1.225
1.225
1.225
1.225
1.225
1.225
1.41883
1.60555
1.5947
1.45613
1.35373
1.2869
1.23597
1.22515
1.225
1.225
1.225
1.225
1.225
1.225
1.225
1.225
1.225
1.225
1.225
1.225
264.533
248.517
287.176
248.708
265.025
250.641
288.47
278.945
295.862
309.387
271.946
279.272
297.252
309.792
270.338
309.623
301.017
278.62
270.771
309.434
301.78
252.948
298.687
280.768
267.456
252.435
299.33
279.757
249.073
263.905
286.349
246.687
244.095
263.307
286.041
73.052
47.8451
47.3917
89.7121
66.3645
44.2607
44.3226
295.172
278.266
308.758
270.319
295.313
278.078
308.628
43.553
34.8487
35.003