/*--------------------------------*- C++ -*----------------------------------*\
  =========                 |
  \\      /  F ield         | OpenFOAM: The Open Source CFD Toolbox
   \\    /   O peration     | Website:  https://openfoam.org
    \\  /    A nd           | Version:  9
     \\/     M anipulation  |
\*---------------------------------------------------------------------------*/
FoamFile
{
    format      ascii;
    class       volScalarField;
    location    "0.001";
    object      rho.C4;
}
// * * * * * * * * * * * * * * * * * * * * * * * * * * * * * * * * * * * * * //

dimensions      [1 -3 0 0 0 0 0];

internalField   nonuniform List<scalar> 
9720
(
132.913
144.494
166.064
174.819
182.527
181.061
170.84
158.879
144.064
123.152
99.4642
75.8481
55.2986
46.1228
47.6529
58.9874
87.2874
133.177
184.842
68.1985
144.443
152.855
176.829
190.72
203.701
207.014
198.407
186.365
168.312
135.337
100.251
72.3665
51.8487
40.6686
39.7129
45.0895
62.7199
97.8545
144.013
161.043
165.974
176.778
201.349
218.114
238.965
249.926
243.843
231.108
197.701
146.773
106.442
76.544
54.9946
43.1167
41.6933
46.1875
60.9119
90.2913
129.005
144.242
174.647
190.553
217.925
215.565
252.945
275.754
282.23
269.718
234.145
108.301
80.5937
59.3307
42.7034
34.5429
34.4488
39.9356
55.4036
83.9877
117.994
123.72
182.229
203.31
238.287
253.23
102.087
58.5123
52.9388
42.6274
31.1801
24.9619
25.3832
31.3902
47.6047
74.9681
103.662
25.8734
180.875
206.814
249.467
274.876
46.4367
41.2467
39.2838
32.9296
25.1544
23.0348
25.0497
32.753
50.516
78.1775
104.801
4.43542
170.651
198.151
243.526
281.595
36.2992
31.9627
30.8186
28.2036
24.9131
24.9089
28.5712
40.1389
63.5889
96.2084
119.377
0.0908034
158.912
186.317
230.68
269.35
29.5139
31.5663
33.0004
31.733
30.6575
32.6305
41.1908
61.8566
94.7878
130.495
31.9497
3.52301e-07
144.173
168.114
196.02
229.344
99.4428
49.4486
38.4371
31.3981
30.0135
36.3809
43.376
45.633
47.5115
53.8278
71.4558
101.744
141.021
151.428
0.00106692
2.22045e-16
123.111
134.821
145.501
107.489
60.1813
42.8799
33.5296
33.0671
38.0459
45.6633
61.6074
72.5184
80.6372
93.3083
118.104
153.495
165.638
0.00842175
2.22045e-16
2.22045e-16
99.3213
99.8469
105.825
80.6533
53.8803
40.6159
31.9787
33.7382
44.335
62.4157
95.0267
118.769
127.851
144.871
167.542
168.796
0.00593544
2.22045e-16
2.22045e-16
2.22045e-16
75.6769
72.1559
76.2934
59.5649
43.2174
33.8507
29.0334
32.2778
46.0211
73.168
118.793
171.134
172.974
173.261
16.5967
0.000415022
2.22045e-16
2.22045e-16
2.22045e-16
2.22045e-16
55.1911
51.7702
54.9
42.8886
31.6321
25.7464
25.4477
31.077
47.8247
81.2024
128.448
174.304
8.71851
0.0356538
3.01056e-08
2.22045e-16
2.22045e-16
2.22045e-16
2.22045e-16
2.22045e-16
46.1245
40.6852
43.1109
34.6574
25.2892
23.454
25.3503
33.03
54.1888
93.8116
145.586
176.253
0.0519494
3.46464e-15
2.22045e-16
2.22045e-16
2.22045e-16
2.22045e-16
2.22045e-16
2.22045e-16
47.6884
39.7673
41.7206
34.5572
25.6824
25.3945
28.902
41.503
71.7886
118.366
168.236
19.4627
4.92768e-08
2.22045e-16
2.22045e-16
2.22045e-16
2.22045e-16
2.22045e-16
2.22045e-16
2.22045e-16
59.0986
45.1896
46.2669
40.0678
31.6648
33.0092
40.3718
62.0925
101.969
153.751
172.779
0.000536237
2.22045e-16
2.22045e-16
2.22045e-16
2.22045e-16
2.22045e-16
2.22045e-16
2.22045e-16
2.22045e-16
87.5034
62.9147
61.0877
55.632
47.9332
50.7976
63.8429
95.0065
141.271
166.016
0.00715169
2.22045e-16
2.22045e-16
2.22045e-16
2.22045e-16
2.22045e-16
2.22045e-16
2.22045e-16
2.22045e-16
2.22045e-16
133.49
98.1595
90.581
84.3328
75.4267
78.5941
96.5729
130.895
151.83
0.00965736
2.22045e-16
2.22045e-16
2.22045e-16
2.22045e-16
2.22045e-16
2.22045e-16
2.22045e-16
2.22045e-16
2.22045e-16
2.22045e-16
185.167
144.37
129.393
118.472
104.308
105.393
120.117
33.6871
0.00122131
2.22045e-16
2.22045e-16
2.22045e-16
2.22045e-16
2.22045e-16
2.22045e-16
2.22045e-16
2.22045e-16
2.22045e-16
2.22045e-16
2.22045e-16
66.1782
160.148
144.655
123.98
26.323
4.54489
0.0951985
4.1468e-07
2.22045e-16
2.22045e-16
2.22045e-16
2.22045e-16
2.22045e-16
2.22045e-16
2.22045e-16
2.22045e-16
2.22045e-16
2.22045e-16
2.22045e-16
2.22045e-16
134.018
145.078
166.107
174.282
181.972
180.211
170.406
159.101
144.524
123.43
99.3958
76.0376
55.7044
45.6942
46.604
56.3785
82.0331
125.334
176.291
141.691
145.025
152.968
175.98
188.668
202.025
205.075
197.173
185.928
166.736
132.551
98.5465
71.9992
52.0017
40.4205
38.9074
43.3318
58.852
91.4635
136.512
157.766
166.016
175.928
199.144
214.648
236.142
247.093
241.615
228.816
191.304
139.129
100.516
72.979
52.9474
41.4746
39.8915
43.8003
57.092
84.5267
122.516
139.989
174.118
188.535
214.468
210.443
247.453
271.115
277.588
267.813
225.327
98.8599
73.9463
55.3467
40.4583
32.5619
32.2414
36.9428
50.9547
78.0748
112.075
121.934
181.652
201.476
235.058
245.461
87.2586
52.9437
48.6695
40.359
30.5078
24.2129
24.2687
29.1632
43.6091
69.6652
98.794
76.3687
180.096
204.915
246.434
269.057
42.1437
38.8718
37.4844
32.5334
25.2959
22.2638
23.5403
29.7821
45.4684
71.8816
99.7209
21.174
170.343
197.057
241.33
276.802
33.8688
31.9647
30.3607
27.7359
24.3126
23.6078
26.1219
35.36
56.3493
87.8397
115.414
0.997441
159.116
185.962
228.751
267.736
29.4513
30.2553
30.8087
29.6726
28.321
29.7079
36.3992
54.1751
84.9833
122.74
134.023
0.000493457
144.623
166.743
191.027
222.228
87.4209
42.6181
33.5358
29.1751
24.4377
30.4218
37.5442
40.4682
42.6552
48.3699
63.804
91.9486
131.453
154.631
0.0662891
2.65757e-15
123.54
132.558
138.918
99.1013
53.8423
38.8694
31.3746
29.8166
30.6832
36.135
51.9393
64.7584
74.1717
86.9158
109.434
144.884
168.998
0.387357
1.59523e-13
2.22045e-16
99.4605
98.6314
100.533
74.1453
49.076
37.6308
30.2877
30.6662
37.8919
52.6231
83.3865
110.079
122.883
140.073
164.714
177.316
0.30412
2.39916e-13
2.22045e-16
2.22045e-16
76.0841
72.0859
73.1463
55.5136
40.5621
32.8322
27.9088
29.7468
40.8822
65.7909
110.821
165.561
177.447
183.003
177.941
0.0305986
7.254e-14
2.22045e-16
2.22045e-16
2.22045e-16
55.7391
52.0657
53.1244
40.5699
30.6591
25.5796
24.5383
28.5513
43.1824
75.1317
123.64
177.235
94.1463
0.926858
7.88887e-05
5.55593e-16
2.22045e-16
2.22045e-16
2.22045e-16
2.22045e-16
45.7164
40.4631
41.5977
32.6326
24.3453
22.452
23.7952
29.9869
49.0358
87.9395
141.048
182.361
0.66639
5.59317e-12
2.22045e-16
2.22045e-16
2.22045e-16
2.22045e-16
2.22045e-16
2.22045e-16
46.6262
38.9282
39.9815
32.3054
24.3895
23.6804
26.2852
36.7564
64.5924
110.561
165.59
149.948
3.68426e-05
2.22045e-16
2.22045e-16
2.22045e-16
2.22045e-16
2.22045e-16
2.22045e-16
2.22045e-16
56.4024
43.3534
43.862
36.9927
29.2515
29.8643
35.4961
54.5659
92.7419
145.97
178.038
0.0232869
3.26287e-16
2.22045e-16
2.22045e-16
2.22045e-16
2.22045e-16
2.22045e-16
2.22045e-16
2.22045e-16
82.0661
58.8795
57.1142
50.9575
43.6309
45.4839
56.4772
85.3916
132.196
169.593
0.250545
4.0648e-14
2.22045e-16
2.22045e-16
2.22045e-16
2.22045e-16
2.22045e-16
2.22045e-16
2.22045e-16
2.22045e-16
125.389
91.5113
84.5293
78.0417
69.646
71.8996
88.0117
123.136
155.064
0.334767
1.48346e-13
2.22045e-16
2.22045e-16
2.22045e-16
2.22045e-16
2.22045e-16
2.22045e-16
2.22045e-16
2.22045e-16
2.22045e-16
176.355
136.585
122.544
112.076
98.8671
99.8503
115.661
134.411
0.0595465
1.02888e-13
2.22045e-16
2.22045e-16
2.22045e-16
2.22045e-16
2.22045e-16
2.22045e-16
2.22045e-16
2.22045e-16
2.22045e-16
2.22045e-16
140.672
157.822
140.045
121.964
80.3552
22.1967
1.01208
0.000463507
2.11971e-15
2.22045e-16
2.22045e-16
2.22045e-16
2.22045e-16
2.22045e-16
2.22045e-16
2.22045e-16
2.22045e-16
2.22045e-16
2.22045e-16
2.22045e-16
133.627
143.655
163.927
172.38
180.485
179.25
169.884
158.703
144.353
123.05
99.2473
76.7083
56.8216
45.5652
45.8066
53.9946
76.7897
117.029
166.815
182.409
143.553
151.328
175.151
189.524
204.274
209.028
201.719
190.266
169.853
134.037
99.4394
73.1273
53.4031
40.9559
38.6025
42.2267
55.9872
85.8965
129.398
154.48
163.807
175.118
199.832
216.713
239
251.013
246.827
233.791
192.761
139.903
102.312
75.837
56.1845
43.6992
41.0353
43.9654
55.4376
80.3862
117.287
138.51
172.154
189.292
216.22
212.169
248.943
273.989
281.662
274.246
224.133
98.9189
76.8219
60.1399
45.9143
36.6637
35.425
39.02
51.0752
75.9448
109.871
124.593
180.336
204.163
238.434
247.82
81.5902
54.4438
51.9088
45.2597
36.0217
28.3128
27.5101
31.3409
43.8678
68.0917
97.9471
107.715
179.289
209.204
250.989
272.966
42.9194
41.2938
40.7494
37.1369
30.3957
26.2752
26.8572
32.0432
45.6173
69.8702
98.6882
105.435
169.928
201.832
246.932
281.669
34.2018
34.4416
33.8219
32.0044
28.9818
27.4934
29.3931
36.801
54.4377
83.2376
113.47
9.45157
158.726
190.516
234.557
274.297
29.9485
33.025
33.9482
33.5019
32.3834
33.34
38.3138
52.1038
78.637
115.493
136.622
0.0198499
144.529
170.721
195.212
227.248
82.7273
41.6309
34.0518
29.6745
25.7571
33.6116
41.2269
44.4988
46.2523
50.1715
61.2582
84.6329
120.746
153.115
1.6306
1.78006e-11
123.445
134.971
141.33
98.4615
51.9175
40.2063
34.0859
33.1612
33.9897
39.88
56.0655
68.6244
75.7686
84.4388
102.038
133.584
166.338
8.34971
2.44211e-09
2.22045e-16
99.6389
99.9592
102.62
75.5195
49.7439
39.6221
33.357
33.9123
41.6202
56.6867
86.1923
110.997
121.294
134.028
157.167
178.484
7.31383
4.05135e-09
2.22045e-16
2.22045e-16
76.9989
73.3503
75.7053
58.9817
43.6057
36.0603
31.4317
33.3495
44.9711
69.9331
113.514
165.795
178.136
185.03
187.175
1.09241
1.50933e-09
2.22045e-16
2.22045e-16
2.22045e-16
56.9959
53.4827
55.9981
45.124
34.8485
29.509
28.3751
32.1899
46.772
77.276
124.064
181.439
203.833
12.6373
0.0124382
3.77641e-12
2.22045e-16
2.22045e-16
2.22045e-16
2.22045e-16
45.569
40.9069
43.518
36.1799
27.5411
25.6249
26.9497
33.1588
50.7634
86.1629
136.939
186.858
6.81293
1.55597e-08
2.22045e-16
2.22045e-16
2.22045e-16
2.22045e-16
2.22045e-16
2.22045e-16
45.7686
38.4999
40.8513
35.0299
26.8609
26.2471
28.8872
38.2103
62.0881
104.096
160.081
186.936
0.00635055
2.22045e-16
2.22045e-16
2.22045e-16
2.22045e-16
2.22045e-16
2.22045e-16
2.22045e-16
53.8781
42.0936
43.7584
38.6331
30.7369
31.4673
36.3841
52.237
85.8348
136.1
180.577
0.725103
1.04676e-12
2.22045e-16
2.22045e-16
2.22045e-16
2.22045e-16
2.22045e-16
2.22045e-16
2.22045e-16
76.5726
55.7777
55.1591
50.624
43.2533
45.0415
54.176
79.118
122.349
168.182
5.49984
6.04154e-10
2.22045e-16
2.22045e-16
2.22045e-16
2.22045e-16
2.22045e-16
2.22045e-16
2.22045e-16
2.22045e-16
116.726
85.5982
79.9984
75.3595
67.379
69.2894
83.144
116.236
154.328
6.69821
1.85722e-09
2.22045e-16
2.22045e-16
2.22045e-16
2.22045e-16
2.22045e-16
2.22045e-16
2.22045e-16
2.22045e-16
2.22045e-16
166.462
129.046
116.825
109.169
97.1388
98.1032
113.477
137.232
1.37614
1.19374e-09
2.22045e-16
2.22045e-16
2.22045e-16
2.22045e-16
2.22045e-16
2.22045e-16
2.22045e-16
2.22045e-16
2.22045e-16
2.22045e-16
182.073
154.163
138.034
123.845
107.466
104.809
9.4707
0.0178464
1.02629e-11
2.22045e-16
2.22045e-16
2.22045e-16
2.22045e-16
2.22045e-16
2.22045e-16
2.22045e-16
2.22045e-16
2.22045e-16
2.22045e-16
2.22045e-16
137.672
147.972
167.311
175.913
184.38
184.002
175.398
165.639
152.814
132.403
108.353
85.0598
63.6318
49.9423
49.4629
56.7604
78.5382
118.319
169.161
185.57
147.853
156.716
178.773
193.37
209.03
215.079
208.789
198.579
178.562
142.962
108.851
81.8096
60.4759
45.8124
42.1922
45.3413
58.49
87.852
132.079
158.601
167.217
178.837
202.952
219.903
243.03
256.121
253.602
241.85
199.405
145.78
109.651
84.0554
63.8007
49.3567
45.2828
47.7151
58.6429
83.1444
120.839
144.503
175.74
193.388
220.005
216.574
254.318
280.927
290.452
285.412
228.886
100.85
81.1163
66.5347
52.8314
42.1543
39.9569
43.1005
54.6258
79.3214
114.603
132.3
184.322
209.046
242.856
253.632
83.9484
56.5561
55.3582
50.4578
41.8541
32.939
31.3343
34.8193
46.8374
71.2503
102.772
115.895
184.114
215.358
256.336
281.025
44.6535
45.9484
45.7638
42.5989
35.5011
30.3416
30.6442
35.5044
48.7596
73.263
103.808
113.375
175.469
208.937
253.798
291.041
38.8941
40.7693
40.1333
37.9037
34.0856
31.7323
33.3401
40.3412
57.6599
86.9875
119.717
22.5651
165.725
198.817
242.218
285.525
36.2339
40.3104
40.8825
39.9776
37.7857
38.2169
42.5194
55.6562
82.2863
120.732
147.51
0.0790829
152.963
179.194
201.038
232.389
82.8565
43.6314
38.5389
35.8703
33.0914
40.8539
48.8803
51.7479
52.6235
55.6807
65.8712
89.1214
126.02
163.629
5.65405
7.54525e-10
132.761
143.813
147.184
102.117
56.0397
45.0365
39.6901
39.2999
40.8802
47.0917
63.8456
76.9449
83.7264
91.4592
108.37
140.034
177.875
28.1413
1.00412e-07
2.22045e-16
108.835
109.615
110.532
81.4811
54.8088
44.8752
38.9208
39.7652
48.7051
64.4002
94.7519
121.693
131.865
143.473
166.905
192.762
26.189
2.10508e-07
2.22045e-16
2.22045e-16
85.5776
82.4061
84.6797
66.6309
49.8995
41.76
36.73
38.979
51.6058
77.7775
123.241
179.597
193.472
200.501
205.268
4.48977
7.44106e-08
2.22045e-16
2.22045e-16
2.22045e-16
64.0793
60.9348
64.3023
52.9197
41.4208
34.8086
33.2576
37.1553
52.5118
84.2404
132.948
194.726
229.598
33.7626
0.063029
2.66846e-10
2.22045e-16
2.22045e-16
2.22045e-16
2.22045e-16
50.1605
46.0712
49.6956
42.2627
32.6669
29.8787
31.2245
37.7301
55.5545
91.7067
144.066
199.911
22.6119
3.38085e-07
2.20749e-15
2.22045e-16
2.22045e-16
2.22045e-16
2.22045e-16
2.22045e-16
49.5904
42.3184
45.4649
40.0217
31.0697
30.2276
32.8976
42.1876
65.8145
108.547
167.171
203.972
0.0417411
9.47875e-16
2.22045e-16
2.22045e-16
2.22045e-16
2.22045e-16
2.22045e-16
2.22045e-16
56.7658
45.4017
47.8263
43.0908
34.5043
35.1367
39.9734
55.4466
89.1674
140.35
192.335
3.57082
1.32174e-10
2.22045e-16
2.22045e-16
2.22045e-16
2.22045e-16
2.22045e-16
2.22045e-16
2.22045e-16
78.3676
58.4285
58.615
54.4633
46.3929
48.3447
57.3252
82.1592
126.139
177.861
22.946
4.88825e-08
2.22045e-16
2.22045e-16
2.22045e-16
2.22045e-16
2.22045e-16
2.22045e-16
2.22045e-16
2.22045e-16
118.013
87.6518
82.9345
78.9424
70.6303
72.7362
86.6546
120.652
163.622
26.1679
1.48565e-07
2.22045e-16
2.22045e-16
2.22045e-16
2.22045e-16
2.22045e-16
2.22045e-16
2.22045e-16
2.22045e-16
2.22045e-16
168.839
131.833
120.555
114.112
102.047
103.252
119.481
147.77
5.54135
7.96918e-08
2.22045e-16
2.22045e-16
2.22045e-16
2.22045e-16
2.22045e-16
2.22045e-16
2.22045e-16
2.22045e-16
2.22045e-16
2.22045e-16
187.23
159.306
144.316
131.823
115.203
112.806
24.648
0.083047
7.05558e-10
2.22045e-16
2.22045e-16
2.22045e-16
2.22045e-16
2.22045e-16
2.22045e-16
2.22045e-16
2.22045e-16
2.22045e-16
2.22045e-16
2.22045e-16
142.515
153.113
171.91
180.594
189.058
189.363
181.501
173.634
162.351
142.483
117.363
92.3305
68.7249
53.1911
52.2429
59.2428
80.8844
121.07
173.073
193.529
153.077
161.747
182.5
196.931
212.635
219.451
214.074
205.811
187.03
152.543
118.568
89.7179
65.8774
49.1958
44.8092
47.7933
60.8935
90.5256
135.722
164.368
171.892
182.539
205.105
220.791
244.065
257.597
256.191
245.573
204.407
153.055
118.328
92.1626
69.9113
53.286
48.2236
50.4998
61.4039
86.1687
124.79
149.28
180.543
196.89
220.429
216.819
254.035
281.214
292.672
289.911
235.354
104.499
87.4911
73.5494
58.5981
45.8913
42.8073
45.8129
57.4429
82.5958
118.976
137.17
189.004
212.522
243.379
252.972
84.419
60.5734
60.1321
55.5775
46.1701
35.7627
33.533
36.9439
49.1229
74.1657
106.841
120.414
189.421
219.594
257.462
280.67
48.9292
50.4748
50.2685
46.6993
38.4832
32.2972
32.5192
37.4911
51.1275
76.3697
108.089
117.926
181.529
214.153
256.223
292.772
46.0545
44.4201
43.064
40.3267
36.137
33.5699
35.2037
42.4282
60.3534
90.7217
124.918
27.0209
173.612
205.84
245.726
290.082
42.3566
42.677
43.234
42.2003
39.7898
40.1711
44.6468
58.3708
86.0542
126.104
154.821
0.104234
162.465
187.473
205.293
236.199
83.6449
48.6584
44.8281
40.7855
36.1058
42.6695
51.0578
54.2323
55.133
58.3408
69.0902
93.4453
131.857
171.512
7.22416
1.46398e-09
142.798
153.34
154.271
105.873
60.9464
50.4433
43.9401
42.1964
43.0413
48.8701
66.4917
80.4859
87.8259
96.0192
113.733
146.688
186.671
35.7844
1.95253e-07
2.22045e-16
117.81
119.399
119.42
88.409
60.425
50.2406
42.738
42.9257
51.2302
66.8697
98.4116
127.455
138.557
150.569
175.051
202.89
33.7372
4.61717e-07
2.22045e-16
2.22045e-16
92.8225
90.3933
93.021
74.1355
55.7267
46.6286
40.1218
41.9905
54.2752
80.838
127.829
187.266
203.091
210.412
215.565
5.91615
1.50334e-07
2.22045e-16
2.22045e-16
2.22045e-16
69.1427
66.3612
70.5331
58.9534
46.2039
38.4029
36.0671
39.7438
55.1628
87.864
138.525
202.987
240.587
39.7221
0.0849023
5.65881e-10
2.22045e-16
2.22045e-16
2.22045e-16
2.22045e-16
53.408
49.4634
53.6668
46.0987
35.7561
32.2591
33.5378
40.1447
58.3283
95.8335
150.251
209.474
33.1641
6.36482e-07
3.83858e-15
2.22045e-16
2.22045e-16
2.22045e-16
2.22045e-16
2.22045e-16
52.362
44.9412
48.4323
42.9271
33.4874
32.4622
35.1488
44.5965
68.9546
113.395
174.541
214.478
0.0735305
2.88121e-15
2.22045e-16
2.22045e-16
2.22045e-16
2.22045e-16
2.22045e-16
2.22045e-16
59.2585
47.8627
50.6414
45.8813
36.8556
37.39
42.3112
58.1704
93.1205
146.278
202.258
5.7015
5.1342e-10
2.22045e-16
2.22045e-16
2.22045e-16
2.22045e-16
2.22045e-16
2.22045e-16
2.22045e-16
80.7334
60.8623
61.4384
57.4192
48.9394
50.9261
60.0863
85.6631
131.377
186.287
34.6682
1.65525e-07
2.22045e-16
2.22045e-16
2.22045e-16
2.22045e-16
2.22045e-16
2.22045e-16
2.22045e-16
2.22045e-16
120.784
90.3694
86.0745
82.4463
73.8609
76.0429
90.3307
125.639
171.223
38.5575
5.69886e-07
2.22045e-16
2.22045e-16
2.22045e-16
2.22045e-16
2.22045e-16
2.22045e-16
2.22045e-16
2.22045e-16
2.22045e-16
172.83
135.549
124.689
118.832
106.563
107.826
124.681
154.697
8.16155
2.50436e-07
2.22045e-16
2.22045e-16
2.22045e-16
2.22045e-16
2.22045e-16
2.22045e-16
2.22045e-16
2.22045e-16
2.22045e-16
2.22045e-16
193.409
164.333
149.326
138.406
120.299
117.682
31.5078
0.125201
2.15512e-09
2.22045e-16
2.22045e-16
2.22045e-16
2.22045e-16
2.22045e-16
2.22045e-16
2.22045e-16
2.22045e-16
2.22045e-16
2.22045e-16
2.22045e-16
142.535
153.136
171.925
180.618
189.154
189.417
181.565
173.666
162.328
142.412
117.297
92.2971
68.7153
53.2016
52.2589
59.2694
80.9308
121.143
173.176
193.644
153.088
161.757
182.517
196.934
212.819
219.54
214.169
205.781
186.878
152.451
118.551
89.7267
65.8982
49.224
44.838
47.8261
60.9395
90.5951
135.82
164.479
171.885
182.513
205.119
220.78
244.435
257.862
256.302
245.428
204.164
153.052
118.457
92.3162
70.0338
53.3628
48.274
50.5454
61.4483
86.2259
124.872
149.383
180.524
196.853
220.475
213.66
251.957
278.297
289.075
285.721
231.247
104.912
88.027
74.001
58.913
46.0588
42.8984
45.8824
57.4862
82.6284
119.027
137.259
188.889
212.332
243.097
249.641
79.5583
60.9508
60.539
55.9953
46.5373
36.0035
33.6776
37.0538
49.1805
74.1992
106.905
120.524
189.368
219.482
257.197
276.38
52.0587
50.5863
50.4205
46.9289
38.7559
32.4894
32.6765
37.5975
51.1956
76.4414
108.18
118.03
181.505
214.095
256.1
288.874
46.2329
44.1789
43.1437
40.5142
36.3396
33.741
35.3547
42.5419
60.4562
90.8515
125.026
26.6163
173.574
205.777
245.763
285.882
40.9462
42.4586
43.3145
42.3411
39.9644
40.3378
44.8047
58.5214
86.2186
126.248
154.852
0.100661
162.475
187.613
205.649
235.603
80.3672
51.8975
46.6279
41.3934
35.7068
42.6786
51.1825
54.3693
55.289
58.5314
69.3112
93.6703
132.042
171.532
6.96688
1.30644e-09
142.83
153.459
154.48
105.493
60.106
50.3359
44.1629
42.6339
43.2074
48.9891
66.6062
80.6675
88.0421
96.2934
114.029
146.934
186.71
34.4463
1.72818e-07
2.22045e-16
117.824
119.438
119.476
88.3278
59.9031
50.1292
42.9485
43.2265
51.5155
67.0755
98.579
127.603
138.857
150.964
175.355
202.842
32.2883
3.99266e-07
2.22045e-16
2.22045e-16
92.8037
90.3726
92.9999
74.1934
55.6071
46.5742
40.2243
42.1899
54.5127
81.0761
128.103
187.375
203.504
210.848
215.754
5.61655
1.30674e-07
2.22045e-16
2.22045e-16
2.22045e-16
69.1105
66.3153
70.4787
59.0221
46.2694
38.4081
36.0977
39.8326
55.3276
88.0641
138.734
203.23
241.106
38.6971
0.080289
4.80976e-10
2.22045e-16
2.22045e-16
2.22045e-16
2.22045e-16
53.3882
49.4251
53.616
46.1165
35.8128
32.2944
33.5756
40.2228
58.4398
95.9619
150.344
209.654
33.2003
6.03419e-07
3.41101e-15
2.22045e-16
2.22045e-16
2.22045e-16
2.22045e-16
2.22045e-16
52.3519
44.9139
48.3953
42.9132
33.5096
32.4993
35.1908
44.6557
69.0132
113.422
174.533
214.499
0.0731454
2.84859e-15
2.22045e-16
2.22045e-16
2.22045e-16
2.22045e-16
2.22045e-16
2.22045e-16
59.2606
47.8418
50.6081
45.8629
36.8821
37.4344
42.3664
58.2284
93.1355
146.221
202.129
5.63683
4.95645e-10
2.22045e-16
2.22045e-16
2.22045e-16
2.22045e-16
2.22045e-16
2.22045e-16
2.22045e-16
80.7561
60.8548
61.4139
57.4055
48.989
50.9953
60.1649
85.7114
131.342
186.099
34.0929
1.57137e-07
2.22045e-16
2.22045e-16
2.22045e-16
2.22045e-16
2.22045e-16
2.22045e-16
2.22045e-16
2.22045e-16
120.826
90.3789
86.0605
82.4495
73.9421
76.1303
90.4
125.632
171.035
37.6703
5.30321e-07
2.22045e-16
2.22045e-16
2.22045e-16
2.22045e-16
2.22045e-16
2.22045e-16
2.22045e-16
2.22045e-16
2.22045e-16
172.881
135.572
124.68
118.855
106.662
107.89
124.659
154.549
7.91248
2.32705e-07
2.22045e-16
2.22045e-16
2.22045e-16
2.22045e-16
2.22045e-16
2.22045e-16
2.22045e-16
2.22045e-16
2.22045e-16
2.22045e-16
193.443
164.343
149.319
138.446
120.389
117.735
30.643
0.12034
1.95949e-09
2.22045e-16
2.22045e-16
2.22045e-16
2.22045e-16
2.22045e-16
2.22045e-16
2.22045e-16
2.22045e-16
2.22045e-16
2.22045e-16
2.22045e-16
137.684
147.972
167.337
175.978
184.539
184.114
175.507
165.75
152.795
132.265
108.198
84.9481
63.5906
49.9727
49.5123
56.84
78.6724
118.517
169.42
185.847
147.864
156.722
178.834
193.517
209.337
215.218
208.915
198.672
178.236
142.543
108.562
81.6793
60.456
45.8616
42.2678
45.4297
58.6079
88.0187
132.296
158.833
167.191
178.785
202.976
220.202
243.763
256.566
253.797
241.727
198.584
145.111
109.28
83.9159
63.8032
49.4188
45.3535
47.7914
58.7292
83.2514
120.967
144.635
175.704
193.283
219.733
218.611
256.783
284.054
293.979
290.503
233.886
100.544
81.0333
66.5781
52.9705
42.2827
40.0397
43.1618
54.6475
79.3075
114.56
132.254
184.171
208.814
242.241
253.662
82.8729
56.8072
55.5596
50.6185
42.0777
33.1408
31.4636
34.9044
46.8348
71.1881
102.681
115.803
184.03
215.253
255.944
281.446
47.752
45.8681
45.7316
42.6917
35.6922
30.4761
30.7614
35.5925
48.816
73.3436
103.903
113.468
175.395
208.868
253.675
293.681
44.0554
40.7748
40.0579
37.8403
34.1536
31.8513
33.4625
40.4652
57.8503
87.3082
120.039
21.0002
165.739
198.783
241.996
290.656
41.4491
40.4583
40.7749
39.9324
37.864
38.3189
42.6706
55.9187
82.7226
121.303
147.319
0.0679094
152.953
178.738
199.592
234.974
82.6715
47.1347
43.3621
40.3816
35.5371
41.4943
49.3195
51.9895
52.7878
55.8431
66.1658
89.6173
126.727
163.913
4.8755
4.73305e-10
132.603
143.214
146.071
101.439
56.7567
45.5497
40.2241
39.706
40.9006
47.6046
64.7088
77.5745
84.0788
91.7776
108.843
140.778
178.396
24.3426
6.29564e-08
2.22045e-16
108.608
109.159
109.98
81.452
55.5103
45.4447
39.4862
40.1923
48.7345
64.4374
95.0857
122.275
132.413
144.033
167.546
193.14
22.4999
1.23431e-07
2.22045e-16
2.22045e-16
85.3416
82.1161
84.4118
66.8013
50.5377
42.4029
37.3333
39.4471
51.7166
77.5587
122.606
179.087
194.109
200.979
205.482
3.77746
4.56838e-08
2.22045e-16
2.22045e-16
2.22045e-16
63.8848
60.7377
64.1367
53.0952
41.9584
35.4181
33.8107
37.5816
52.6803
84.1266
132.619
194.341
230.209
29.5899
0.0512634
1.54924e-10
2.22045e-16
2.22045e-16
2.22045e-16
2.22045e-16
50.0756
45.9729
49.5856
42.3464
33.041
30.2985
31.6451
38.1068
55.7764
91.7924
144.079
200.589
26.1857
2.9163e-07
1.43182e-15
2.22045e-16
2.22045e-16
2.22045e-16
2.22045e-16
2.22045e-16
49.5488
42.2761
45.4101
40.0697
31.364
30.5974
33.2754
42.5038
66.0424
108.722
167.388
204.898
0.0477154
1.24243e-15
2.22045e-16
2.22045e-16
2.22045e-16
2.22045e-16
2.22045e-16
2.22045e-16
56.7902
45.3947
47.8013
43.1535
34.7833
35.4392
40.286
55.7183
89.3736
140.514
192.785
3.80001
1.59329e-10
2.22045e-16
2.22045e-16
2.22045e-16
2.22045e-16
2.22045e-16
2.22045e-16
2.22045e-16
78.494
58.493
58.6561
54.5643
46.6649
48.6282
57.6203
82.4255
126.352
178.115
23.5593
5.30405e-08
2.22045e-16
2.22045e-16
2.22045e-16
2.22045e-16
2.22045e-16
2.22045e-16
2.22045e-16
2.22045e-16
118.226
87.7985
83.0633
79.1138
70.9474
73.0722
86.9877
120.94
163.846
26.2196
1.54837e-07
2.22045e-16
2.22045e-16
2.22045e-16
2.22045e-16
2.22045e-16
2.22045e-16
2.22045e-16
2.22045e-16
2.22045e-16
169.097
132.027
120.731
114.331
102.424
103.627
119.789
147.592
5.41761
7.99946e-08
2.22045e-16
2.22045e-16
2.22045e-16
2.22045e-16
2.22045e-16
2.22045e-16
2.22045e-16
2.22045e-16
2.22045e-16
2.22045e-16
186.392
159.081
144.464
132.058
115.58
113.183
23.422
0.0786267
6.57399e-10
2.22045e-16
2.22045e-16
2.22045e-16
2.22045e-16
2.22045e-16
2.22045e-16
2.22045e-16
2.22045e-16
2.22045e-16
2.22045e-16
2.22045e-16
133.639
143.695
163.97
172.47
180.602
179.325
169.981
158.783
144.351
122.941
99.04
76.5094
56.6898
45.5305
45.8005
54.0438
76.9326
117.274
167.126
182.636
143.54
151.355
175.157
189.575
204.439
209.041
201.799
190.406
169.765
133.645
99.0323
72.8315
53.2354
40.9029
38.6032
42.2572
56.0747
86.0657
129.626
154.618
163.786
175.142
199.842
216.748
239.414
251.175
246.912
233.916
192.456
139.065
101.457
75.2271
55.8333
43.5406
40.9555
43.9187
55.4437
80.4598
117.39
138.591
172.119
189.318
216.194
215.266
252.348
278.467
286.402
280.076
225.189
97.4974
75.4791
59.22
45.407
36.4039
35.2346
38.8736
50.9749
75.8846
109.79
124.476
180.243
204.063
238.108
249.679
81.2869
53.8102
51.1213
44.5565
35.5944
28.0448
27.2911
31.1513
43.7112
67.9676
97.8098
106.811
179.25
209.253
250.897
276.486
44.0456
40.8935
40.3894
36.9066
30.2561
26.0755
26.6682
31.8752
45.5099
69.897
98.7311
102.506
169.875
201.847
246.985
286.591
37.2786
34.4679
33.8613
32.0452
28.9306
27.3573
29.2814
36.7544
54.5952
83.6497
113.866
8.25614
158.752
190.457
234.273
280.292
34.1387
33.1013
34.073
33.6154
32.4345
33.3778
38.4039
52.4185
79.3027
116.376
137.184
0.0154652
144.509
170.323
193.794
229.39
82.3089
44.3438
37.7659
34.6355
30.1234
33.8145
41.4658
44.7731
46.5432
50.5291
61.8307
85.545
122.026
153.969
1.28407
8.32769e-12
123.281
134.391
140.243
97.8255
53.0717
40.8414
34.4687
33.3801
34.3301
40.3215
56.5361
69.1704
76.4188
85.3104
103.225
135.156
167.499
6.63489
1.16605e-09
2.22045e-16
99.4347
99.5882
102.153
75.5783
50.5778
40.2406
33.7834
34.1777
41.864
56.9315
86.3728
111.806
122.418
135.458
158.824
179.811
5.81619
1.93909e-09
2.22045e-16
2.22045e-16
76.8349
73.1817
75.5779
59.2753
44.1961
36.6442
31.8562
33.6294
45.041
69.6547
112.525
165.411
179.59
186.203
186.379
0.849678
7.23418e-10
2.22045e-16
2.22045e-16
2.22045e-16
56.9006
53.4273
55.9935
45.417
35.3336
29.9709
28.7227
32.4098
46.7578
76.8629
123.148
180.36
204.687
10.3513
0.00913071
1.70607e-12
2.22045e-16
2.22045e-16
2.22045e-16
2.22045e-16
45.5867
40.9502
43.5766
36.3795
27.875
25.9035
27.2194
33.3586
50.7218
85.7731
136.186
186.611
8.71557
1.14703e-08
2.22045e-16
2.22045e-16
2.22045e-16
2.22045e-16
2.22045e-16
2.22045e-16
45.8193
38.5885
40.9387
35.1958
27.1559
26.526
29.1674
38.3978
62.0487
103.741
159.52
186.757
0.00780366
2.22045e-16
2.22045e-16
2.22045e-16
2.22045e-16
2.22045e-16
2.22045e-16
2.22045e-16
53.9966
42.2129
43.8758
38.8107
31.035
31.7723
36.6832
52.4499
85.8225
135.734
180.304
0.791035
1.36052e-12
2.22045e-16
2.22045e-16
2.22045e-16
2.22045e-16
2.22045e-16
2.22045e-16
2.22045e-16
76.7951
55.9671
55.3429
50.8573
43.6008
45.4213
54.553
79.3929
122.358
167.982
5.65898
6.58886e-10
2.22045e-16
2.22045e-16
2.22045e-16
2.22045e-16
2.22045e-16
2.22045e-16
2.22045e-16
2.22045e-16
117.055
85.887
80.2878
75.705
67.8419
69.8037
83.6365
116.547
154.357
6.64255
1.87243e-09
2.22045e-16
2.22045e-16
2.22045e-16
2.22045e-16
2.22045e-16
2.22045e-16
2.22045e-16
2.22045e-16
2.22045e-16
166.849
129.397
117.178
109.587
97.6904
98.682
113.954
137.455
1.31805
1.16056e-09
2.22045e-16
2.22045e-16
2.22045e-16
2.22045e-16
2.22045e-16
2.22045e-16
2.22045e-16
2.22045e-16
2.22045e-16
2.22045e-16
182.465
154.486
138.373
124.261
107.752
105.416
8.71505
0.0163492
8.95097e-12
2.22045e-16
2.22045e-16
2.22045e-16
2.22045e-16
2.22045e-16
2.22045e-16
2.22045e-16
2.22045e-16
2.22045e-16
2.22045e-16
2.22045e-16
134.035
145.136
166.153
174.4
181.981
180.187
170.415
159.107
144.51
123.376
99.3252
75.9675
55.6562
45.6892
46.6161
56.4285
82.1431
125.507
176.488
139.209
145.009
153.004
175.981
188.786
201.878
204.824
197.052
185.872
166.705
132.49
98.4801
71.9373
51.9588
40.4147
38.923
43.3692
58.9349
91.6049
136.677
157.921
166.002
175.98
199.163
214.874
236.12
246.785
241.387
228.624
191.208
139.073
100.474
72.9393
52.9028
41.4587
39.8986
43.8282
57.1582
84.6444
122.651
140.117
174.043
188.512
214.331
212.837
248.518
272.785
279.964
271.451
225.137
98.9519
74.0419
55.4158
40.501
32.598
32.2812
36.9983
51.0349
78.1861
112.207
122.084
181.661
201.684
235.194
246.356
82.6534
53.2976
48.7764
40.4328
30.629
24.3423
24.3988
29.2962
43.7585
69.8406
99.0189
75.1796
180.137
205.199
246.787
271.279
41.721
38.8226
37.516
32.6905
25.5075
22.453
23.7089
29.9193
45.6226
72.1014
99.9546
20.1247
170.34
197.216
241.645
280.354
33.8977
31.5821
30.4342
27.9734
24.543
23.8059
26.286
35.5242
56.606
88.1898
115.656
0.89279
159.184
186.065
228.914
271.981
29.4777
30.2376
30.9575
29.8862
28.5327
29.9093
36.6248
54.5108
85.4466
123.145
134.412
0.000390724
144.651
166.737
191.12
222.642
82.2168
40.9946
33.5185
29.1638
24.0364
30.5482
37.787
40.7313
42.93
48.6849
64.2448
92.5128
132.053
154.857
0.0534691
1.69892e-15
123.516
132.508
138.959
99.1393
53.5381
38.8884
31.5611
29.9558
30.5816
36.1325
52.2326
65.2368
74.6553
87.4562
110.09
145.576
169.267
0.314445
8.53916e-14
2.22045e-16
99.4042
98.5331
100.463
74.2477
49.0632
37.6599
30.4915
30.8725
37.8834
52.578
83.7933
110.787
123.517
140.749
165.325
177.72
0.246966
1.28025e-13
2.22045e-16
2.22045e-16
75.9984
71.9797
72.994
55.5792
40.6689
32.8901
28.0936
29.9272
40.9792
65.9159
111.514
166.661
178.015
183.136
163.831
0.0245358
3.89382e-14
2.22045e-16
2.22045e-16
2.22045e-16
55.6489
51.9691
52.9497
40.5748
30.7622
25.658
24.6612
28.6963
43.3454
75.5632
124.694
179.251
95.7842
0.806739
5.02056e-05
3.59516e-16
2.22045e-16
2.22045e-16
2.22045e-16
2.22045e-16
45.6637
40.3844
41.4616
32.6095
24.4239
22.5623
23.9319
30.141
49.2749
88.4879
142.107
184.154
0.741175
4.68904e-12
2.22045e-16
2.22045e-16
2.22045e-16
2.22045e-16
2.22045e-16
2.22045e-16
46.5913
38.8851
39.8786
32.2844
24.4741
23.8161
26.4515
36.9816
64.9595
111.175
166.591
155.135
4.07277e-05
2.22045e-16
2.22045e-16
2.22045e-16
2.22045e-16