/*--------------------------------*- C++ -*----------------------------------*\
  =========                 |
  \\      /  F ield         | OpenFOAM: The Open Source CFD Toolbox
   \\    /   O peration     | Website:  https://openfoam.org
    \\  /    A nd           | Version:  9
     \\/     M anipulation  |
\*---------------------------------------------------------------------------*/
FoamFile
{
    format      ascii;
    class       volScalarField;
    location    "0.001";
    object      rho.Air;
}
// * * * * * * * * * * * * * * * * * * * * * * * * * * * * * * * * * * * * * //

dimensions      [1 -3 0 0 0 0 0];

internalField   nonuniform List<scalar> 
9720
(
0.0927144
0.0926032
0.113607
0.119165
0.12456
0.123369
0.116045
0.108342
0.0986308
0.0847849
0.0667366
0.0486457
0.0415334
0.0427623
0.0688653
0.300417
1.65733
3.96434
3.35557
1.42445
0.0925376
0.094272
0.126804
0.138466
0.148243
0.148813
0.138812
0.126048
0.112917
0.0895337
0.0637583
0.0405561
0.0304923
0.030179
0.036777
0.121081
0.864722
3.349
3.56636
1.61397
0.11343
0.126314
0.166975
0.182194
0.201959
0.212074
0.210294
0.198202
0.159816
0.114354
0.0764866
0.0442234
0.0327198
0.0326039
0.0394009
0.124743
0.84628
3.25622
3.49602
1.60079
0.118936
0.137908
0.181717
0.182675
0.21506
0.235337
0.239773
0.225421
0.19345
0.0860939
0.0588539
0.0316697
0.0247472
0.0250984
0.0346263
0.146385
1.08274
3.5466
3.3236
1.45809
0.124286
0.147898
0.201266
0.215634
0.0772475
0.0353559
0.0306237
0.0187963
0.0152617
0.0160369
0.0299982
0.190041
1.46627
3.79341
3.01698
1.35246
0.123186
0.148511
0.211394
0.234645
0.0351991
0.0147236
0.0124996
0.0111759
0.0112288
0.0134512
0.0372218
0.295308
1.99858
3.92219
2.65054
1.28574
0.115907
0.138417
0.209803
0.238821
0.0137314
0.0114182
0.0114602
0.0112845
0.0118295
0.0184123
0.085327
0.673362
3.02425
3.89365
2.00497
1.23563
0.108399
0.126107
0.197955
0.224637
0.0121128
0.0135605
0.0161622
0.020458
0.0318875
0.0858338
0.4295
2.11958
4.18193
3.15673
1.34479
1.22515
0.0987512
0.113029
0.158565
0.18889
0.0745089
0.035597
0.0149116
0.0134276
0.0260188
0.0839192
0.205703
0.27784
0.370919
0.757647
2.23475
4.2104
3.80451
1.55726
1.22623
1.225
0.084871
0.0893371
0.113671
0.0831527
0.0345278
0.015232
0.0124573
0.014211
0.0739166
0.417436
1.18236
1.76867
2.33025
3.31561
4.27374
3.75331
1.64246
1.22772
1.225
1.225
0.066742
0.0635013
0.0757485
0.0571764
0.0298281
0.0132343
0.0123263
0.0154801
0.165971
1.06949
3.80744
4.88566
4.48492
4.00393
2.96952
1.49901
1.22732
1.225
1.225
1.225
0.048623
0.0403803
0.0437004
0.0310912
0.0185896
0.0118032
0.0119176
0.0186061
0.225567
1.59862
4.74736
4.91819
3.06087
1.87481
1.3016
1.22575
1.225
1.225
1.225
1.225
0.0415556
0.0304967
0.0326376
0.0247056
0.0153907
0.0118026
0.0123512
0.0288871
0.319623
2.18795
4.43955
3.10698
1.36925
1.23091
1.22506
1.225
1.225
1.225
1.225
1.225
0.0428068
0.0302053
0.0325581
0.0250943
0.0162151
0.013948
0.0186748
0.0808122
0.713044
3.2623
4.03962
1.92088
1.23196
1.225
1.225
1.225
1.225
1.225
1.225
1.225
0.0691405
0.036905
0.0394716
0.034756
0.0303003
0.0375168
0.0844705
0.41896
2.20186
4.28235
3.023
1.30885
1.22507
1.225
1.225
1.225
1.225
1.225
1.225
1.225
0.302477
0.122097
0.125666
0.147267
0.190383
0.293709
0.666773
2.10006
4.20619
3.78593
1.51386
1.22584
1.225
1.225
1.225
1.225
1.225
1.225
1.225
1.225
1.66624
0.871135
0.851546
1.08594
1.46329
1.98905
3.0133
4.17703
3.82145
1.65707
1.22754
1.225
1.225
1.225
1.225
1.225
1.225
1.225
1.225
1.225
3.97011
3.35729
3.26371
3.54958
3.79185
3.91966
3.89416
3.16743
1.56595
1.22792
1.225
1.225
1.225
1.225
1.225
1.225
1.225
1.225
1.225
1.225
3.35105
3.56461
3.49703
3.32651
3.02147
2.65455
2.00989
1.3473
1.22631
1.225
1.225
1.225
1.225
1.225
1.225
1.225
1.225
1.225
1.225
1.225
1.42242
1.61115
1.59948
1.45877
1.35348
1.28628
1.23581
1.22515
1.225
1.225
1.225
1.225
1.225
1.225
1.225
1.225
1.225
1.225
1.225
1.225
0.0920041
0.091009
0.110593
0.115259
0.120291
0.118869
0.111934
0.104794
0.0953524
0.0817717
0.064553
0.0475643
0.0407304
0.0415712
0.0626012
0.255133
1.45621
3.85483
3.49016
1.48238
0.0909205
0.0898805
0.117059
0.12142
0.125919
0.124274
0.115593
0.105942
0.0934919
0.0764468
0.0570388
0.0377683
0.0290911
0.0287795
0.0337926
0.100733
0.721315
3.15003
3.655
1.70641
0.110359
0.11591
0.15951
0.164682
0.165497
0.16445
0.154581
0.140915
0.116319
0.0864867
0.060577
0.037432
0.0298282
0.0298538
0.0351912
0.102839
0.70458
3.05477
3.5886
1.6967
0.115007
0.120499
0.162753
0.135345
0.160064
0.152904
0.14803
0.130693
0.0867016
0.0308571
0.0276828
0.0214487
0.0205474
0.0211398
0.0286881
0.114775
0.880205
3.35673
3.44429
1.54164
0.120006
0.125662
0.164913
0.152907
0.00383265
0.00569168
0.00851409
0.00937983
0.0102982
0.01193
0.0231057
0.142102
1.17444
3.62491
3.20625
1.41536
0.118725
0.124153
0.164223
0.148773
0.00464851
0.0071965
0.00852645
0.00898251
0.0093438
0.0110841
0.0269462
0.202757
1.54717
3.7735
2.92128
1.33453
0.111862
0.11561
0.155149
0.146029
0.00813017
0.00952763
0.00952076
0.00951025
0.00988446
0.0136975
0.0528683
0.42953
2.41162
3.90592
2.33248
1.25286
0.104831
0.106106
0.141647
0.134637
0.0108028
0.0121354
0.0123629
0.013675
0.0187647
0.0465787
0.24315
1.43886
3.84149
3.54812
1.49838
1.22583
0.095501
0.0936991
0.116609
0.0827078
0.00461086
0.00552124
0.0087163
0.0110591
0.0122235
0.0251925
0.0684256
0.118351
0.188121
0.431027
1.4909
3.76151
4.07799
1.91888
1.23155
1.225
0.0819659
0.0766809
0.0868822
0.0304039
0.00587458
0.00739368
0.00966083
0.0120224
0.0241868
0.131839
0.497002
0.9605
1.51914
2.584
4.01005
4.10599
2.09077
1.23939
1.225
1.225
0.0647239
0.0572019
0.0607143
0.0271521
0.00828685
0.00846601
0.00962628
0.0120752
0.0635432
0.491849
2.36167
4.06998
4.29557
4.23349
3.54992
1.84972
1.23787
1.225
1.225
1.225
0.0476743
0.0378066
0.0373603
0.0210348
0.00903547
0.00894538
0.00957005
0.0132487
0.113353
0.974823
4.15614
5.32082
3.90275
2.40866
1.4418
1.22959
1.225
1.225
1.225
1.225
0.0407762
0.0290924
0.0298182
0.0203206
0.0100136
0.0093605
0.00993112
0.0183786
0.187861
1.57122
4.3745
3.90175
1.65774
1.25182
1.22546
1.225
1.225
1.225
1.225
1.225
0.0416096
0.0287759
0.0298464
0.0209393
0.0117181
0.0110835
0.0136448
0.0465227
0.443601
2.66845
4.26533
2.3725
1.24951
1.22501
1.225
1.225
1.225
1.225
1.225
1.225
0.0626685
0.0337723
0.035163
0.0284845
0.0228597
0.0266587
0.0523745
0.245285
1.53179
4.05704
3.52464
1.4279
1.22541
1.225
1.225
1.225
1.225
1.225
1.225
1.225
0.255652
0.100677
0.102639
0.113987
0.140581
0.200159
0.427018
1.45268
3.80029
4.10891
1.82597
1.22918
1.225
1.225
1.225
1.225
1.225
1.225
1.225
1.225
1.45943
0.721496
0.703547
0.875323
1.16375
1.53459
2.4097
3.85924
4.08484
2.06882
1.23697
1.225
1.225
1.225
1.225
1.225
1.225
1.225
1.225
1.225
3.85868
3.15192
3.05491
3.35275
3.61709
3.76937
3.91059
3.55133
1.9072
1.23861
1.225
1.225
1.225
1.225
1.225
1.225
1.225
1.225
1.225
1.225
3.49008
3.65604
3.59232
3.44949
3.21482
2.92965
2.33606
1.49595
1.23129
1.225
1.225
1.225
1.225
1.225
1.225
1.225
1.225
1.225
1.225
1.225
1.48165
1.70623
1.69815
1.54484
1.41875
1.33625
1.253
1.22581
1.225
1.225
1.225
1.225
1.225
1.225
1.225
1.225
1.225
1.225
1.225
1.225
0.0898213
0.0876739
0.105164
0.10956
0.114549
0.113286
0.106643
0.0997248
0.0907048
0.0779479
0.0619823
0.04607
0.0394601
0.0400121
0.0565029
0.210175
1.22665
3.6481
3.58748
1.56439
0.0875819
0.081878
0.0985161
0.0997833
0.103916
0.104001
0.0985083
0.0921406
0.0824885
0.0689959
0.0527263
0.0354186
0.0277725
0.027542
0.0313936
0.0834161
0.579313
2.85082
3.71359
1.82084
0.104937
0.098105
0.122711
0.122382
0.120359
0.119684
0.114235
0.106159
0.0919489
0.0715196
0.0528955
0.0341961
0.0288046
0.0289638
0.0333033
0.0861442
0.566894
2.75577
3.66013
1.82085
0.109274
0.0993289
0.121104
0.044555
0.0382939
0.0164788
0.0305362
0.00313501
0.0125483
0.0103454
0.0174566
0.0184016
0.0192317
0.0205072
0.0272892
0.0953093
0.700757
3.07809
3.57082
1.6719
0.11432
0.103788
0.120179
2.22045e-16
0.000526727
0.00425291
0.00629262
0.00815607
0.00969903
0.0116894
0.0209493
0.110122
0.89974
3.34284
3.39983
1.53762
0.113215
0.104052
0.119913
0.0299927
0.00567571
0.0079122
0.00839358
0.00906873
0.00983589
0.0115558
0.0233933
0.147471
1.15744
3.50496
3.20717
1.43429
0.106645
0.0986218
0.114646
0.0324258
0.00920518
0.0107237
0.0105178
0.0103923
0.0107258
0.0134515
0.0394707
0.283726
1.8068
3.77794
2.72526
1.2969
0.0997759
0.092284
0.106574
0.00309742
0.0110349
0.013698
0.013309
0.0136807
0.0163998
0.0327865
0.148313
0.924147
3.30004
3.78114
1.79429
1.2294
0.090927
0.0828949
0.0923806
0.000733029
0.000443617
0.00431918
0.00837967
0.0102882
0.0128646
0.0196255
0.0410376
0.0735618
0.119261
0.263248
0.933634
3.02421
4.1701
2.44189
1.25452
1.22501
0.078259
0.0694341
0.0726188
0.0100969
0.0030892
0.00659969
0.00953774
0.0128771
0.0197997
0.0711642
0.284994
0.618863
1.03225
1.85934
3.45981
4.2331
2.71223
1.28708
1.22504
1.225
0.0622766
0.0530388
0.0534707
0.0166412
0.00500131
0.00714819
0.00936945
0.0124517
0.0449721
0.316607
1.64917
3.29025
3.91308
4.14787
3.94052
2.3857
1.28285
1.22506
1.225
1.225
0.0462547
0.0355061
0.0340917
0.0175537
0.00696632
0.00792642
0.00932244
0.0129892
0.0864687
0.722899
3.58183
5.53771
4.50727
3.01564
1.75033
1.24845
1.22503
1.225
1.225
1.225
0.0394772
0.0277029
0.0285641
0.0184648
0.0086342
0.00879254
0.00971314
0.0163577
0.141618
1.18848
4.15742
4.53191
2.19411
1.31778
1.2282
1.225
1.225
1.225
1.225
1.225
0.0399984
0.0274489
0.0287262
0.0198005
0.0106784
0.0105498
0.0125125
0.0341897
0.297208
2.02682
4.23991
2.91679
1.30139
1.22515
1.225
1.225
1.225
1.225
1.225
1.225
0.0562967
0.0312063
0.0329679
0.0264855
0.0197711
0.0221487
0.0384488
0.153435
0.99276
3.56047
3.89175
1.6858
1.22735
1.225
1.225
1.225
1.225
1.225
1.225
1.225
0.208626
0.0823733
0.0847903
0.092976
0.106826
0.143629
0.281539
0.943051
3.09758
4.236
2.30801
1.24426
1.225
1.225
1.225
1.225
1.225
1.225
1.225
1.225
1.21948
0.572403
0.559014
0.688595
0.883151
1.14128
1.80424
3.3321
4.18331
2.65462
1.27541
1.22502
1.225
1.225
1.225
1.225
1.225
1.225
1.225
1.225
3.64166
2.83723
2.73945
3.05925
3.32486
3.495
3.78263
3.78589
2.41035
1.28096
1.22504
1.225
1.225
1.225
1.225
1.225
1.225
1.225
1.225
1.225
3.58903
3.71371
3.662
3.57257
3.40355
3.21344
2.72755
1.78417
1.25228
1.22503
1.225
1.225
1.225
1.225
1.225
1.225
1.225
1.225
1.225
1.225
1.56659
1.82441
1.82574
1.67759
1.54407
1.43771
1.2968
1.22918
1.22501
1.225
1.225
1.225
1.225
1.225
1.225
1.225
1.225
1.225
1.225
1.225
0.0910126
0.0882356
0.104901
0.109315
0.114451
0.113623
0.107402
0.101388
0.093334
0.0815424
0.0662468
0.0498323
0.0424912
0.0429571
0.0582922
0.20161
1.15913
3.61179
3.69845
1.63114
0.0881646
0.0800087
0.0932158
0.0946834
0.100033
0.101301
0.0969488
0.0919108
0.0834856
0.071404
0.0562039
0.0385397
0.0302729
0.030086
0.0337954
0.0828885
0.545533
2.76614
3.81564
1.90989
0.104779
0.0932708
0.108433
0.107514
0.111054
0.113445
0.110217
0.104099
0.0909668
0.071865
0.0551903
0.0364949
0.0311777
0.031488
0.0359027
0.0863222
0.53796
2.67927
3.77165
1.91511
0.109111
0.0946668
0.107862
0.0311902
0.00550351
0.00388142
0.0333702
0.00269511
0.0169068
0.00929066
0.0169717
0.0188391
0.0203199
0.0221339
0.0293507
0.0951727
0.665411
3.02382
3.71635
1.76435
0.11432
0.0999619
0.110951
4.77374e-05
0.00120545
0.00423883
0.0063708
0.00838332
0.0102163
0.0125596
0.0220909
0.107557
0.844438
3.31635
3.56672
1.62613
0.113616
0.101369
0.113449
0.0158019
0.00634993
0.00812834
0.00885046
0.00974271
0.0107064
0.0126464
0.0244773
0.142245
1.08952
3.5109
3.40684
1.50851
0.107426
0.0970073
0.110257
0.0347874
0.010461
0.0120598
0.0119001
0.011742
0.0120838
0.0148203
0.0401063
0.269618
1.70919
3.84672
2.97224
1.33502
0.101448
0.0920149
0.104284
0.002732
0.0137838
0.0164252
0.0157015
0.0159083
0.0185044
0.0345482
0.144043
0.860071
3.22864
3.99577
1.99723
1.23418
0.093498
0.0837191
0.0911925
0.0167221
0.000837286
0.00530465
0.00916995
0.0122601
0.0170729
0.0237835
0.0473801
0.0826601
0.128335
0.263277
0.878589
2.91401
4.34633
2.78451
1.28161
1.22503
0.0817875
0.0716232
0.0720815
0.00883835
0.00366157
0.00736153
0.0110446
0.015492
0.0240085
0.0798572
0.309632
0.659903
1.05949
1.82273
3.42068
4.43213
3.11225
1.3412
1.22514
1.225
0.0665359
0.0564565
0.0554699
0.016616
0.00565119
0.0079767
0.0108183
0.0145707
0.0505055
0.332979
1.6923
3.41795
4.07235
4.32511
4.23528
2.75136
1.33554
1.2252
1.225
1.225
0.0500872
0.0388034
0.036751
0.0185151
0.00767132
0.00886601
0.0107058
0.0148966
0.0917952
0.729587
3.6094
5.9277
5.00221
3.41446
1.97924
1.27289
1.22512
1.225
1.225
1.225
0.0426311
0.0303993
0.0312978
0.0200299
0.00954897
0.0098912
0.011115
0.0179196
0.141813
1.1476
4.22151
5.00849
2.58558
1.38406
1.23247
1.22502
1.225
1.225
1.225
1.225
0.0430695
0.0301902
0.0316057
0.02188
0.0119161
0.0118792
0.0139436
0.0345458
0.27802
1.89185
4.34945
3.31808
1.36381
1.22544
1.225
1.225
1.225
1.225
1.225
1.225
0.0581572
0.0338094
0.0359255
0.0289964
0.0212441
0.0234408
0.0387434
0.14315
0.889409
3.4351
4.16787
1.91407
1.23103
1.225
1.225
1.225
1.225
1.225
1.225
1.225
0.199505
0.0819298
0.0852559
0.0932676
0.104262
0.137698
0.262566
0.849191
2.91013
4.3992
2.67886
1.26704
1.22502
1.225
1.225
1.225
1.225
1.225
1.225
1.225
1.14679
0.536929
0.52892
0.652225
0.823643
1.0636
1.67848
3.20722
4.3295
3.06855
1.32721
1.2251
1.225
1.225
1.225
1.225
1.225
1.225
1.225
1.225
3.5991
2.74432
2.65605
2.99788
3.28745
3.4856
3.82983
3.98958
2.76953
1.33596
1.22518
1.225
1.225
1.225
1.225
1.225
1.225
1.225
1.225
1.225
3.70308
3.81849
3.77597
3.7222
3.57344
3.41635
2.9851
2.00054
1.28046
1.22513
1.225
1.225
1.225
1.225
1.225
1.225
1.225
1.225
1.225
1.225
1.63778
1.91869
1.92571
1.77515
1.63788
1.51814
1.3383
1.23428
1.22503
1.225
1.225
1.225
1.225
1.225
1.225
1.225
1.225
1.225
1.225
1.225
0.0934653
0.0901776
0.106742
0.111076
0.116169
0.115716
0.109878
0.104926
0.0977805
0.0865398
0.0712283
0.0537973
0.0453424
0.0456845
0.0608666
0.204488
1.16243
3.64844
3.76927
1.65872
0.0901489
0.0807304
0.0936448
0.0950392
0.100317
0.101942
0.098068
0.0941335
0.0867
0.0753526
0.0604245
0.0420826
0.0326338
0.0323187
0.0360332
0.0855669
0.550613
2.78646
3.88673
1.94774
0.106654
0.093511
0.107716
0.10705
0.111008
0.113655
0.110874
0.105573
0.0926534
0.0739068
0.0584929
0.039834
0.0336454
0.0339541
0.0384652
0.0896957
0.545768
2.70555
3.84745
1.95524
0.110939
0.0947827
0.106323
0.0293092
0.00393005
2.22045e-16
0.025382
0.00170328
0.0131092
0.00868078
0.0174316
0.0201437
0.0219821
0.0240018
0.0315687
0.0991844
0.678647
3.06913
3.80478
1.80174
0.116031
0.100151
0.110735
1.18704e-05
0.000792199
0.0043428
0.0066582
0.0088617
0.0108985
0.0134481
0.0234405
0.111314
0.85913
3.37294
3.65776
1.65731
0.115656
0.101911
0.113707
0.000792078
0.00578422
0.00865307
0.0093578
0.010294
0.0113411
0.0134272
0.0257595
0.146748
1.1093
3.58044
3.49871
1.5323
0.109868
0.0980666
0.110878
0.0277426
0.0109498
0.0126807
0.0124399
0.0122833
0.0126601
0.0155857
0.0418806
0.277894
1.74092
3.93218
3.06291
1.34686
0.10492
0.0941267
0.105606
0.00139941
0.0148428
0.0169513
0.0163204
0.0166448
0.0195305
0.0364606
0.150111
0.882728
3.29428
4.10648
2.05889
1.2358
0.0978751
0.0868398
0.0929164
0.0123089
0.000799886
0.00573613
0.0107512
0.0144317
0.0184305
0.0249743
0.0519026
0.0914957
0.139985
0.27856
0.90803
2.98016
4.46541
2.89287
1.29032
1.22504
0.0867312
0.075666
0.0746084
0.00876702
0.00397512
0.00824921
0.0124029
0.0167831
0.0253506
0.0858037
0.339497
0.718799
1.13146
1.89766
3.51245
4.55704
3.23951
1.35832
1.22518
1.225
0.0714864
0.0608496
0.0592746
0.0175219
0.00622277
0.00894528
0.0121468
0.0159022
0.053039
0.348866
1.77739
3.61045
4.26062
4.46979
4.36668
2.86086
1.35202
1.22527
1.225
1.225
0.0540593
0.0424896
0.0404467
0.0202282
0.00850859
0.00992196
0.0119735
0.0162155
0.0945777
0.747281
3.69927
6.15352
5.22641
3.5504
2.04261
1.28047
1.22515
1.225
1.225
1.225
0.0455078
0.0328231
0.0339104
0.0220507
0.010644
0.0110412
0.0123669
0.019229
0.144465
1.16456
4.32403
5.22626
2.72964
1.40404
1.23381
1.22503
1.225
1.225
1.225
1.225
0.04582
0.0324644
0.0341926
0.0240637
0.0132412
0.0131662
0.0152825
0.0361919
0.282492
1.91405
4.46914
3.49976
1.39376
1.22559
1.225
1.225
1.225
1.225
1.225
1.225
0.0607669
0.0360945
0.0385989
0.0315149
0.0230953
0.0252695
0.0409549
0.14756
0.900054
3.49163
4.32812
2.01535
1.23319
1.225
1.225
1.225
1.225
1.225
1.225
1.225
0.2025
0.084724
0.0888567
0.097852
0.109027
0.143146
0.270454
0.862246
2.9451
4.53376
2.84107
1.27903
1.22503
1.225
1.225
1.225
1.225
1.225
1.225
1.225
1.14981
0.542573
0.537784
0.667897
0.841468
1.08398
1.70328
3.25415
4.45518
3.24412
1.35254
1.22515
1.225
1.225
1.225
1.225
1.225
1.225
1.225
1.225
3.63568
2.76492
2.68362
3.04807
3.34988
3.55765
3.91737
4.115
2.91728
1.36188
1.22528
1.225
1.225
1.225
1.225
1.225
1.225
1.225
1.225
1.225
3.777
3.89251
3.8571
3.81701
3.67396
3.52109
3.09578
2.08548
1.29362
1.22519
1.225
1.225
1.225
1.225
1.225
1.225
1.225
1.225
1.225
1.225
1.66776
1.95924
1.96843
1.81497
1.67328
1.54798
1.35461
1.23671
1.22504
1.225
1.225
1.225
1.225
1.225
1.225
1.225
1.225
1.225
1.225
1.225
0.0934718
0.0901907
0.106779
0.111113
0.116243
0.11577
0.109923
0.104948
0.0977644
0.0865049
0.0711917
0.0537695
0.045337
0.0456819
0.0608808
0.204623
1.16301
3.64901
3.76973
1.65882
0.0901258
0.0806807
0.0937209
0.0951554
0.100406
0.101981
0.0981084
0.0941511
0.0866765
0.0752628
0.0602988
0.0419992
0.0326204
0.0323144
0.0360367
0.085636
0.551055
2.78737
3.88704
1.9478
0.106582
0.0932661
0.107616
0.10714
0.111001
0.11365
0.110907
0.105609
0.0927569
0.0736185
0.0582163
0.0397095
0.033635
0.0339472
0.0384651
0.0897303
0.545956
2.70602
3.84831
1.9558
0.110885
0.0945387
0.105798
0.0281143
0.0402285
0.000226361
0.0199182
0.00106097
0.0123343
0.00854237
0.0174516
0.0201997
0.0220288
0.0240365
0.0315887
0.0990954
0.67772
3.0674
3.80627
1.8032
0.115937
0.100012
0.110606
3.37852e-07
0.000911546
0.00467895
0.00696946
0.00907804
0.0110438
0.0135572
0.0235069
0.111054
0.856335
3.36871
3.6586
1.65866
0.115591
0.101839
0.11369
0.00323004
0.00693642
0.00905282
0.00963085
0.0104748
0.0114788
0.0135424
0.0258306
0.146389
1.10663
3.57665
3.49523
1.53143
0.10983
0.0980192
0.110865
0.0305468
0.011691
0.0128777
0.0126321
0.0124347
0.0127977
0.0157048
0.0419513
0.277697
1.74101
3.9289
3.05525
1.3457
0.104902
0.0940858
0.105467
0.00219732
0.0146688
0.0170692
0.0164372
0.0167148
0.0195286
0.0363964
0.150269
0.885006
3.29661
4.09763
2.05137
1.23559
0.0978702
0.0868856
0.0932632
0.0121087
0.000668707
0.00585054
0.0111358
0.0145718
0.0180468
0.0247037
0.0501932
0.0884656
0.136937
0.277031
0.911032
2.98662
4.45692
2.87933
1.28912
1.22504
0.0867222
0.075786
0.0752498
0.0085922
0.00402597
0.00837114
0.0125083
0.0169857
0.0250436
0.0825457
0.326801
0.701388
1.11811
1.89671
3.51746
4.54898
3.22354
1.35591
1.22517
1.225
0.0714629
0.0609464
0.0596811
0.0175351
0.00629631
0.00905144
0.0122331
0.0160824
0.051809
0.337656
1.7369
3.57478
4.25468
4.47343
4.36066
2.84668
1.34963
1.22526
1.225
1.225
0.0540393
0.0424733
0.0404447
0.0202581
0.00858338
0.0100082
0.0120487
0.0163591
0.0928323
0.733499
3.66898
6.15171
5.23775
3.54919
2.03543
1.27935
1.22515
1.225
1.225
1.225
0.0454927
0.0327948
0.0338723
0.022075
0.0107029
0.0111144
0.0124449
0.0193411
0.143206
1.15637
4.32148
5.24202
2.74219
1.40364
1.23364
1.22503
1.225
1.225
1.225
1.225
0.0458076
0.0324393
0.0341573
0.0240809
0.013292
0.0132386
0.0153813
0.0364055
0.282844
1.91667
4.478
3.51304
1.39563
1.22559
1.225
1.225
1.225
1.225
1.225
1.225
0.0607826
0.0360726
0.0385672
0.031529
0.023174
0.0254157
0.0412834
0.148725
0.905025
3.49959
4.33453
2.01745
1.23322
1.225
1.225
1.225
1.225
1.225
1.225
1.225
0.202742
0.0847614
0.0888547
0.0978984
0.109397
0.144018
0.272433
0.867811
2.95306
4.53287
2.83831
1.27882
1.22503
1.225
1.225
1.225
1.225
1.225
1.225
1.225
1.15104
0.542982
0.537932
0.668103
0.843646
1.08828
1.7099
3.25938
4.45025
3.23598
1.35151
1.22515
1.225
1.225
1.225
1.225
1.225
1.225
1.225
1.225
3.63641
2.76565
2.68336
3.0477
3.3511
3.55768
3.91425
4.10628
2.90673
1.36038
1.22527
1.225
1.225
1.225
1.225
1.225
1.225
1.225
1.225
1.225
3.77635
3.89194
3.85585
3.81615
3.67105
3.51432
3.08569
2.07813
1.29265
1.22519
1.225
1.225
1.225
1.225
1.225
1.225
1.225
1.225
1.225
1.225
1.66716
1.95872
1.96795
1.81477
1.67144
1.54526
1.35301
1.23649
1.22504
1.225
1.225
1.225
1.225
1.225
1.225
1.225
1.225
1.225
1.225
1.225
0.091019
0.0882527
0.104986
0.109414
0.114603
0.113746
0.107486
0.101436
0.0933072
0.0814715
0.0661959
0.049787
0.0424789
0.0429522
0.0583352
0.201982
1.16098
3.6137
3.69827
1.63048
0.0881395
0.0799327
0.0934221
0.0950006
0.100217
0.1014
0.0970132
0.0919941
0.0834015
0.0711473
0.055721
0.0382231
0.0302131
0.0300544
0.0337941
0.0830764
0.54685
2.76904
3.8151
1.90875
0.104654
0.0927499
0.108223
0.108137
0.111178
0.113394
0.110226
0.104354
0.0907456
0.0705355
0.0539087
0.0358809
0.0310307
0.0313638
0.0358174
0.0863754
0.538689
2.68069
3.77057
1.91406
0.108998
0.0941129
0.106324
0.0291606
0.051283
2.22045e-16
0.0221165
0.000818671
0.0155447
0.00856524
0.0164536
0.0185215
0.0200791
0.0219247
0.0291548
0.094801
0.663481
3.01897
3.71314
1.76408
0.114161
0.0997149
0.110709
2.16681e-07
0.000935394
0.00459537
0.00663366
0.00845248
0.010153
0.0124371
0.0218797
0.10665
0.838803
3.3057
3.55963
1.62494
0.113489
0.101231
0.11349
0.00682438
0.00663469
0.00840362
0.00894015
0.00970654
0.0106092
0.0125134
0.0242541
0.141185
1.08543
3.50448
3.39431
1.50401
0.107328
0.0969051
0.110255
0.0342098
0.011099
0.0118842
0.0117218
0.0115875
0.0119353
0.0146836
0.0399422
0.269524
1.71344
3.84337
2.95215
1.33121
0.101422
0.0919919
0.104322
0.00116217
0.0147934
0.0163326
0.0154779
0.0156759
0.0182655
0.0343906
0.144741
0.867608
3.24188
3.98017
1.97522
1.23354
0.0934306
0.0835325
0.0909707
0.0145263
0.000883579
0.00625201
0.010839
0.0144207
0.0180371
0.0235374
0.0458161
0.0803588
0.126741
0.264108
0.888968
2.9369
4.33769
2.74874
1.27801
1.22503
0.0816752
0.0713806
0.0712822
0.00871692
0.00423256
0.00800764
0.0115485
0.0159407
0.0234726
0.0750943
0.295159
0.645158
1.05562
1.83575
3.44082
4.42307
3.0711
1.33414
1.22512
1.225
0.066421
0.0561411
0.0547715
0.0165946
0.00622061
0.00852906
0.011327
0.0150393
0.0472273
0.305531
1.60452
3.37952
4.08888
4.34099
4.22078
2.71118
1.32854
1.22518
1.225
1.225
0.0499846
0.0385772
0.0364136
0.0185851
0.00812823
0.00934346
0.0111948
0.0152896
0.0848475
0.677444
3.47051
5.90244
5.02862
3.40118
1.95406
1.26948
1.2251
1.225
1.225
1.225
0.0425751
0.030312
0.0311902
0.020118
0.00991853
0.0103077
0.0115744
0.0180949
0.133606
1.09868
4.16435
5.03777
2.62296
1.38054
1.23186
1.22502
1.225
1.225
1.225
1.225
0.0430253
0.0301195
0.0315056
0.0219623
0.0122499
0.0122659
0.0143764
0.0344933
0.271151
1.86622
4.35689
3.37445
1.37452
1.22546
1.225
1.225
1.225
1.225
1.225
1.225
0.0582273
0.0337823
0.0358727
0.0291188
0.0216378
0.0239214
0.0393839
0.143754
0.887909
3.43795
4.20259
1.93943
1.23155
1.225
1.225
1.225
1.225
1.225
1.225
1.225
0.200415
0.0823029
0.0856205
0.0938736
0.105385
0.139278
0.265422
0.855664
2.91768
4.4132
2.70231
1.26887
1.22502
1.225
1.225
1.225
1.225
1.225
1.225
1.225
1.15155
0.540199
0.532081
0.656018
0.829711
1.07218
1.69158
3.21912
4.33461
3.07868
1.3293
1.2251
1.225
1.225
1.225
1.225
1.225
1.225
1.225
1.225
3.60323
2.75164
2.66331
3.00385
3.2946
3.49363
3.83585
3.98829
2.76774
1.33667
1.22518
1.225
1.225
1.225
1.225
1.225
1.225
1.225
1.225
1.225
3.70106
3.8166
3.77314
3.71848
3.56927
3.4096
2.97491
1.99385
1.28013
1.22513
1.225
1.225
1.225
1.225
1.225
1.225
1.225
1.225
1.225
1.225
1.63531
1.91524
1.92169
1.77146
1.63331
1.51315
1.33596
1.23408
1.22503
1.225
1.225
1.225
1.225
1.225
1.225
1.225
1.225
1.225
1.225
1.225
0.0898495
0.0877428
0.10528
0.1097
0.114691
0.113392
0.106712
0.0997474
0.0906878
0.0778859
0.0618921
0.0459942
0.0394033
0.0399632
0.0565238
0.210795
1.23048
3.65257
3.58651
1.56278
0.0876109
0.0819992
0.0987223
0.100009
0.104102
0.104104
0.0985638
0.0922198
0.0824401
0.0687529
0.0522702
0.0350296
0.0276462
0.0274463
0.0313357
0.0836814
0.5822
2.85792
3.71286
1.81823
0.104916
0.098111
0.122663
0.122352
0.120387
0.119708
0.114402
0.10666
0.0914875
0.0700407
0.0514552
0.0333609
0.0284965
0.0286861
0.0330803
0.0862093
0.569209
2.76179
3.65818
1.81796
0.109211
0.0992163
0.120669
0.0308123
0.036937
2.22045e-16
0.0230684
0.00116143
0.0186537
0.0097089
0.0165661
0.0176826
0.0186488
0.0199944
0.02682
0.094844
0.70096
3.07914
3.5671
1.66971
0.114225
0.103733
0.120284
2.22045e-16
0.000887944
0.004227
0.00616946
0.007867
0.00931593
0.011251
0.0204199
0.109154
0.898127
3.34051
3.39167
1.53401
0.11313
0.104018
0.119979
0.00815885
0.00656068
0.00772284
0.00816414
0.00879489
0.00950759
0.0111644
0.0228548
0.146495
1.16061
3.50942
3.19125
1.42787
0.106552
0.0985485
0.114594
0.0361352
0.00968072
0.0102695
0.0101741
0.0100985
0.0104139
0.013091
0.0391144
0.285729
1.82835
3.78545
2.69822
1.29266
0.0997228
0.0922018
0.106558
0.0025816
0.0120121
0.0132938
0.0130154
0.0134269
0.0162263
0.0329206
0.15096
0.945751
3.33909
3.7673
1.76796
1.22891
0.0908233
0.0826519
0.0920082
0.0183655
0.000699401
0.00573485
0.00928764
0.0119361
0.0151579
0.0193927
0.0408134
0.0745667
0.122607
0.271651
0.962228
3.07824
4.17232
2.39803
1.25155
1.22501
0.0781248
0.0691256
0.0714178
0.00975137
0.00369441
0.00721785
0.0100078
0.0132383
0.0196695
0.068425
0.280381
0.625465
1.06002
1.91034
3.5128
4.23697
2.6639
1.28121
1.22503
1.225
0.0621287
0.0527399
0.0525641
0.0167534
0.00569552
0.00777898
0.00990109
0.0128379
0.0422013
0.290479
1.57243
3.30276
3.97523
4.19159
3.93101
2.34263
1.27738
1.22505
1.225
1.225
0.0461572
0.0353011
0.03377
0.0177127
0.00753439
0.00848981
0.00983852
0.0132646
0.0785551
0.658651
3.40133
5.51481
4.54663
3.00089
1.72526
1.24607
1.22503
1.225
1.225
1.225
0.0394668
0.0276965
0.0285586
0.0186304
0.00907661
0.00926183
0.0101835
0.0162657
0.129662
1.11093
4.05783
4.5558
2.22896
1.31406
1.22783
1.225
1.225
1.225
1.225
1.225
0.0400092
0.0274723
0.0287359
0.0199646
0.0110531
0.0109554
0.0129141
0.0335234
0.282984
1.96476
4.2196
2.97243
1.30925
1.22515
1.225
1.225
1.225
1.225
1.225
1.225
0.0564646
0.0313072
0.0330654
0.0267287
0.020207
0.0226518
0.0390523
0.152928
0.980608
3.5415
3.91872
1.70831
1.22761
1.225
1.225
1.225
1.225
1.225
1.225
1.225
0.20995
0.0831565
0.0856332
0.0940951
0.108436
0.145931
0.285611
0.950289
3.09712
4.24041
2.32722
1.2452
1.225
1.225
1.225
1.225
1.225
1.225
1.225
1.225
1.22635
0.5783
0.565051
0.696036
0.894017
1.15696
1.82596
3.34648
4.18186
2.65978
1.27635
1.22502
1.225
1.225
1.225
1.225
1.225
1.225
1.225
1.225
3.64837
2.85037
2.75384
3.07284
3.33967
3.51165
3.79247
3.78024
2.40323
1.28094
1.22504
1.225
1.225
1.225
1.225
1.225
1.225
1.225
1.225
1.225
3.58573
3.71218
3.65943
3.57031
3.4001
3.20465
2.71291
1.77476
1.25178
1.22503
1.225
1.225
1.225
1.225
1.225
1.225
1.225
1.225
1.225
1.225
1.56325
1.81954
1.82025
1.67257
1.53823
1.43201
1.29436
1.22901
1.22501
1.225
1.225
1.225
1.225
1.225
1.225
1.225
1.225
1.225
1.225
1.225
0.0920538
0.091107
0.110716
0.115439
0.120401
0.118928
0.111944
0.104778
0.0953147
0.0817007
0.0644507
0.0474921
0.0406925
0.0415436
0.0626551
0.25591
1.46066
3.8589
3.48792
1.48089
0.0910089
0.0902314
0.117442
0.121749
0.126029
0.124209
0.115578
0.105967
0.0934933
0.0763666
0.0568208
0.0375307
0.029018
0.028728
0.0337811
0.101106
0.724758
3.15639
3.65364
1.70392
0.110437
0.116887
0.15965
0.164361
0.165528
0.1643
0.155045
0.141319
0.116407
0.0864258
0.0601527
0.0369653
0.0296743
0.0297236
0.035116
0.103154
0.707731
3.06092
3.58709
1.69451
0.114995
0.121264
0.163036
0.0533078
0.00893065
2.22045e-16
2.22045e-16
2.22045e-16
2.22045e-16
0.0304649
0.0271735
0.0210481
0.0203354
0.0209539
0.0285779
0.115033
0.882839
3.35955
3.44305
1.54043
0.119998
0.126356
0.165749
2.22045e-16
0.000687347
0.00596841
0.00853313
0.00928451
0.0102024
0.0118521
0.0230841
0.142375
1.17651
3.62572
3.20315
1.41421
0.118722
0.124686
0.164728
2.22045e-16
0.00532505
0.00745104
0.00862683
0.00906653
0.00941744
0.0111408
0.0269916
0.2033
1.55347
3.77591
2.91089
1.33225
0.111807
0.115834
0.155345
2.22045e-16
0.00891664
0.00967775
0.00965192
0.00960956
0.00996308
0.0137438
0.0530807
0.433414
2.43269
3.90579
2.31476
1.2516
0.104803
0.105999
0.14111
2.22045e-16
0.0107647
0.0121634
0.0123534
0.013547
0.0185164
0.0465375
0.246715
1.46377
3.86375
3.53039
1.48679
1.22575
0.0954035
0.0935006
0.116933
2.22045e-16
0.000889387
0.00509651
0.00878418
0.0107598
0.0118784
0.0241893
0.0647346
0.114435
0.186302
0.436741
1.52117
3.79395
4.07063
1.89409
1.231
1.225
0.0817986
0.0767037
0.0884926
0.0365851
0.00919257
0.00834832
0.00986874
0.0122401
0.023729
0.126518
0.485263
0.956645
1.53339
2.62285
4.03795
4.10027
2.06149
1.23821
1.225
1.225
0.0645339
0.0573497
0.0625835
0.0324176
0.011402
0.00950783
0.0101136
0.0123386
0.0618921
0.479826
2.33626
4.09745
4.3366
4.25608
3.53406
1.82762
1.23683
1.225
1.225
1.225
0.0475106
0.0378544
0.038131
0.0228684
0.0105544
0.00958029
0.010014
0.0134731
0.111204
0.957509
4.12673
5.35054
3.92995
2.39827
1.43308
1.22922
1.225
1.225
1.225
1.225
0.0406934
0.0290385
0.0297872
0.0205705
0.0107162
0.00976978
0.0102849
0.0185295
0.185983
1.55484
4.37553
3.94173
1.66903
1.251
1.22543
1.225
1.225
1.225
1.225
1.225
0.041546
0.0287211
0.0297842
0.0211095
0.0120222
0.0113427
0.0139436
0.0470148
0.444512
2.66581
4.2866
2.39761
1.25067
1.22501
1.225
1.225
1.225
1.225
1.225
1.225
0.0627389
0.0337742
0.03514
0.0286337
0.0231032
0.0270409
0.0533137
0.249435
1.54532
4.07256
3.5441
1.43142
1.22542
1.225
1.225
1.225
1.225
1.225
1.225
1.225
0.256839
0.101318
0.103319
0.115004
0.142164
0.202872
0.433803
1.47294
3.8208
4.11971
1.82707
1.22919
1.225
1.225
1.225
1.225
1.225
1.225
1.225
1.225
1.46611
0.727302
0.709583
0.883215
1.17393
1.54942
2.43315
3.87882
4.0898
2.06435
1.23683
1.225
1.225
1.225
1.225
1.225
1.225
1.225
1.225
1.225
3.8625
3.16134
3.06578
3.36124
3.62567
3.77847
3.91633
3.54709
1.8994
1.23832
1.225
1.225
1.225
1.225
1.225
1.225
1.225
1.225
1.225
1.225
3.48208
3.65012
3.58625
3.44408
3.20965
2.92182
2.326
1.49056
1.2311
1.225
1.225
1.225
1.225
1.225
1.225
1.225
1.225
1.225
1.225
1.225
1.4781
1.70051
1.69266
1.54042
1.41614
1.33413
1.25223
1.22578
1.225
1.225
1.225
1.225
1.225
1.225
1.225
1.225
1.225
1.225
1.225
1.225
0.0927617
0.0926775