/*--------------------------------*- C++ -*----------------------------------*\
  =========                 |
  \\      /  F ield         | OpenFOAM: The Open Source CFD Toolbox
   \\    /   O peration     | Website:  https://openfoam.org
    \\  /    A nd           | Version:  9
     \\/     M anipulation  |
\*---------------------------------------------------------------------------*/
FoamFile
{
    format      ascii;
    class       volScalarField;
    location    "0.001";
    object      rhoE;
}
// * * * * * * * * * * * * * * * * * * * * * * * * * * * * * * * * * * * * * //

dimensions      [1 -1 -2 0 0 0 0];

internalField   nonuniform List<scalar> 
9720
(
7.97129e+08
8.50404e+08
9.49923e+08
9.60478e+08
9.96392e+08
9.79897e+08
9.49129e+08
9.13637e+08
8.72096e+08
7.8407e+08
6.52144e+08
4.94924e+08
3.41035e+08
2.65747e+08
2.52853e+08
2.30794e+08
1.79263e+08
9.86698e+07
3.00426e+07
1.64248e+06
8.49917e+08
8.56982e+08
9.48128e+08
9.8391e+08
1.05112e+09
1.08497e+09
1.08494e+09
1.0821e+09
1.05923e+09
9.07298e+08
7.06652e+08
5.2126e+08
3.5855e+08
2.59065e+08
2.4242e+08
2.35497e+08
1.87123e+08
1.11665e+08
3.80894e+07
3.48888e+06
9.49051e+08
9.47582e+08
1.02273e+09
1.06837e+09
1.17566e+09
1.26721e+09
1.3013e+09
1.32346e+09
1.23355e+09
9.76374e+08
7.57624e+08
5.68816e+08
4.02144e+08
2.92909e+08
2.64997e+08
2.45818e+08
1.82727e+08
1.03717e+08
3.5071e+07
3.18658e+06
9.59208e+08
9.82156e+08
1.0658e+09
1.04033e+09
1.19528e+09
1.35571e+09
1.47099e+09
1.48944e+09
1.40203e+09
7.30728e+08
5.98702e+08
4.67479e+08
3.32453e+08
2.49095e+08
2.30941e+08
2.15146e+08
1.60399e+08
8.90474e+07
2.7574e+07
1.76399e+06
9.95054e+08
1.04804e+09
1.17023e+09
1.19421e+09
6.15548e+08
3.9536e+08
3.7906e+08
3.20662e+08
2.33312e+08
1.76284e+08
1.71783e+08
1.64598e+08
1.32232e+08
7.40573e+07
2.04871e+07
943578
9.78793e+08
1.08333e+09
1.26411e+09
1.35144e+09
3.34519e+08
3.08902e+08
2.96477e+08
2.50114e+08
1.86286e+08
1.66864e+08
1.74531e+08
1.64069e+08
1.30395e+08
6.6118e+07
1.48346e+07
560294
9.4778e+08
1.0828e+09
1.29876e+09
1.46712e+09
2.79723e+08
2.41857e+08
2.34081e+08
2.14996e+08
1.89442e+08
1.88272e+08
1.82612e+08
1.68786e+08
1.23778e+08
4.95253e+07
6.70791e+06
336569
9.13984e+08
1.08214e+09
1.32147e+09
1.48631e+09
2.12019e+08
2.27079e+08
2.4024e+08
2.28079e+08
2.13314e+08
2.03863e+08
1.9461e+08
1.6957e+08
9.08755e+07
2.29303e+07
898570
306422
8.73423e+08
1.05767e+09
1.22166e+09
1.37222e+09
5.99505e+08
3.57757e+08
2.93309e+08
2.2229e+08
1.54321e+08
1.64803e+08
1.95116e+08
2.0892e+08
2.07945e+08
2.01576e+08
1.82208e+08
1.10838e+08
3.56428e+07
2.40893e+06
308403
306250
7.83975e+08
9.02871e+08
9.67037e+08
7.23934e+08
4.09076e+08
3.20719e+08
2.50335e+08
2.3226e+08
1.72999e+08
1.10074e+08
1.15948e+08
1.41944e+08
1.51752e+08
1.3697e+08
8.83817e+07
3.32784e+07
3.02817e+06
311742
306250
306250
6.51117e+08
7.03001e+08
7.52739e+08
5.9771e+08
3.86825e+08
3.05541e+08
2.39965e+08
2.40706e+08
2.02028e+08
1.23191e+08
8.88044e+07
8.47518e+07
6.89152e+07
4.46886e+07
1.80642e+07
1.87945e+06
310833
306250
306250
306250
4.93498e+08
5.18934e+08
5.66153e+08
4.67814e+08
3.24925e+08
2.55864e+08
2.18899e+08
2.28759e+08
2.13221e+08
1.49042e+08
8.76285e+07
4.57177e+07
1.66272e+07
4.73039e+06
630218
307455
306250
306250
306250
306250
3.39989e+08
3.57202e+08
4.00345e+08
3.32469e+08
2.3615e+08
1.89545e+08
1.9121e+08
2.14372e+08
2.11069e+08
1.57606e+08
7.19844e+07
1.75025e+07
880149
320161
306311
306250
306250
306250
306250
306250
2.65436e+08
2.58532e+08
2.91819e+08
2.48748e+08
1.77962e+08
1.6852e+08
1.8959e+08
2.05275e+08
2.04236e+08
1.41188e+08
4.67585e+07
5.17412e+06
323433
306251
306250
306250
306250
306250
306250
306250
2.52661e+08
2.42178e+08
2.64237e+08
2.30694e+08
1.72892e+08
1.75605e+08
1.83459e+08
1.95678e+08
1.84464e+08
9.05856e+07
1.89531e+07
669598
306325
306250
306250
306250
306250
306250
306250
306250
2.30657e+08
2.35292e+08
2.45294e+08
2.14978e+08
1.65236e+08
1.64449e+08
1.69127e+08
1.70474e+08
1.12315e+08
3.41423e+07
1.99485e+06
307638
306250
306250
306250
306250
306250
306250
306250
306250
1.79096e+08
1.86953e+08
1.82475e+08
1.60469e+08
1.32534e+08
1.30539e+08
1.24176e+08
9.15711e+07
3.62058e+07
3.16191e+06
311360
306250
306250
306250
306250
306250
306250
306250
306250
306250
9.84596e+07
1.11489e+08
1.03627e+08
8.9156e+07
7.42453e+07
6.62969e+07
4.97653e+07
2.31944e+07
2.48618e+06
312247
306250
306250
306250
306250
306250
306250
306250
306250
306250
306250
2.9919e+07
3.79804e+07
3.50389e+07
2.76442e+07
2.05866e+07
1.49125e+07
6.77041e+06
915491
308561
306250
306250
306250
306250
306250
306250
306250
306250
306250
306250
306250
1.62491e+06
3.45929e+06
3.17349e+06
1.77109e+06
950913
563368
337241
306431
306250
306250
306250
306250
306250
306250
306250
306250
306250
306250
306250
306250
8.23415e+08
8.74988e+08
9.74485e+08
9.82013e+08
1.01692e+09
1.00164e+09
9.73782e+08
9.44741e+08
9.09442e+08
8.20106e+08
6.85273e+08
5.28353e+08
3.70733e+08
2.84999e+08
2.69521e+08
2.46667e+08
1.9176e+08
1.07307e+08
3.3933e+07
2.19703e+06
8.74579e+08
8.77317e+08
9.64212e+08
9.92699e+08
1.06303e+09
1.09695e+09
1.09819e+09
1.10246e+09
1.07138e+09
9.05241e+08
7.11912e+08
5.40911e+08
3.84453e+08
2.78868e+08
2.57647e+08
2.51382e+08
2.00861e+08
1.2138e+08
4.27496e+07
4.52728e+06
9.73752e+08
9.63666e+08
1.03107e+09
1.07003e+09
1.18185e+09
1.27208e+09
1.30313e+09
1.32582e+09
1.20361e+09
9.32553e+08
7.26333e+08
5.59254e+08
4.07884e+08
3.01624e+08
2.73164e+08
2.57733e+08
1.95773e+08
1.12569e+08
3.9519e+07
4.18946e+06
9.81198e+08
9.91462e+08
1.06804e+09
1.04558e+09
1.19795e+09
1.35789e+09
1.46292e+09
1.48448e+09
1.35938e+09
6.68699e+08
5.51079e+08
4.42408e+08
3.26027e+08
2.4738e+08
2.30259e+08
2.20293e+08
1.68944e+08
9.70809e+07
3.14908e+07
2.49708e+06
1.01612e+09
1.05918e+09
1.17364e+09
1.18372e+09
5.3013e+08
3.62841e+08
3.51748e+08
3.08213e+08
2.36329e+08
1.79594e+08
1.74055e+08
1.69596e+08
1.38855e+08
8.14592e+07
2.45467e+07
1.38466e+06
1.00097e+09
1.0957e+09
1.26781e+09
1.34593e+09
3.15345e+08
3.01349e+08
2.90294e+08
2.52958e+08
1.93286e+08
1.65854e+08
1.73467e+08
1.6758e+08
1.37779e+08
7.55806e+07
1.96878e+07
849190
9.73628e+08
1.09774e+09
1.30159e+09
1.45816e+09
2.66723e+08
2.47397e+08
2.34419e+08
2.1439e+08
1.86829e+08
1.83089e+08
1.82232e+08
1.7285e+08
1.37023e+08
6.14762e+07
1.07752e+07
406698
9.44711e+08
1.10254e+09
1.3254e+09
1.4838e+09
2.13319e+08
2.17106e+08
2.26741e+08
2.17883e+08
2.05837e+08
2.01821e+08
1.98438e+08
1.84516e+08
1.12927e+08
3.32973e+07
2.00641e+06
307593
9.10076e+08
1.07131e+09
1.20223e+09
1.33986e+09
5.32809e+08
3.1827e+08
2.61285e+08
2.08114e+08
1.29753e+08
1.59588e+08
1.94123e+08
2.10174e+08
2.13363e+08
2.13219e+08
2.03778e+08
1.41286e+08
5.07125e+07
5.75334e+06
323378
306250
8.2106e+08
9.05435e+08
9.31768e+08
6.70925e+08
3.69687e+08
3.00615e+08
2.40942e+08
2.10308e+08
1.59734e+08
1.18937e+08
1.30968e+08
1.61322e+08
1.77345e+08
1.68352e+08
1.18952e+08
4.9162e+07
7.41304e+06
350131
306252
306250
6.86088e+08
7.13091e+08
7.27338e+08
5.53285e+08
3.55455e+08
2.90959e+08
2.32304e+08
2.23053e+08
1.95491e+08
1.32678e+08
9.96791e+07
1.04434e+08
9.34888e+07
6.56189e+07
3.00731e+07
4.87168e+06
344674
306252
306250
306250
5.29046e+08
5.42253e+08
5.6153e+08
4.44442e+08
3.10444e+08
2.55098e+08
2.14788e+08
2.17032e+08
2.11489e+08
1.6257e+08
1.03862e+08
6.27319e+07
3.06245e+07
1.03282e+07
1.484e+06
317576
306251
306250
306250
306250
3.71232e+08
3.85483e+08
4.10169e+08
3.27687e+08
2.38094e+08
1.95472e+08
1.88125e+08
2.06856e+08
2.14752e+08
1.76908e+08
9.19055e+07
3.01374e+07
2.71286e+06
394295
306945
306250
306250
306250
306250
306250
2.85334e+08
2.79588e+08
3.03253e+08
2.48679e+08
1.81048e+08
1.6724e+08
1.84345e+08
2.03308e+08
2.14444e+08
1.66802e+08
6.40048e+07
9.86291e+06
385154
306261
306250
306250
306250
306250
306250
306250
2.69825e+08
2.58201e+08
2.74426e+08
2.31515e+08
1.75284e+08
1.74581e+08
1.83505e+08
1.99968e+08
2.04183e+08
1.17049e+08
2.91887e+07
1.39086e+06
306844
306250
306250
306250
306250
306250
306250
306250
2.46852e+08
2.519e+08
2.58762e+08
2.21578e+08
1.70763e+08
1.68591e+08
1.73849e+08
1.85321e+08
1.40582e+08
4.83575e+07
4.64967e+06
316351
306250
306250
306250
306250
306250
306250
306250
306250
1.91839e+08
2.01264e+08
1.96414e+08
1.69901e+08
1.39689e+08
1.3851e+08
1.37673e+08
1.1299e+08
5.02966e+07
7.17559e+06
341440
306251
306250
306250
306250
306250
306250
306250
306250
306250
1.07308e+08
1.21586e+08
1.12879e+08
9.76173e+07
8.19859e+07
7.60549e+07
6.17153e+07
3.32352e+07
5.63325e+06
347188
306252
306250
306250
306250
306250
306250
306250
306250
306250
306250
3.39079e+07
4.27749e+07
3.9618e+07
3.16761e+07
2.47727e+07
1.98628e+07
1.08195e+07
1.98731e+06
322524
306251
306250
306250
306250
306250
306250
306250
306250
306250
306250
306250
2.19001e+06
4.52515e+06
4.20371e+06
2.52853e+06
1.41208e+06
860843
407442
307561
306250
306250
306250
306250
306250
306250
306250
306250
306250
306250
306250
306250
8.48592e+08
8.92183e+08
9.90198e+08
1.00056e+09
1.0388e+09
1.0295e+09
1.0043e+09
9.77319e+08
9.45302e+08
8.5227e+08
7.16616e+08
5.64214e+08
4.05296e+08
3.04852e+08
2.8512e+08
2.613e+08
2.03658e+08
1.16501e+08
3.84718e+07
3.09091e+06
8.9166e+08
8.86502e+08
9.79049e+08
1.01673e+09
1.09749e+09
1.14455e+09
1.14867e+09
1.15399e+09
1.11362e+09
9.31281e+08
7.33925e+08
5.68779e+08
4.17226e+08
3.01711e+08
2.71565e+08
2.65505e+08
2.15536e+08
1.31784e+08
4.87246e+07
6.01677e+06
9.8974e+08
9.78892e+08
1.05436e+09
1.09835e+09
1.21702e+09
1.31501e+09
1.35254e+09
1.37723e+09
1.22824e+09
9.47802e+08
7.50086e+08
5.96607e+08
4.53298e+08
3.38449e+08
2.99183e+08
2.80871e+08
2.15095e+08
1.23589e+08
4.55311e+07
5.69571e+06
9.99969e+08
1.01567e+09
1.0956e+09
1.06569e+09
1.22175e+09
1.38624e+09
1.49945e+09
1.53219e+09
1.36663e+09
6.67591e+08
5.73554e+08
4.90063e+08
3.8784e+08
2.98232e+08
2.70146e+08
2.55117e+08
1.94087e+08
1.10971e+08
3.79016e+07
3.83818e+06
1.03879e+09
1.09662e+09
1.21319e+09
1.2135e+09
4.93937e+08
3.79633e+08
3.80924e+08
3.52877e+08
2.90558e+08
2.21954e+08
2.07304e+08
2.00652e+08
1.60574e+08
9.53282e+07
3.11151e+07
2.48598e+06
1.02956e+09
1.14542e+09
1.31491e+09
1.38065e+09
3.28143e+08
3.24503e+08
3.20619e+08
2.94826e+08
2.40627e+08
2.033e+08
2.06445e+08
2.00893e+08
1.6072e+08
9.06696e+07
2.71654e+07
1.64443e+06
1.00533e+09
1.15039e+09
1.35416e+09
1.49979e+09
2.73793e+08
2.68905e+08
2.64403e+08
2.52584e+08
2.29175e+08
2.18998e+08
2.20667e+08
2.03488e+08
1.59165e+08
7.80017e+07
1.76233e+07
655143
9.76831e+08
1.15416e+09
1.3799e+09
1.53388e+09
2.228e+08
2.40541e+08
2.55489e+08
2.53478e+08
2.44927e+08
2.42848e+08
2.34581e+08
2.11156e+08
1.38574e+08
4.73505e+07
4.86355e+06
317605
9.45952e+08
1.1206e+09
1.24691e+09
1.38505e+09
5.0002e+08
3.17725e+08
2.74605e+08
2.21577e+08
1.45383e+08
1.89399e+08
2.32363e+08
2.53985e+08
2.56948e+08
2.52934e+08
2.35345e+08
1.73458e+08
7.19024e+07
1.24448e+07
420342
306257
8.55758e+08
9.40443e+08
9.60526e+08
6.66372e+08
3.59196e+08
3.17508e+08
2.6915e+08
2.45788e+08
1.92412e+08
1.49567e+08
1.65541e+08
2.00617e+08
2.15968e+08
2.03976e+08
1.53636e+08
7.16788e+07
1.59521e+07
584586
306292
306250
7.20578e+08
7.39815e+08
7.54378e+08
5.65772e+08
3.62803e+08
3.12513e+08
2.63224e+08
2.59634e+08
2.33788e+08
1.62653e+08
1.18855e+08
1.251e+08
1.19583e+08
9.05265e+07
4.68962e+07
1.12723e+07
560875
306316
306250
306250
5.67594e+08
5.72278e+08
5.97348e+08
4.82815e+08
3.387e+08
2.86371e+08
2.50285e+08
2.56121e+08
2.5355e+08
1.95116e+08
1.20988e+08
8.10594e+07
4.71602e+07
1.96363e+07
4.13552e+06
393379
306284
306250
306250
306250
4.07693e+08
4.19583e+08
4.53646e+08
3.83413e+08
2.80467e+08
2.33513e+08
2.26451e+08
2.45778e+08
2.55627e+08
2.09252e+08
1.13556e+08
4.52538e+07
7.70453e+06
728618
314062
306254
306250
306250
306250
306250
3.05744e+08
3.02755e+08
3.38727e+08
2.9645e+08
2.15867e+08
1.98577e+08
2.16784e+08
2.42124e+08
2.51221e+08
1.97436e+08
8.48507e+07
1.76483e+07
632891
306409
306250
306250
306250
306250
306250
306250
2.85661e+08
2.7196e+08
2.99308e+08
2.69212e+08
2.03201e+08
2.02965e+08
2.18078e+08
2.33193e+08
2.33356e+08
1.48365e+08
4.37077e+07
3.52048e+06
311551
306250
306250
306250
306250
306250
306250
306250
2.61586e+08
2.65877e+08
2.81131e+08
2.54775e+08
1.98387e+08
1.98669e+08
2.01851e+08
2.10147e+08
1.7114e+08
6.88964e+07
1.02067e+07
374591
306253
306250
306250
306250
306250
306250
306250
306250
2.03889e+08
2.16047e+08
2.15625e+08
1.94478e+08
1.60194e+08
1.60373e+08
1.58867e+08
1.37811e+08
7.04195e+07
1.49984e+07
520462
306274
306250
306250
306250
306250
306250
306250
306250
306250
1.16736e+08
1.32234e+08
1.24034e+08
1.11481e+08
9.57707e+07
9.10911e+07
7.80239e+07
4.69037e+07
1.1941e+07
550126
306300
306250
306250
306250
306250
306250
306250
306250
306250
306250
3.85783e+07
4.89235e+07
4.57769e+07
3.81614e+07
3.13679e+07
2.73582e+07
1.76107e+07
4.74344e+06
409426
306283
306250
306250
306250
306250
306250
306250
306250
306250
306250
306250
3.11467e+06
6.06378e+06
5.75539e+06
3.89886e+06
2.5457e+06
1.67235e+06
653663
316882
306256
306250
306250
306250
306250
306250
306250
306250
306250
306250
306250
306250
9.00906e+08
9.45006e+08
1.03703e+09
1.04758e+09
1.08855e+09
1.08474e+09
1.06565e+09
1.04945e+09
1.03217e+09
9.49134e+08
8.11337e+08
6.50256e+08
4.7274e+08
3.45973e+08
3.16901e+08
2.85665e+08
2.19466e+08
1.25935e+08
4.26586e+07
3.88084e+06
9.44283e+08
9.36314e+08
1.01526e+09
1.05191e+09
1.13997e+09
1.19572e+09
1.20732e+09
1.22265e+09
1.189e+09
1.0108e+09
8.22635e+08
6.56687e+08
4.91535e+08
3.51114e+08
3.04527e+08
2.92527e+08
2.35756e+08
1.42743e+08
5.42221e+07
7.2991e+06
1.0366e+09
1.0157e+09
1.08539e+09
1.12761e+09
1.25363e+09
1.35825e+09
1.40626e+09
1.44043e+09
1.28626e+09
1.00116e+09
8.1854e+08
6.78154e+08
5.32666e+08
3.97211e+08
3.39501e+08
3.12967e+08
2.37955e+08
1.34888e+08
5.08411e+07
6.96551e+06
1.04663e+09
1.05213e+09
1.12896e+09
1.10128e+09
1.26582e+09
1.43922e+09
1.56531e+09
1.6131e+09
1.40947e+09
6.85365e+08
6.12652e+08
5.54024e+08
4.61747e+08
3.57038e+08
3.13487e+08
2.89029e+08
2.16385e+08
1.2203e+08
4.31506e+07
4.91417e+06
1.08801e+09
1.13898e+09
1.25194e+09
1.2625e+09
5.33189e+08
4.00536e+08
4.11558e+08
4.00289e+08
3.47305e+08
2.6747e+08
2.41889e+08
2.28768e+08
1.78261e+08
1.05862e+08
3.61726e+07
3.40218e+06
1.08562e+09
1.19749e+09
1.35964e+09
1.43931e+09
3.48579e+08
3.67132e+08
3.65688e+08
3.44508e+08
2.88525e+08
2.41424e+08
2.39662e+08
2.28804e+08
1.78722e+08
1.01508e+08
3.23172e+07
2.36946e+06
1.06659e+09
1.20872e+09
1.40805e+09
1.56942e+09
3.13809e+08
3.27568e+08
3.21934e+08
3.07124e+08
2.77017e+08
2.57716e+08
2.5479e+08
2.29177e+08
1.75696e+08
8.89645e+07
2.24809e+07
927612
1.05024e+09
1.22439e+09
1.44301e+09
1.61423e+09
2.75913e+08
3.04295e+08
3.18165e+08
3.10792e+08
2.91441e+08
2.82929e+08
2.66097e+08
2.33341e+08
1.55953e+08
5.7551e+07
7.27903e+06
335431
1.03296e+09
1.19359e+09
1.29759e+09
1.43241e+09
5.16588e+08
3.41131e+08
3.1511e+08
2.76613e+08
1.9305e+08
2.35895e+08
2.80683e+08
3.00551e+08
2.97247e+08
2.87125e+08
2.63077e+08
1.9735e+08
8.73031e+07
1.79794e+07
569986
306281
9.51915e+08
1.01728e+09
1.01058e+09
6.95069e+08
3.95777e+08
3.60568e+08
3.20127e+08
2.97797e+08
2.36577e+08
1.7864e+08
1.90155e+08
2.28305e+08
2.44916e+08
2.31765e+08
1.78644e+08
8.84873e+07
2.29719e+07
933774
306432
306250
8.15344e+08
8.28716e+08
8.24591e+08
6.15751e+08
4.06173e+08
3.5935e+08
3.1367e+08
3.10965e+08
2.79373e+08
1.89038e+08
1.33031e+08
1.40868e+08
1.37535e+08
1.07816e+08
5.94789e+07
1.68426e+07
893264
306541
306250
306250
6.54727e+08
6.62064e+08
6.83144e+08
5.55058e+08
3.94647e+08
3.3814e+08
2.98938e+08
3.04767e+08
2.9781e+08
2.2531e+08
1.3806e+08
9.52507e+07
5.93412e+07
2.67709e+07
6.60753e+06
522059
306404
306250
306250
306250
4.76767e+08
4.96346e+08
5.37648e+08
4.63288e+08
3.42991e+08
2.82877e+08
2.71314e+08
2.87899e+08
2.94094e+08
2.39847e+08
1.32873e+08
5.76282e+07
1.22632e+07
1.16198e+06
329175
306271
306250
306250
306250
306250
3.48072e+08
3.5418e+08
4.01181e+08
3.59245e+08
2.65206e+08
2.37869e+08
2.54824e+08
2.80046e+08
2.84324e+08
2.25886e+08
1.02675e+08
2.47175e+07
1.0196e+06
306838
306250
306250
306250
306250
306250
306250
3.183e+08
3.06247e+08
3.42054e+08
3.15429e+08
2.40412e+08
2.37211e+08
2.527e+08
2.64541e+08
2.60875e+08
1.73834e+08
5.62899e+07
5.87983e+06
323799
306250
306250
306250
306250
306250
306250
306250
2.86647e+08
2.94003e+08
3.15208e+08
2.90892e+08
2.28309e+08
2.28147e+08
2.28503e+08
2.32995e+08
1.95712e+08
8.605e+07
1.57119e+07
489690
306266
306250
306250
306250
306250
306250
306250
306250
2.20142e+08
2.37097e+08
2.3981e+08
2.18037e+08
1.78663e+08
1.79329e+08
1.76255e+08
1.5616e+08
8.64638e+07
2.21638e+07
836783
306377
306250
306250
306250
306250
306250
306250
306250
306250
1.26529e+08
1.43667e+08
1.35932e+08
1.23038e+08
1.06669e+08
1.02446e+08
8.9674e+07
5.7659e+07
1.77145e+07
896445
306502
306250
306250
306250
306250
306250
306250
306250
306250
306250
4.29736e+07
5.4709e+07
5.13666e+07
4.36685e+07
3.66738e+07
3.27969e+07
2.27959e+07
7.31237e+06
562777
306414
306250
306250
306250
306250
306250
306250
306250
306250
306250
306250
3.95912e+06
7.42875e+06
7.10942e+06
5.0425e+06
3.52455e+06
2.46416e+06
951982
335785
306279
306250
306250
306250
306250
306250
306250
306250
306250
306250
306250
306250
9.45782e+08
9.90425e+08
1.07807e+09
1.08774e+09
1.12744e+09
1.12829e+09
1.11572e+09
1.11613e+09
1.11496e+09
1.04031e+09
8.95767e+08
7.18242e+08
5.18139e+08
3.7204e+08
3.36434e+08
2.99947e+08
2.2799e+08
1.30603e+08
4.46561e+07
4.21958e+06
9.90147e+08
9.73429e+08
1.04314e+09
1.07765e+09
1.16481e+09
1.22611e+09
1.24495e+09
1.27775e+09
1.25934e+09
1.0934e+09
9.1192e+08
7.34347e+08
5.45165e+08
3.81972e+08
3.25235e+08
3.09305e+08
2.47075e+08
1.4843e+08
5.67648e+07
7.84439e+06
1.0778e+09
1.04312e+09
1.10264e+09
1.13633e+09
1.26209e+09
1.36866e+09
1.42353e+09
1.46774e+09
1.32703e+09
1.06345e+09
8.97851e+08
7.57845e+08
5.94673e+08
4.35033e+08
3.6403e+08
3.32175e+08
2.50778e+08
1.40925e+08
5.33329e+07
7.50929e+06
1.08753e+09
1.07677e+09
1.13304e+09
1.1096e+09
1.27018e+09
1.44415e+09
1.58163e+09
1.64607e+09
1.46184e+09
7.17085e+08
6.72131e+08
6.25206e+08
5.22864e+08
3.94883e+08
3.381e+08
3.08061e+08
2.2899e+08
1.28122e+08
4.56019e+07
5.36543e+06
1.12802e+09
1.16373e+09
1.25691e+09
1.26354e+09
5.33494e+08
4.35139e+08
4.54252e+08
4.49038e+08
3.90237e+08
2.94463e+08
2.60338e+08
2.43531e+08
1.87978e+08
1.11156e+08
3.8387e+07
3.74272e+06
1.12905e+09
1.227e+09
1.36792e+09
1.44177e+09
3.86999e+08
4.10267e+08
4.08686e+08
3.83912e+08
3.16972e+08
2.59041e+08
2.55087e+08
2.42025e+08
1.87915e+08
1.06491e+08
3.43137e+07
2.61455e+06
1.11634e+09
1.24589e+09
1.42431e+09
1.58281e+09
3.85051e+08
3.61612e+08
3.49797e+08
3.30031e+08
2.95388e+08
2.73237e+08
2.68816e+08
2.40338e+08
1.83399e+08
9.32589e+07
2.41318e+07
1.02115e+06
1.116e+09
1.2779e+09
1.46888e+09
1.64763e+09
3.32466e+08
3.22475e+08
3.36405e+08
3.27546e+08
3.05989e+08
2.96026e+08
2.77573e+08
2.43048e+08
1.6305e+08
6.11617e+07
8.06514e+06
342356
1.11572e+09
1.26288e+09
1.33344e+09
1.46628e+09
5.26748e+08
3.8442e+08
3.73842e+08
3.18526e+08
2.10412e+08
2.4453e+08
2.89285e+08
3.10745e+08
3.07501e+08
2.97434e+08
2.73709e+08
2.06984e+08
9.28189e+07
1.98038e+07
625358
306292
1.04293e+09
1.10015e+09
1.07295e+09
7.27409e+08
4.37584e+08
4.10631e+08
3.58888e+08
3.19298e+08
2.47461e+08
1.83047e+08
1.93822e+08
2.34434e+08
2.53251e+08
2.4116e+08
1.87748e+08
9.43215e+07
2.52778e+07
1.06059e+06
306500
306250
8.99792e+08
9.19426e+08
9.07215e+08
6.80703e+08
4.56751e+08
4.09264e+08
3.48442e+08
3.35153e+08
2.92259e+08
1.9516e+08
1.36729e+08
1.4646e+08
1.43982e+08
1.13539e+08
6.35748e+07
1.86095e+07
1.01292e+06
306651
306250
306250
7.22687e+08
7.41063e+08
7.66138e+08
6.31919e+08
4.5099e+08
3.84255e+08
3.29831e+08
3.27737e+08
3.1259e+08
2.34882e+08
1.45291e+08
1.01077e+08
6.38319e+07
2.90586e+07
7.35432e+06
568002
306463
306250
306250
306250
5.21914e+08
5.50406e+08
6.01375e+08
5.27702e+08
3.91331e+08
3.17149e+08
2.96371e+08
3.07604e+08
3.08825e+08
2.51971e+08
1.41654e+08
6.29071e+07
1.40593e+07
1.30636e+06
334690
306279
306250
306250
306250
306250
3.74004e+08
3.85018e+08
4.39436e+08
3.98095e+08
2.95021e+08
2.5944e+08
2.74514e+08
2.97895e+08
2.9872e+08
2.39063e+08
1.1096e+08
2.7983e+07
1.22999e+06
307085
306251
306250
306250
306250
306250
306250
3.3764e+08
3.26829e+08
3.66634e+08
3.40226e+08
2.6058e+08
2.55628e+08
2.70382e+08
2.79735e+08
2.74665e+08
1.86099e+08
6.21531e+07
7.03384e+06
332200
306250
306250
306250
306250
306250
306250
306250
3.00931e+08
3.10729e+08
3.34416e+08
3.10045e+08
2.44309e+08
2.4338e+08
2.42276e+08
2.45031e+08
2.07871e+08
9.39357e+07
1.82932e+07
559132
306278
306250
306250
306250
306250
306250
306250
306250
2.28754e+08
2.48482e+08
2.5278e+08
2.30831e+08
1.89158e+08
1.8964e+08
1.85421e+08
1.64938e+08
9.36873e+07
2.53827e+07
1.01475e+06
306464
306250
306250
306250
306250
306250
306250
306250
306250
1.31328e+08
1.49449e+08
1.42115e+08
1.29265e+08
1.12315e+08
1.08047e+08
9.49001e+07
6.23247e+07
2.02336e+07
1.0841e+06
306668
306250
306250
306250
306250
306250
306250
306250
306250
306250
4.50791e+07
5.73697e+07
5.39968e+07
4.62329e+07
3.9096e+07
3.51458e+07
2.49006e+07
8.40366e+06
645184
306519
306250
306250
306250
306250
306250
306250
306250
306250
306250
306250
4.32739e+06
8.01484e+06
7.69259e+06
5.52321e+06
3.91233e+06
2.77651e+06
1.08244e+06
346176
306297
306250
306250
306250
306250
306250
306250
306250
306250
306250
306250
306250
9.46023e+08
9.90784e+08
1.07835e+09
1.08786e+09
1.12766e+09
1.12888e+09
1.11601e+09
1.11651e+09
1.11499e+09
1.03969e+09
8.9502e+08
7.17705e+08
5.17792e+08
3.7189e+08
3.36342e+08
2.99915e+08
2.28008e+08
1.30629e+08
4.46696e+07
4.2212e+06
9.90209e+08
9.73545e+08
1.04329e+09
1.07774e+09
1.1663e+09
1.22686e+09
1.24541e+09
1.27781e+09
1.2581e+09
1.09241e+09
9.11606e+08
7.34248e+08
5.45086e+08
3.81918e+08
3.25188e+08
3.09266e+08
2.47045e+08
1.48432e+08
5.67706e+07
7.84548e+06
1.07778e+09
1.04302e+09
1.10278e+09
1.13645e+09
1.26503e+09
1.37041e+09
1.42407e+09
1.46699e+09
1.32529e+09
1.06329e+09
8.98786e+08
7.59055e+08
5.95572e+08
4.35445e+08
3.64124e+08
3.32169e+08
2.50725e+08
1.40922e+08
5.33516e+07
7.51497e+06
1.08765e+09
1.0765e+09
1.13314e+09
1.09284e+09
1.25915e+09
1.42391e+09
1.55431e+09
1.61287e+09
1.42678e+09
7.19687e+08
6.76099e+08
6.2901e+08
5.25644e+08
3.96197e+08
3.38551e+08
3.08244e+08
2.29018e+08
1.28155e+08
4.56562e+07
5.38056e+06
1.12773e+09
1.16205e+09
1.25433e+09
1.24219e+09
5.00963e+08
4.37767e+08
4.57465e+08
4.52626e+08
3.93561e+08
2.96527e+08
2.61224e+08
2.43931e+08
1.88017e+08
1.11175e+08
3.84346e+07
3.75526e+06
1.12851e+09
1.22611e+09
1.36621e+09
1.41353e+09
4.15715e+08
4.10409e+08
4.09262e+08
3.85315e+08
3.1888e+08
2.60117e+08
2.55568e+08
2.4203e+08
1.8769e+08
1.06367e+08
3.42537e+07
2.60614e+06
1.11626e+09
1.24569e+09
1.42367e+09
1.55377e+09
3.84859e+08
3.57321e+08
3.48588e+08
3.30167e+08
2.95933e+08
2.73459e+08
2.68784e+08
2.39986e+08
1.83011e+08
9.30246e+07
2.4003e+07
1.01221e+06
1.11564e+09
1.27714e+09
1.46835e+09
1.61539e+09
3.15756e+08
3.17199e+08
3.3382e+08
3.26182e+08
3.05332e+08
2.95504e+08
2.7699e+08
2.42338e+08
1.62516e+08
6.08273e+07
7.9764e+06
341451
1.1157e+09
1.2642e+09
1.33657e+09
1.45844e+09
5.00008e+08
4.14066e+08
3.92519e+08
3.24476e+08
2.07505e+08
2.42948e+08
2.88454e+08
3.09708e+08
3.06461e+08
2.96459e+08
2.72697e+08
2.06073e+08
9.22291e+07
1.95898e+07
617870
306290
1.04325e+09
1.10162e+09
1.0751e+09
7.25133e+08
4.30318e+08
4.09624e+08
3.60855e+08
3.22951e+08
2.48206e+08
1.83548e+08
1.9449e+08
2.3441e+08
2.52551e+08
2.4014e+08
1.86733e+08
9.36319e+07
2.50014e+07
1.04324e+06
306490
306250
9.00041e+08
9.20142e+08
9.08062e+08
6.80602e+08
4.52047e+08
4.08193e+08
3.50294e+08
3.37955e+08
2.93429e+08
1.95847e+08
1.37505e+08
1.46644e+08
1.43863e+08
1.13178e+08
6.31764e+07
1.83931e+07
996144
306634
306250
306250
7.2262e+08
7.41049e+08
7.66112e+08
6.33054e+08
4.49501e+08
3.83827e+08
3.30861e+08
3.29531e+08
3.13202e+08
2.34809e+08
1.45291e+08
1.01324e+08
6.40552e+07
2.90101e+07
7.27532e+06
561474
306454
306250
306250
306250
5.21713e+08
5.50042e+08
6.00873e+08
5.28821e+08
3.91585e+08
3.17158e+08
2.9662e+08
3.08024e+08
3.08766e+08
2.51495e+08
1.41535e+08
6.32085e+07
1.42008e+07
1.30298e+06
333984
306278
306250
306250
306250
306250
3.73917e+08
3.84704e+08
4.38952e+08
3.98514e+08
2.95344e+08
2.59493e+08
2.74487e+08
2.97657e+08
2.98045e+08
2.38408e+08
1.10916e+08
2.81569e+07
1.24201e+06
307090
306251
306250
306250
306250
306250
306250
3.37641e+08
3.26644e+08
3.66305e+08
3.40164e+08
2.60612e+08
2.55457e+08
2.69904e+08
2.78944e+08
2.73662e+08
1.85561e+08
6.21866e+07
7.05475e+06
332300
306250
306250
306250
306250
306250
306250
306250
3.00999e+08
3.10627e+08
3.34171e+08
3.0989e+08
2.44278e+08
2.42971e+08
2.41591e+08
2.44109e+08
2.07016e+08
9.36423e+07
1.82589e+07
557969
306277
306250
306250
306250
306250
306250
306250
306250
2.28851e+08
2.48483e+08
2.5268e+08
2.30792e+08
1.89132e+08
1.89242e+08
1.84785e+08
1.64189e+08
9.3229e+07
2.52544e+07
1.008e+06
306460
306250
306250
306250
306250
306250
306250
306250
306250
1.31361e+08
1.49484e+08
1.42109e+08
1.29302e+08
1.12264e+08
1.0773e+08
9.44526e+07
6.19531e+07
2.00776e+07
1.07379e+06
306658
306250
306250
306250
306250
306250
306250
306250
306250
306250
4.50701e+07
5.7367e+07
5.3987e+07
4.62428e+07
3.90336e+07
3.49889e+07
2.47206e+07
8.31728e+06
639282
306512
306250
306250
306250
306250
306250
306250
306250
306250
306250
306250
4.32279e+06
8.01077e+06
7.68902e+06
5.52342e+06
3.89578e+06
2.74989e+06
1.06988e+06
345247
306296
306250
306250
306250
306250
306250
306250
306250
306250
306250
306250
306250
9.01048e+08
9.45204e+08
1.0375e+09
1.04796e+09
1.08867e+09
1.08552e+09
1.06616e+09
1.05059e+09
1.03234e+09
9.47929e+08
8.09736e+08
6.48881e+08
4.7189e+08
3.4573e+08
3.16791e+08
2.85617e+08
2.19451e+08
1.25905e+08
4.26393e+07
3.87399e+06
9.44262e+08
9.36372e+08
1.0159e+09
1.05341e+09
1.14212e+09
1.19678e+09
1.20783e+09
1.22402e+09
1.18636e+09
1.00667e+09
8.19383e+08
6.54741e+08
4.90556e+08
3.50828e+08
3.04525e+08
2.92518e+08
2.3566e+08
1.42661e+08
5.41698e+07
7.28349e+06
1.03626e+09
1.01526e+09
1.08564e+09
1.13053e+09
1.25916e+09
1.36115e+09
1.40719e+09
1.44066e+09
1.27991e+09
9.95331e+08
8.14561e+08
6.7588e+08
5.31681e+08
3.96909e+08
3.39345e+08
3.12785e+08
2.37716e+08
1.34762e+08
5.07902e+07
6.95221e+06
1.04655e+09
1.05108e+09
1.12626e+09
1.12135e+09
1.28853e+09
1.46269e+09
1.59093e+09
1.65108e+09
1.44852e+09
6.82623e+08
6.10412e+08
5.52443e+08
4.61378e+08
3.57083e+08
3.13392e+08
2.88884e+08
2.16142e+08
1.21916e+08
4.31283e+07
4.91349e+06
1.08795e+09
1.13727e+09
1.247e+09
1.26615e+09
5.23646e+08
4.02399e+08
4.11862e+08
3.99731e+08
3.47618e+08
2.68203e+08
2.42239e+08
2.2876e+08
1.77889e+08
1.05623e+08
3.60789e+07
3.39002e+06
1.08526e+09
1.1968e+09
1.3572e+09
1.44746e+09
3.75933e+08
3.6503e+08
3.63686e+08
3.43038e+08
2.87967e+08
2.40834e+08
2.39137e+08
2.28017e+08
1.77842e+08
1.00955e+08
3.20176e+07
2.3232e+06
1.06595e+09
1.20816e+09
1.40728e+09
1.58982e+09
3.62445e+08
3.23689e+08
3.17743e+08
3.03195e+08
2.74521e+08
2.56037e+08
2.53166e+08
2.27437e+08
1.74239e+08
8.80648e+07
2.20553e+07
898345
1.05054e+09
1.22491e+09
1.44299e+09
1.65305e+09
3.19067e+08
2.99588e+08
3.11535e+08
3.05107e+08
2.87413e+08
2.79512e+08
2.63171e+08
2.30809e+08
1.54022e+08
5.6525e+07
7.00476e+06
332840
1.03327e+09
1.19016e+09
1.28722e+09
1.45582e+09
5.21529e+08
3.70662e+08
3.57039e+08
3.11585e+08
2.05144e+08
2.36038e+08
2.78517e+08
2.96212e+08
2.92294e+08
2.82489e+08
2.59193e+08
1.9428e+08
8.55941e+07
1.73596e+07
548719
306276
9.50686e+08
1.01223e+09
1.00231e+09
6.88725e+08
4.02047e+08
3.63462e+08
3.21104e+08
2.96102e+08
2.33849e+08
1.79331e+08
1.91015e+08
2.264e+08
2.40941e+08
2.2729e+08
1.75028e+08
8.65199e+07
2.21898e+07
884987
306406
306250
8.13421e+08
8.24834e+08
8.20313e+08
6.13929e+08
4.11676e+08
3.62645e+08
3.15247e+08
3.0958e+08
2.76389e+08
1.89606e+08
1.34512e+08
1.4016e+08
1.35935e+08
1.0586e+08
5.81157e+07
1.61965e+07
846106
306500
306250
306250
6.52615e+08
6.59356e+08
6.80785e+08
5.5508e+08
3.9951e+08
3.41949e+08
3.01078e+08
3.0412e+08
2.95785e+08
2.25214e+08
1.39086e+08
9.58142e+07
5.9541e+07
2.6347e+07
6.31941e+06
502917
306382
306250
306250
306250
4.74835e+08
4.94092e+08
5.35747e+08
4.63648e+08
3.47162e+08
2.86739e+08
2.73488e+08
2.87824e+08
2.93031e+08
2.40251e+08
1.34623e+08
5.90089e+07
1.2709e+07
1.13347e+06
326826
306268
306250
306250
306250
306250
3.47011e+08
3.52705e+08
3.99561e+08
3.58896e+08
2.67936e+08
2.40334e+08
2.56195e+08
2.80386e+08
2.83951e+08
2.27016e+08
1.0463e+08
2.57668e+07
1.09171e+06
306861
306250
306250
306250
306250
306250
306250
3.17541e+08
3.05309e+08
3.40838e+08
3.14784e+08
2.42151e+08
2.3904e+08
2.53819e+08
2.64647e+08
2.60781e+08
1.75024e+08
5.75062e+07
6.15972e+06
325705
306250
306250
306250
306250
306250
306250
306250
2.86151e+08
2.93208e+08
3.1408e+08
2.90181e+08
2.29169e+08
2.28803e+08
2.28734e+08
2.32619e+08
1.95698e+08
8.67068e+07
1.60799e+07
499710
306267
306250
306250
306250
306250
306250
306250
306250
2.19872e+08
2.36488e+08
2.38951e+08
2.1735e+08
1.7867e+08
1.79091e+08
1.7583e+08
1.55682e+08
8.64538e+07
2.23521e+07
851069
306384
306250
306250
306250
306250
306250
306250
306250
306250
1.26311e+08
1.43295e+08
1.35505e+08
1.22646e+08
1.06376e+08
1.02012e+08
8.92165e+07
5.73836e+07
1.76882e+07
901746
306510
306250
306250
306250
306250
306250
306250
306250
306250
306250
4.28607e+07
5.45228e+07
5.11674e+07
4.34905e+07
3.6481e+07
3.25402e+07
2.25621e+07
7.23242e+06
560915
306416
306250
306250
306250
306250
306250
306250
306250
306250
306250
306250
3.93056e+06
7.3794e+06
7.05616e+06
5.0004e+06
3.47716e+06
2.4142e+06
934100
334994
306279
306250
306250
306250
306250
306250
306250
306250
306250
306250
306250
306250
8.48778e+08
8.92683e+08
9.90773e+08
1.00128e+09
1.03903e+09
1.02981e+09
1.00484e+09
9.77811e+08
9.45478e+08
8.51592e+08
7.15066e+08
5.62491e+08
4.03973e+08
3.04265e+08
2.84683e+08
2.60987e+08
2.03468e+08
1.16354e+08
3.83986e+07
3.07328e+06
8.91572e+08
8.86774e+08
9.7934e+08
1.01756e+09
1.09908e+09
1.14468e+09
1.14915e+09
1.15481e+09
1.11328e+09
9.2832e+08
7.30393e+08
5.65857e+08
4.15246e+08
3.00779e+08
2.71116e+08
2.65091e+08
2.15125e+08
1.31524e+08
4.85874e+07
5.98098e+06
9.89569e+08
9.79063e+08
1.05458e+09
1.09926e+09
1.22068e+09
1.31613e+09
1.35301e+09
1.37788e+09