/*--------------------------------*- C++ -*----------------------------------*\
  =========                 |
  \\      /  F ield         | OpenFOAM: The Open Source CFD Toolbox
   \\    /   O peration     | Website:  https://openfoam.org
    \\  /    A nd           | Version:  9
     \\/     M anipulation  |
\*---------------------------------------------------------------------------*/
FoamFile
{
    format      ascii;
    class       volVectorField;
    location    "0.001";
    object      rhoU;
}
// * * * * * * * * * * * * * * * * * * * * * * * * * * * * * * * * * * * * * //

dimensions      [1 -2 -1 0 0 0 0];

internalField   nonuniform List<vector> 
9720
(
(-210880 -210844 -11951.7)
(-182023 -253150 -19451.5)
(-149369 -304181 -27388.2)
(-90692.5 -320501 -36025.6)
(-20207 -339651 -38712.5)
(47783.9 -330156 -45262.9)
(115273 -310391 -42793.3)
(166852 -281051 -40678)
(202118 -248063 -37102.3)
(212688 -202741 -30250.3)
(196972 -150422 -21998.2)
(159776 -102015 -14039.8)
(114336 -64542.9 -8152.75)
(89181.3 -45632.9 -5265.96)
(82310.5 -35864 -3697.4)
(73610.4 -26790.2 -2549.67)
(53663.1 -17856.9 -1768.63)
(26618.8 -7570.02 -835.566)
(8174.4 -1830.68 -222.581)
(418.781 -68.5162 -7.86462)
(-253032 -181887 -19525.1)
(-209873 -209808 -31290.6)
(-174900 -255081 -45456.8)
(-108058 -278958 -61570.9)
(-25476.9 -309488 -66229.5)
(59344 -315735 -76683.5)
(146976 -305368 -75792.2)
(218158 -282729 -74291.7)
(269827 -251868 -68323.4)
(274949 -185232 -52929.2)
(239352 -119779 -35553.2)
(188425 -73561.3 -21705.4)
(135544 -43584.3 -12520)
(99830.6 -27805.3 -7836.06)
(88803.3 -21246.2 -5621.46)
(80729.7 -15411.1 -3490.82)
(60864.2 -10914.9 -2350.91)
(32154.9 -5612.32 -1178.98)
(10663.8 -1578.5 -324.942)
(903.113 -101.013 -21.2757)
(-303896 -149159 -27505.2)
(-255030 -174602 -45520.8)
(-213664 -213325 -65974.4)
(-140773 -242203 -87664.7)
(-44461.7 -290701 -98084.9)
(73019.7 -316316 -111224)
(188992 -311066 -115465)
(284272 -289440 -115252)
(342026 -231775 -100912)
(323504 -134384 -71677.8)
(274759 -74451.8 -46023.9)
(215566 -40640.8 -27234.3)
(156544 -22051.6 -15251.2)
(115416 -13525.4 -9192.47)
(99897.2 -9786.47 -6386.94)
(86722.3 -5734.81 -3949.82)
(61326.5 -3235.26 -2477.37)
(31090 -1257.97 -1217.6)
(10235.5 -161.917 -342.781)
(848.859 4.78629 -21.6871)
(-320017 -90476 -36247)
(-278440 -107531 -61687.8)
(-241600 -139800 -87141.6)
(-184109 -182947 -105203)
(-100673 -228295 -113861)
(37856.9 -291654 -130539)
(183585 -305959 -144607)
(302781 -273812 -141514)
(380991 -212873 -130006)
(269870 -25889.6 -56904.3)
(227849 -4062.55 -44425.9)
(179805 3463.03 -31366.8)
(129450 4810.38 -20264.9)
(97972.8 4345.52 -13907.6)
(86974.8 4343.87 -10326.1)
(76497.6 4145.66 -6525.82)
(54002.2 2952.54 -4217.29)
(26758 1750.06 -1838.12)
(8173.25 730.019 -420.589)
(469.363 47.804 -15.4218)
(-339157 -20183 -39153.6)
(-308421 -25437.9 -66751.6)
(-289035 -44304.4 -97994.1)
(-227411 -99588.1 -113527)
(227048 7481.91 -55636.4)
(150695 46478.9 -28219.9)
(144667 42520.8 -25938.7)
(122850 32621.4 -20448.2)
(90126 21381.8 -14000.6)
(68387.5 14745 -9847.13)
(63354.9 11926.7 -7207.74)
(58142.2 9482.04 -4740.77)
(43660.1 6958.75 -3331.04)
(21927.4 3422.78 -1471.04)
(6070.27 884.666 -306.22)
(229.614 25.3518 -6.85558)
(-329726 47555.8 -45376.1)
(-315088 59049.5 -77101.2)
(-315249 72558.3 -111965)
(-290665 36918.9 -132440)
(121910 57313.1 -21292.9)
(110106 56496.2 -15802.6)
(105746 52917.1 -15680.3)
(90420.7 41079.6 -13483.5)
(69214.4 26850.6 -9965.63)
(61845.4 20875.2 -7985.84)
(61650.5 17667.1 -5904.97)
(56426.6 14794.5 -4486.58)
(41040.6 10700.6 -3151.91)
(18906 4852.56 -1308.5)
(4298.67 1018.02 -238.036)
(98.8096 15.1642 -3.07984)
(-309910 115051 -42885.4)
(-304634 146629 -75985.6)
(-310237 188493 -115848)
(-305102 182495 -145924)
(93479.9 59193.7 -12881.4)
(79629.3 51280.5 -9967.87)
(77859.5 47986.2 -10324.6)
(73442.9 40310.4 -9397.44)
(65419.9 32499.1 -7821.66)
(63493.1 28756.6 -6633.87)
(61395.3 24400.1 -5394.51)
(54969.1 20917.7 -4549.01)
(35803.1 13938.6 -2935.25)
(13587 5284.64 -992.618)
(1859.71 686.101 -110.673)
(13.7631 2.84054 -0.39906)
(-281221 166758 -40628.4)
(-283095 217879 -74184.1)
(-289662 283683 -115137)
(-273368 301555 -142087)
(66304.1 47748 -6967.63)
(68791.6 47539.9 -7076.09)
(72504.2 49595.6 -6893.32)
(69111.6 46226.7 -6651.25)
(65121.6 41703.7 -6429.2)
(63443.1 37107.6 -6089.15)
(60798 32884.6 -5621.36)
(48615.5 26374.4 -4552.77)
(23401.9 12932 -2088.82)
(5971.14 3356.12 -474.23)
(198.963 87.0012 -9.89705)
(0.109987 0.0300311 -0.00242113)
(-248520 202315 -37021)
(-251347 269783 -68238.9)
(-228326 340159 -100389)
(-206158 376329 -127890)
(10727.2 223518 -48543.9)
(60467.9 129975 -21229)
(61265.6 98062.4 -12822.2)
(49945.2 69343.9 -6703.34)
(37688 39188.5 -3427.65)
(46296.2 35676 -2626.3)
(55767.1 41231.2 -4069.3)
(59075.8 44310.5 -5316.86)
(58666.9 44295.9 -6111.88)
(56369.4 42010 -6116.61)
(47728.4 35683.5 -5252.34)
(26443.7 19917.7 -2770.81)
(8506.48 6421.54 -801.851)
(583.029 407.333 -40.9363)
(1.11571 0.524698 -0.0345512)
(8.4575e-06 3.63353e-06 -1.41479e-07)
(-202630 212771 -30216.4)
(-183740 274240 -52839.1)
(-131803 321281 -71755.8)
(-23947.9 267655 -57831.9)
(47318 155535 -29871.2)
(57758.2 114268 -16124)
(52798.6 82372.6 -9732.1)
(49128.5 70103.4 -6926.75)
(37315.1 48448.8 -2645.62)
(27052.8 27243.9 -1422.06)
(29649.1 25725.1 -2644.28)
(35049.7 30724.9 -4024.94)
(35614.1 33808.4 -4721.23)
(30378.3 30679.7 -4101.17)
(18763.7 19060.6 -2320.97)
(7264.79 7013.97 -788.746)
(676.21 625.956 -56.1375)
(2.33035 1.86842 -0.0958831)
(4.20747e-05 2.84098e-05 -9.03587e-07)
(7.45833e-11 3.00545e-11 -7.63132e-13)
(-150067 196789 -22054.1)
(-118689 238509 -35607.1)
(-73198.2 273310 -46381.1)
(-3334.15 227426 -45472.2)
(42849.1 147376 -27071.7)
(53899.5 108967 -15936.5)
(49104.9 79702.3 -10125.1)
(50050.5 72581.1 -6754.87)
(43102.3 57139.9 -3936.41)
(27435.7 31504.8 -2682.04)
(18694.5 18461.7 -2697.32)
(16537.1 17967.5 -2752.71)
(12650.2 16255 -2095.4)
(8233.95 11100.8 -1244.36)
(3582.23 4363.97 -451.389)
(348.061 426.412 -33.4742)
(1.52943 1.99587 -0.0820314)
(5.15598e-05 5.33345e-05 -1.39523e-06)
(1.20801e-10 9.50738e-11 -1.64916e-12)
(3.47668e-16 2.74561e-18 0)
(-101648 159403 -14116)
(-72992.7 187777 -21867.4)
(-40090 214694 -27505.3)
(3695.05 179930 -32050.6)
(32759.6 124380 -21105.8)
(41799.5 92447.2 -13687.3)
(41050.1 74639.3 -9413.51)
(46523.4 69320.4 -6543.79)
(45731.3 59791.5 -5267.8)
(32552.2 36859.4 -4051.01)
(18813.4 17062.4 -2689.6)
(9173.15 8985.59 -1445.59)
(2852.36 4079.67 -493.235)
(727.946 1240.05 -115.889)
(56.9143 111.17 -6.69072)
(0.295689 0.643901 -0.0213304)
(1.80299e-05 2.90722e-05 -6.31536e-07)
(7.51163e-11 1.1376e-10 -1.46438e-12)
(3.46301e-16 3.48587e-16 0)
(0 0 0)
(-64315.9 114041 -8214.63)
(-43313.8 135144 -12661.2)
(-21817.2 155948 -15404.6)
(4884.88 129510 -20631.2)
(21528.5 91179.2 -14372.1)
(27298.3 70357.3 -10136.9)
(32810.2 66024.6 -7919.66)
(41955.3 65349.8 -6414.61)
(45220.4 59340.4 -6116.35)
(35293.5 37116.6 -4689.33)
(17002.2 13242.8 -2014.42)
(4341.73 2981.74 -467.979)
(151.239 141.089 -13.6386)
(1.65968 6.60422 -0.28154)
(0.00936533 0.041323 -0.00107218)
(1.28579e-06 3.70405e-06 -6.33477e-08)
(1.73859e-11 5.13184e-11 -5.20633e-13)
(2.78894e-18 3.46324e-16 0)
(0 0 0)
(0 0 0)
(-45548.8 89104.5 -5326.33)
(-27683.7 99667.4 -7947.5)
(-13413 115046 -9316.42)
(4379.64 97871 -14118.5)
(14844.2 69009.2 -10051.6)
(21100.8 62455.8 -8111.08)
(28979.5 63928.5 -6771.74)
(37390.4 63754.3 -6186.5)
(42625.6 57070.4 -6143.38)
(31577 31402 -3995.03)
(11559.9 8624.41 -1181.2)
(1356.01 808.747 -111.791)
(8.01088 2.04616 -0.294997)
(0.000320962 0.000244596 -1.028e-05)
(1.25429e-08 1.26159e-07 -1.40344e-09)
(1.16911e-12 7.23584e-12 -5.56269e-14)
(3.21476e-20 2.19112e-18 0)
(0 0 0)
(0 0 0)
(0 0 0)
(-35798.5 82269.1 -3758.58)
(-21173.8 88718.7 -5727.33)
(-9727.13 99619.2 -6516.37)
(4353.84 86875.9 -10478.3)
(11995.1 63763.4 -7347.95)
(17804.2 62012.3 -6049.07)
(24534.2 61612.5 -5549.26)
(33082.7 61045.9 -5752.7)
(36094.3 48322.1 -5223.29)
(19442.3 19242.2 -2237.74)
(4552.26 3761.62 -430.435)
(122.9 64.4883 -6.66401)
(0.0503708 0.0119318 -0.00116102)
(1.56673e-07 1.58006e-08 -1.54381e-09)
(3.52428e-13 2.88014e-13 -4.34585e-15)
(1.73067e-16 2.243e-20 0)
(0 0 0)
(0 0 0)
(0 0 0)
(0 0 0)
(-26751.9 73578.2 -2611.74)
(-15372.4 80660.4 -3587.34)
(-5711.79 86537.8 -4065.27)
(4141.01 76426.4 -6634.82)
(9509.42 58352.4 -4843.91)
(14849.2 56513.5 -4614.47)
(20991.8 55015.4 -4695.07)
(26521.3 48848.1 -4625.85)
(20134.8 26784.1 -2732.16)
(7170.66 7445.4 -760.733)
(452.804 373.207 -32.7435)
(0.732825 0.340414 -0.0220395)
(4.51859e-06 1.59896e-06 -7.0244e-08)
(8.68956e-12 1.44574e-12 -6.10158e-14)
(1.76032e-16 1.73668e-16 0)
(0 0 0)
(0 0 0)
(0 0 0)
(0 0 0)
(0 0 0)
(-17823.6 53601.9 -1816.05)
(-10894.9 60794.2 -2424.32)
(-3234.37 61226.9 -2561.13)
(2950.66 54004.1 -4292.63)
(6970.98 43747.9 -3402.74)
(10730.4 41064.5 -3248.29)
(13992.4 35889.5 -3021.51)
(13016.5 23562.8 -2104.07)
(6505.75 8633.39 -787.11)
(651.955 706.864 -55.0812)
(2.19478 1.6993 -0.0837325)
(3.44115e-05 2.14691e-05 -6.83438e-07)
(6.0763e-11 2.08614e-11 -5.62353e-13)
(1.75994e-16 1.75078e-16 0)
(0 0 0)
(0 0 0)
(0 0 0)
(0 0 0)
(0 0 0)
(0 0 0)
(-7547.1 26558 -858.317)
(-5600.65 32091.6 -1216.11)
(-1263.25 31046.9 -1259.46)
(1745.68 26775 -1874.12)
(3429.04 21972.1 -1507.85)
(4870.64 18943.7 -1349.62)
(5305 13640.5 -1014.38)
(3387.55 6034.18 -474.29)
(420.24 602.112 -40.6275)
(2.01337 2.52963 -0.0975961)
(6.14448e-05 5.98441e-05 -1.49438e-06)
(1.32293e-10 8.84692e-11 -1.57337e-12)
(3.47985e-16 1.75493e-16 0)
(0 0 0)
(0 0 0)
(0 0 0)
(0 0 0)
(0 0 0)
(0 0 0)
(0 0 0)
(-1822.72 8140.47 -228.145)
(-1574.83 10632.7 -334.631)
(-168.011 10222.7 -353.999)
(726.462 8189.35 -430.36)
(888.065 6095.99 -315.842)
(1023.93 4318.61 -245.672)
(691.874 1876.02 -112.814)
(89.1383 203.931 -9.98087)
(0.556806 1.19063 -0.0352455)
(3.19601e-05 4.77935e-05 -9.62044e-07)
(1.08651e-10 1.3974e-10 -1.76268e-12)
(3.47995e-16 3.47928e-16 0)
(0 0 0)
(0 0 0)
(0 0 0)
(0 0 0)
(0 0 0)
(0 0 0)
(0 0 0)
(0 0 0)
(-67.6335 413.918 -7.97208)
(-100.109 895.414 -21.7419)
(3.93252 845.301 -22.2907)
(47.5938 471.351 -15.8546)
(25.6095 231.882 -7.13856)
(15.3588 99.8509 -3.19819)
(2.8965 14.0379 -0.40994)
(0.0313626 0.115523 -0.0024886)
(3.98251e-06 9.35621e-06 -1.49786e-07)
(3.36514e-11 8.46019e-11 -8.11805e-13)
(1.75134e-16 3.47668e-16 0)
(0 0 0)
(0 0 0)
(0 0 0)
(0 0 0)
(0 0 0)
(0 0 0)
(0 0 0)
(0 0 0)
(0 0 0)
(-217055 -217044 -14899.7)
(-186915 -260053 -22162.7)
(-153563 -311958 -29386.1)
(-93976 -328172 -36764.4)
(-22852.7 -347383 -39370.3)
(46469.9 -339260 -44759.5)
(114744 -320606 -43015)
(168258 -293292 -42250.3)
(206401 -261734 -39028.5)
(219267 -214192 -32330)
(204668 -159138 -24297.6)
(168658 -109100 -16374.2)
(122898 -69885.9 -9737.5)
(95003.3 -48910.1 -6110.29)
(87254.9 -38552.5 -4347.14)
(78284.4 -28699.4 -3020.96)
(57624.2 -19383.6 -2174.32)
(28992.3 -8438.43 -1274.16)
(9195.4 -2104.8 -498.624)
(563.187 -98.0277 -31.445)
(-259904 -186869 -22232.1)
(-215412 -215505 -32596.9)
(-179974 -261317 -44114.3)
(-113166 -285227 -56050.2)
(-30716.8 -318135 -61161.8)
(55526.3 -327008 -68737.7)
(143216 -317222 -68645.2)
(215736 -297887 -69357.5)
(269010 -263543 -62819.5)
(272956 -190378 -48488)
(240500 -123586 -34047.7)
(194473 -77466.1 -22453.4)
(143696 -47116.5 -13679.2)
(106405 -30196.3 -8473.12)
(94070.9 -23003 -6106.92)
(85767 -16778.3 -4020.16)
(65409.4 -11825.6 -2724.32)
(35207.2 -6242.57 -1569.95)
(11900.2 -1814.07 -633.163)
(1170.37 -140.297 -73.6681)
(-311669 -153495 -29531.1)
(-261130 -179912 -44218)
(-219872 -219683 -57486.6)
(-149083 -251430 -71767.1)
(-52926.4 -304091 -82843.8)
(66125.1 -333078 -93244)
(182562 -327346 -96479.1)
(278396 -308769 -97316.7)
(334200 -239546 -80599)
(311524 -135982 -55460.9)
(264930 -76070.1 -36741.4)
(212021 -43076.5 -23661.1)
(157930 -24269.5 -14449.5)
(118154 -15043.2 -9040.35)
(102940 -10945.1 -6578.96)
(90767.2 -6600.49 -4504.17)
(65827.5 -3684.83 -2947.86)
(34000.8 -1536.26 -1634.79)
(11472.8 -244.023 -664.177)
(1118.04 0.731154 -76.1721)
(-327865 -93872.8 -37031.5)
(-284952 -112744 -56324.9)
(-251146 -148035 -71960.9)
(-199777 -198649 -84829.2)
(-113722 -249198 -95928.4)
(27470.6 -313881 -114239)
(173762 -328173 -124600)
(293087 -297218 -121572)
(371406 -229682 -103518)
(251912 -26845.2 -41290.3)
(213686 -4951.27 -30634.9)
(172640 2731.88 -21173.3)
(128058 4507.56 -13415.1)
(97941.4 4318.96 -8995.45)
(87501.8 4393.57 -6951.6)
(78528.1 4209.43 -4910.47)
(57351.7 3046.43 -3404.87)
(29400.8 1774.32 -1867.13)
(9326.6 755.317 -679.593)
(668.345 65.8463 -51.6151)
(-347187 -22858.8 -39582.5)
(-317059 -30671.9 -61095.1)
(-301880 -52682.2 -82286.3)
(-246666 -112507 -94494.5)
(201923 1782.88 -38621.5)
(141346 39607 -20400.7)
(136900 37076.1 -18206.6)
(119911 29628.4 -14499)
(92095.8 20556.8 -10044.2)
(70158.1 14493.5 -6820.87)
(64765.6 11941.2 -5204.5)
(60058.7 9394.63 -3607.57)
(46450 7043.35 -2693.5)
(24301.6 3556.88 -1657.48)
(7262.03 952.907 -614.265)
(364.051 37.7385 -30.6553)
(-338979 46239 -44818.2)
(-326595 55256.2 -68904.9)
(-332040 65718 -93291.5)
(-312141 25889.5 -114118)
(117899 48289.5 -15150.9)
(109551 49696 -12522.5)
(105500 47646.5 -12099.6)
(92541.7 39427.3 -10521.9)
(72122.1 27011.8 -7466.33)
(62138.5 20423.1 -5514.4)
(61704.9 17382 -4246.71)
(57817.2 14692.5 -3216.4)
(44185.9 11089.9 -2550.17)
(21709.6 5355.83 -1685.49)
(5687.95 1256.21 -592.151)
(193.932 29.6894 -18.682)
(-320527 114653 -43234)
(-317141 143104 -68954.1)
(-327108 182357 -96602.3)
(-327362 173125 -124888)
(91437.8 51101.4 -9918.79)
(82652.3 48588.6 -9144.61)
(78867.1 45314 -8809.71)
(73612.6 38721.9 -7593.89)
(65274.8 31104.5 -5649.3)
(62503 27556.1 -4400.45)
(61260.8 23877.7 -3580.41)
(56803.3 21052.5 -3243.39)
(40645.1 15219.6 -2899.91)
(16784.2 6266.07 -1700.15)
(2990.97 1078.07 -394.506)
(40.885 9.054 -3.9953)
(-293275 168230 -42098.6)
(-297946 215748 -69085.6)
(-308781 278360 -97049.8)
(-297230 292621 -121854)
(67485.2 44438.3 -6815.86)
(66551.8 44016.5 -7018.29)
(69202.6 45394.2 -6391.49)
(66881 42756.8 -5435.92)
(63195.5 39148.4 -4371.33)
(62561.8 36114 -3744.99)
(62182.8 32920.3 -3920.84)
(54434.9 28385.7 -4406.04)
(29519.2 15659.2 -3252.84)
(8637.92 4614.06 -1233.5)
(506.885 235.361 -74.2025)
(0.752317 0.207509 -0.0605183)
(-261940 206506 -38900.9)
(-263540 269033 -62843)
(-238952 334018 -81568)
(-223131 369034 -103710)
(6380.82 204090 -35271.5)
(49507 118467 -15823.1)
(50160.3 89636.9 -9565.6)
(43420.2 65896.3 -6207.59)
(31847.6 33137.1 -3550.3)
(43929 34107.1 -3519.08)
(54526.7 40849.3 -3944.08)
(58899.4 44296.6 -4342.77)
(60197.3 44729 -4423.24)
(60380.3 43565 -4833.09)
(55142.3 39403.6 -5637.94)
(34521 24869.7 -4532.13)
(12060.5 8753.25 -1911.45)
(1402.03 992.11 -253.058)
(7.43042 3.50055 -0.806025)
(0.000208515 8.01435e-05 -1.41105e-05)
(-214428 219474 -32518.8)
(-190353 272982 -49185.8)
(-135597 311235 -56938.6)
(-26076.7 252268 -44555.9)
(40744.5 143558 -21519.9)
(49864.7 109231 -12124.6)
(47488.4 80686.4 -8270.01)
(43016 64656.1 -6128.11)
(33810.9 44252.7 -3261.77)
(28879.6 29239.4 -1925.73)
(34275.6 29600.2 -2713.86)
(41215 35216.3 -4031.06)
(43435.8 38943.2 -4999.46)
(39040.5 36750.7 -5506.35)
(25826.8 24730.9 -4263.75)
(10618.4 10055.7 -1997.94)
(1656.65 1489.86 -341.828)
(15.5014 12.2971 -2.18606)
(0.00112095 0.000715799 -9.25691e-05)
(2.15315e-09 8.02236e-10 -1.03856e-10)
(-159283 204858 -24666.4)
(-123708 240777 -34991)
(-76089.4 265093 -38277.1)
(-4812.78 214211 -32588.6)
(37516.7 138084 -19145.2)
(47896.5 105717 -11889.9)
(45039.4 78287.2 -8120.11)
(44878.9 68260.6 -5794.62)
(41218.8 54793.1 -4007.51)
(29923.8 34752.4 -2748.73)
(22150.1 22096.8 -2984.06)
(21260.7 21895.4 -3871.38)
(17916.2 20873.7 -3671.31)
(12212.1 15395.3 -2731.99)
(5869.78 7019.34 -1391.76)
(972.948 1100.45 -232.453)
(10.982 13.5528 -1.96528)
(0.00139164 0.00143423 -0.000145758)
(3.66958e-09 2.79694e-09 -2.25731e-10)
(6.95336e-15 4.37357e-15 -1.73834e-16)
(-109200 168834 -16723.9)
(-77595.8 194832 -23190.2)
(-43232.7 212658 -24924.8)
(2720.09 173254 -22181.1)
(29763.1 120658 -15143.8)
(39807.8 93330.9 -10405.6)
(38879.5 73808.7 -7202.2)
(42707.6 66636.9 -5160.91)
(44737.8 59131.1 -4513.69)
(35592.4 41408.8 -4020.69)
(21801.9 21045.4 -3705.72)
(12270.2 12293.9 -2992.37)
(5349.39 7063.57 -1618.05)
(1737.96 2627.51 -551.386)
(209.169 346.547 -63.6522)
(2.39276 4.97603 -0.584512)
(0.000500794 0.000837176 -7.07288e-05)
(2.31743e-09 3.49232e-09 -2.06652e-10)
(6.84283e-15 7.53895e-15 -3.47668e-16)
(0 1.9447e-24 0)
(-69951.1 123038 -9954.37)
(-47210.7 143995 -14127)
(-24398.6 158645 -15275.6)
(4479.89 128593 -13920)
(20632.8 92709.5 -10445.6)
(27314.8 72946.1 -7472.83)
(31342.2 65744.6 -5577.71)
(39420 63433.8 -4390.63)
(45148.9 60491.2 -4558.76)
(38949.7 43172 -4786.8)
(20552.3 17559.6 -3313.94)
(6927.19 5283.52 -1460.4)
(536.215 546.924 -134.308)
(11.7991 35.0693 -4.85413)
(0.102747 0.401726 -0.0376628)
(3.4786e-05 0.00010669 -7.70921e-06)
(5.1637e-10 1.58713e-09 -7.799e-11)
(3.15302e-15 6.48801e-15 -1.73834e-16)
(1.9447e-24 4.34611e-27 0)
(0 0 0)
(-48950.1 95104.2 -6243.75)
(-30252.1 106635 -8742.31)
(-15109.8 118695 -9516)
(4298.6 98373.9 -9312.63)
(14551.9 70681.3 -7079.39)
(20588.2 62675.3 -5581.81)
(27765.4 62918.9 -4477.73)
(36444.3 62942.7 -3901.37)
(43870.1 60646.8 -4874.91)
(36436.1 38533.4 -5102.02)
(15059.3 11901.3 -2402.57)
(2510.47 1656.5 -461.157)
(31.7021 10.6549 -3.72211)
(0.00455893 0.00525538 -0.000622968)
(2.35035e-07 1.84645e-06 -1.05769e-07)
(3.05873e-11 1.85469e-10 -8.29867e-12)
(5.28394e-16 2.44869e-15 0)
(0 1.9447e-24 0)
(0 0 0)
(0 0 0)
(-38585.9 87344.8 -4455.74)
(-23042.2 94246.2 -6307.55)
(-10984.6 103370 -6900.13)
(4380.08 87931.9 -7202.18)
(11996.8 65216.9 -5364.26)
(17504 62111.6 -4350.41)
(24059.3 61648.4 -3747.74)
(33193.5 62619.5 -4095.75)
(39478.9 55144.9 -5538.16)
(24377.8 25346.7 -3910.56)
(6829.13 5701.75 -1225.87)
(322.825 191.799 -51.7218)
(0.347916 0.0871097 -0.027588)
(1.5399e-06 1.91043e-07 -7.0452e-08)
(3.84437e-12 4.47322e-12 -2.6162e-13)
(2.29343e-18 1.81185e-16 0)
(0 0 0)
(0 0 0)
(0 0 0)
(0 0 0)
(-28723.1 78338.8 -3107.5)
(-16825.3 85926.5 -4166.21)
(-6644.13 91105.5 -4708.45)
(4194.4 78951.5 -5091.68)
(9432.47 60456.4 -3713.34)
(14772.8 58147.5 -3363.99)
(21182.6 57105.1 -3422.17)
(28520.4 54627.1 -4488.2)
(24758.4 34292.1 -4358.67)
(9921.77 10439 -1842.14)
(1052.6 924.787 -202.433)
(4.48846 2.13093 -0.465601)
(8.89172e-05 2.87208e-05 -5.45529e-06)
(1.54475e-10 2.53049e-11 -5.66108e-12)
(5.20785e-16 2.14612e-18 0)
(0 0 0)
(0 0 0)
(0 0 0)
(0 0 0)
(0 0 0)
(-19396 57640.4 -2239.86)
(-11864.5 65533.4 -2825.66)
(-3719.65 66036.2 -3071.55)
(3033.65 57668.5 -3522.43)
(7067.73 46736.8 -2780.3)
(11147.2 44423.9 -2670.04)
(15300.4 40828.5 -3007.53)
(15680.5 29512.1 -3231.28)
(8708.17 11952.9 -1822.6)
(1445.73 1602.58 -309.355)
(12.5513 10.0736 -1.64446)
(0.00072204 0.000429265 -5.32673e-05)
(1.35789e-09 4.37886e-10 -5.63346e-11)
(2.09653e-15 6.96557e-16 0)
(0 0 0)
(0 0 0)
(0 0 0)
(0 0 0)
(0 0 0)
(0 0 0)
(-8440.26 28988.9 -1313.26)
(-6262.98 35264.9 -1626.57)
(-1557.63 34094.6 -1696.28)
(1764.36 29562.6 -1928.02)
(3573.78 24458.5 -1707.39)
(5393.64 21838.4 -1742.59)
(6299.14 16841 -1719.96)
(4617.01 8616.11 -1205.23)
(973.552 1371.74 -235.78)
(11.6034 14.5142 -1.89362)
(0.00126907 0.00122111 -0.000114265)
(3.0506e-09 2.00086e-09 -1.55014e-10)
(5.77129e-15 2.79673e-15 -1.73834e-16)
(1.94471e-24 0 0)
(0 0 0)
(0 0 0)
(0 0 0)
(0 0 0)
(0 0 0)
(0 0 0)
(-2104.4 9187.5 -512.908)
(-1818.85 11906.3 -653.258)
(-253.405 11498.6 -685.007)
(749.43 9377.9 -697.296)
(960.12 7325.33 -630.825)
(1271.21 5734.87 -604.505)
(1085.95 3001.66 -393.098)
(233.602 501.595 -70.9439)
(3.3633 7.0827 -0.720026)
(0.000648559 0.00100453 -7.50089e-05)
(2.48919e-09 3.22299e-09 -1.73754e-10)
(6.64549e-15 6.29654e-15 0)
(4.3461e-27 1.94469e-24 0)
(0 0 0)
(0 0 0)
(0 0 0)
(0 0 0)
(0 0 0)
(0 0 0)
(0 0 0)
(-97.7961 561.264 -32.186)
(-140.561 1169.6 -75.7455)
(-0.466913 1121.59 -78.3667)
(65.8611 676.448 -53.2004)
(38.6147 371.762 -31.8406)
(30.4728 197.42 -19.1194)
(9.16129 41.119 -3.94716)
(0.204304 0.734916 -0.0562204)
(7.4992e-05 0.000192161 -1.18992e-05)
(7.29216e-10 1.92632e-09 -8.17929e-11)
(3.84087e-15 6.43186e-15 -1.73834e-16)
(1.9447e-24 0 0)
(0 0 0)
(0 0 0)
(0 0 0)
(0 0 0)
(0 0 0)
(0 0 0)
(0 0 0)
(0 0 0)
(-223021 -222994 -13258.5)
(-190710 -265503 -18956.8)
(-157262 -318180 -24097.7)
(-97187.8 -336754 -29601.2)
(-25637.4 -357705 -32811.1)
(45195.1 -352560 -36449.9)
(114696 -334767 -34994)
(169559 -308190 -34071.7)
(209912 -276862 -30640)
(224240 -226282 -24956.7)
(211342 -168715 -18811.7)
(178009 -117329 -12763.6)
(132783 -76198.7 -7479.56)
(100841 -52341.5 -4455.28)
(91747.8 -41308.1 -3155.58)
(82401.8 -30713 -2106.15)
(61389.7 -20982.8 -1511.3)
(31604.1 -9503.71 -945.615)
(10402.5 -2470 -406.668)
(786.156 -147.614 -35.0606)
(-265357 -190609 -18998.6)
(-219432 -219463 -26546.6)
(-186223 -268412 -34731.6)
(-119408 -297624 -44055.2)
(-36353.2 -335450 -50452.5)
(53800.1 -350145 -56752.2)
(145064 -340798 -56483.7)
(220695 -321923 -55707)
(276405 -282157 -48647.6)
(279274 -201202 -36320.9)
(246784 -130866 -25187.7)
(202940 -83658.2 -16673.2)
(153927 -52141.8 -10013.5)
(113723 -33226.4 -5848.44)
(98813.7 -25087.7 -4165.81)
(90201 -18512.6 -2803.83)
(70107.1 -13049.6 -1864.13)
(38584.4 -7072.33 -1122.62)
(13485.5 -2175.24 -509.7)
(1560.03 -204.914 -75.4149)
(-318044 -157224 -24232.8)
(-268416 -186220 -34873)
(-229871 -229735 -44359.5)
(-158759 -265906 -55708.8)
(-61773.1 -323862 -66342.9)
(62052.1 -357444 -76061.3)
(182990 -352944 -78824.5)
(283548 -335100 -78429.4)
(340545 -253184 -61809)
(316957 -143265 -41155.7)
(273169 -82173.7 -27762.4)
(224864 -48813.5 -18819.9)
(173475 -28846.8 -11800.7)
(130671 -17982.3 -7154.13)
(111987 -13027.7 -5123.71)
(98341.2 -8278.2 -3553.7)
(72104.1 -4704.1 -2232.52)
(37664.1 -2138.31 -1241.09)
(13143.1 -451.977 -551.639)
(1527.19 -18.6259 -80.9962)
(-336604 -97273.4 -29935.1)
(-297497 -119421 -44567.4)
(-265363 -158472 -56697.9)
(-210199 -209981 -64173.6)
(-124696 -268099 -75273)
(19537.5 -335057 -92493.2)
(170853 -352935 -102131)
(293219 -323158 -100342)
(373395 -245039 -80081.3)
(253020 -27840.3 -30473.3)
(222836 -7497.33 -23363.2)
(190370 -303.497 -17506.2)
(150192 2208.87 -11692.8)
(115769 2650.31 -7434.05)
(101622 2988.13 -5541.87)
(89988.6 3404.72 -4041.75)
(65618.3 2643.52 -2711.29)
(33865.3 1547.74 -1508.67)
(11154.7 698.421 -603.1)
(1030.32 85.9891 -65.0951)
(-357766 -25677.1 -32931.8)
(-335209 -36392.9 -50774.8)
(-322712 -61761.4 -67439.5)
(-265942 -124278 -77084.5)
(191705 -962.304 -27688.1)
(149097 37140.6 -14843.3)
(148725 36719 -14146.2)
(136905 31398.2 -12249.3)
(111999 23450.6 -8820.03)
(85443.9 16639.6 -5553.55)
(76761.6 13650.1 -4128.94)
(70201.9 10565.1 -3029.98)
(53726.9 7760.74 -2201.3)
(28601 3976.26 -1367.58)
(9166.1 1112.89 -569.711)
(664.853 66.8113 -46.2713)
(-352498 45057.8 -36471.3)
(-350300 53843.3 -56772.5)
(-357428 62077.7 -76049.2)
(-334462 18717.8 -92665.6)
(124245 44786.9 -12561.9)
(118792 49901.8 -9616)
(117031 49526.2 -9688.28)
(107591 44222.5 -8793.18)
(88668.4 32957.9 -6372.42)
(75342.3 24744 -4377.01)
(73014 20794.4 -3486.92)
(68328.3 16955.8 -2740.22)
(51831.8 12611.3 -2038.3)
(26155.1 6264.51 -1331.47)
(7790.7 1662.69 -546.359)
(422.623 67.9309 -31.2575)
(-335119 114772 -35244.2)
(-341436 145321 -56797.2)
(-353546 183363 -79017.7)
(-353103 170980 -102152)
(95251.7 48944.9 -8651.18)
(90283.6 51502.1 -6754.59)
(88992.7 50142.3 -6878.04)
(86049.4 45211.6 -6266.62)
(79292.9 37660 -4708.29)
(74522.7 32789.6 -3570.65)
(73104 28552.4 -3035.84)
(66398 24052.8 -2500.18)
(48030.2 17436.6 -2037.89)
(21205.7 7738.37 -1306.18)
(4845.63 1721.95 -411.586)
(123.214 30.3508 -9.0961)
(-307899 169616 -33968.3)
(-321469 220930 -55471.5)
(-334940 283904 -78246.2)
(-323007 294759 -100249)
(70876.5 45422.1 -6688.6)
(73724.1 48959.2 -4740.68)
(77966.7 50791.1 -4592.13)
(77805.5 48985.8 -4168.05)
(75027.9 45664.9 -3539.78)
(74317.1 42652.8 -3072.04)
(72517.7 38080.9 -2800.46)
(63022.8 32170.1 -2861.57)
(36935.1 19095.3 -2329.75)
(12159.2 6297.96 -1040.61)
(1251.8 612.159 -128.246)
(5.2764 1.46542 -0.316112)
(-276979 209984 -30690.2)
(-284331 277178 -49207.2)
(-259064 343130 -63769.9)
(-248758 375644 -84597.3)
(-19.0799 192848 -31790.2)
(44542.5 120316 -11458.2)
(49396.9 95458.1 -8127.44)
(45120.9 70755.8 -5918.88)
(36424.2 36429.3 -2679.98)
(51537.6 40361.5 -2387.27)
(64140.5 48614.3 -2966.22)
(69905.6 53020 -3289.28)
(71203 53253.6 -3310.07)
(70796.3 50993.1 -3245.87)
(64514.3 45267.9 -3552.36)
(43581.2 30539.6 -3216.76)
(16957.7 11907 -1571.62)
(3009.61 2108.93 -353.366)
(41.2529 21.0445 -3.44716)
(0.00508764 0.00183563 -0.000233215)
(-227328 224786 -25275.7)
(-204076 280839 -37421.5)
(-147150 319626 -43334.4)
(-30256.8 252029 -31872.9)
(35482.4 141495 -14761.7)
(48816.5 116519 -9238.98)
(51390.7 90533.5 -6500.57)
(49291.9 75466.8 -4488.31)
(40357 52622.9 -2281.69)
(35764 36173.8 -1453.46)
(42623.3 37596.7 -2043.61)
(50976.9 44264.2 -2882.25)
(53246.8 47584.4 -3310.86)
(48541.2 44413.1 -3600.68)
(34333 31597.3 -3157.93)
(15404.7 14079.6 -1677.56)
(3542.2 3112.28 -469.43)
(83.7197 66.0108 -8.88305)
(0.0262858 0.015539 -0.00148412)
(6.53117e-08 2.20299e-08 -2.0088e-09)
(-169812 212146 -19203.3)
(-132605 248035 -26074.1)
(-83754.3 274057 -29111.9)
(-8356.1 219779 -24204.4)
(35325.2 142085 -14014.7)
(48259.9 114392 -9292.45)
(49601.9 88897.2 -6475.65)
(51047.6 79164.2 -4274.32)
(48478.1 64854.5 -2925.87)
(36778.7 42066.4 -1951.45)
(27188.9 27245.3 -1895.49)
(26307.2 26661.1 -2453.76)
(23731.7 26213.5 -2505.45)
(17262.3 20417.3 -2072.89)
(9087.03 10598.7 -1246.06)
(2296.25 2478.73 -349.275)
(64.121 74.1048 -8.37137)
(0.0332634 0.033766 -0.00241694)
(1.1188e-07 8.13942e-08 -4.41722e-09)
(2.43889e-13 1.31978e-13 -5.91036e-15)
(-118141 178812 -13096.8)
(-84563.9 203775 -17275.4)
(-49432.5 224829 -19610)
(-614.047 187498 -18156)
(30426.9 131759 -12331.2)
(42891 104866 -8481.82)
(44286.7 85642.9 -5912.54)
(49170.2 78402.8 -4012.59)
(52674.1 70162.1 -3294.61)
(42913.5 49635.7 -2776.34)
(25485.3 25305.9 -2339.93)
(15586 15810.6 -2050.99)
(8395.32 10458.6 -1354.16)
(3427.74 4799.73 -611.848)
(684.666 992.17 -129.396)
(17.3288 31.1195 -2.88673)
(0.0122933 0.0213912 -0.00125318)
(7.14576e-08 1.08089e-07 -4.17722e-09)
(2.43572e-13 2.5472e-13 -7.47487e-15)
(0 7.74384e-19 0)
(-76688.7 133399 -7684)
(-52631.6 154511 -10375.4)
(-29157.3 173397 -12275.2)
(2061.19 148352 -12161.2)
(22788.3 108363 -8981.81)
(31850.8 86405.5 -6250.62)
(36855.2 78543.4 -4600.82)
(45660.1 75144 -3535.97)
(52801.5 71203.8 -3331.31)
(45999 51472.3 -3153.34)
(24774.2 22356.8 -2290.03)
(9876.83 8154.41 -1266.42)
(1470.29 1540.87 -244.331)
(61.8814 139.503 -14.3364)
(1.05279 3.65326 -0.254785)
(0.00102158 0.00321747 -0.000158835)
(1.60751e-08 5.24017e-08 -1.65027e-09)
(1.10737e-13 2.24242e-13 -5.38886e-15)
(7.74383e-19 2.59692e-21 0)
(0 0 0)
(-52527.1 101044 -4558.96)
(-33451.4 113942 -6028.45)
(-18151.7 130646 -7428.36)
(2552.36 114940 -7742.61)
(16225.8 83258.1 -5706.63)
(24045.2 73832.5 -4414.51)
(32256.6 73737.6 -3615.34)
(42426.6 74148.6 -3124.44)
(50479.7 70545.8 -3263.93)
(42947.8 46754.2 -3393.12)
(19234.6 16088.8 -1870.63)
(4318.8 3076.13 -528.073)
(109.844 49.7055 -10.6262)
(0.0528251 0.0732342 -0.00563738)
(8.43731e-06 5.90229e-05 -2.49191e-06)
(9.56238e-10 6.49862e-09 -1.84329e-10)
(1.86575e-14 8.6868e-14 -1.56451e-15)
(3.8806e-19 7.74819e-19 0)
(0 0 0)
(0 0 0)
(-41434.6 91865.5 -3238.03)
(-25221.9 98887.4 -4291.31)
(-13138.6 111996 -5312.57)
(2935.69 101189 -5766.16)
(13375.7 75296.6 -4262.37)
(20332.3 71850.9 -3576.96)
(28107.4 72292.9 -3108.47)
(37752 72248.8 -2866.47)
(44791.2 63991.4 -3529.75)
(30582.6 32995.3 -2976.51)
(9969.17 8463.06 -1134.89)
(845.304 566.606 -105.024)
(2.57279 0.698442 -0.167592)
(3.25681e-05 4.61334e-06 -1.30734e-06)
(6.71107e-11 1.09242e-10 -4.34759e-12)
(1.04703e-15 1.02829e-14 0)
(0 3.88493e-19 0)
(0 0 0)
(0 0 0)
(0 0 0)
(-30786.2 82457 -2180.73)
(-18608.1 90289.1 -2906.23)
(-8357.56 98422.5 -3690.88)
(3382.21 89830.3 -4174.78)
(10419.9 69410.8 -3098.67)
(16720.1 67630.1 -2813.09)
(23786.1 65957.3 -2573.83)
(31941.1 62805.7 -2920.83)
(30115.5 42941.4 -3166.34)
(13645.8 14792.5 -1595.42)
(2265.63 2074.29 -311.001)
(25.1502 13.402 -2.2152)
(0.00213528 0.000643489 -0.000100442)
(4.19008e-09 5.95261e-10 -1.14013e-10)
(6.62483e-15 8.72508e-16 0)
(0 0 0)
(0 0 0)
(0 0 0)
(0 0 0)
(0 0 0)
(-21038.4 61457.2 -1572.83)
(-13121.1 70263.8 -1944.18)
(-4755.63 72291 -2317.54)
(2629.59 65758.2 -2790.19)
(7723.96 53624.5 -2256.83)
(12546.7 51755.9 -2110.25)
(17355.9 47997.7 -2107.73)
(18970.5 36738.1 -2352.31)
(11718.7 16610.5 -1541.97)
(2945.22 3329.17 -438.801)
(63.8605 54.1097 -6.96476)
(0.0157197 0.00888518 -0.000889197)
(3.69691e-08 1.10394e-08 -1.12247e-09)
(6.04943e-14 1.27267e-14 -1.043e-15)
(3.88493e-19 0 0)
(0 0 0)
(0 0 0)
(0 0 0)
(0 0 0)
(0 0 0)
(-9542.17 31671.7 -988.589)
(-7123.11 38732.7 -1173.89)
(-2170.84 37823.1 -1291.76)
(1537.14 34044.6 -1556.46)
(3985.5 28749.8 -1411.18)
(6285.49 26285.4 -1379.86)
(7739.83 21226.8 -1339.92)
(6257.94 12052.5 -1044.05)
(2034.59 2887.44 -340.254)
(59.0087 73.9317 -7.76547)
(0.0263031 0.0253982 -0.00182484)
(8.04248e-08 5.17091e-08 -2.99691e-09)
(1.62797e-13 7.79214e-14 -3.82435e-15)
(1.74609e-16 3.8806e-19 0)
(0 0 0)
(0 0 0)
(0 0 0)
(0 0 0)
(0 0 0)
(0 0 0)
(-2481.29 10430.6 -426.6)
(-2192.32 13539.5 -534.667)
(-463.794 13212.6 -576.75)
(692.145 11229 -624.498)
(1119.37 9240.42 -588.93)
(1677.85 7846.23 -564.866)
(1726.92 4843.72 -420.48)
(598.861 1220.27 -126.386)
(19.3435 37.6069 -3.13332)
(0.0127011 0.0209983 -0.00117856)
(6.3136e-08 8.41809e-08 -3.29691e-09)
(1.90323e-13 1.77263e-13 -5.04119e-15)
(2.59691e-21 1.74608e-16 0)
(0 0 0)
(0 0 0)
(0 0 0)
(0 0 0)
(0 0 0)
(0 0 0)
(0 0 0)
(-149.187 792.006 -37.0633)
(-207.614 1572.43 -79.6365)
(-20.0379 1543.57 -85.4765)
(86.2675 1046.88 -68.3797)
(68.6107 681.001 -48.8224)
(69.854 430.205 -32.7791)
(30.4436 122.745 -9.26248)
(1.39162 4.96416 -0.299724)
(0.00157528 0.00426823 -0.000195747)
(1.77272e-08 5.0788e-08 -1.55048e-09)
(1.01616e-13 1.827e-13 -4.34585e-15)
(1.74608e-16 0 0)
(0 0 0)
(0 0 0)