/*--------------------------------*- C++ -*----------------------------------*\
  =========                 |
  \\      /  F ield         | OpenFOAM: The Open Source CFD Toolbox
   \\    /   O peration     | Website:  https://openfoam.org
    \\  /    A nd           | Version:  9
     \\/     M anipulation  |
\*---------------------------------------------------------------------------*/
FoamFile
{
    format      ascii;
    class       volScalarField;
    location    "0.001";
    object      T;
}
// * * * * * * * * * * * * * * * * * * * * * * * * * * * * * * * * * * * * * //

dimensions      [0 0 0 1 0 0 0];

internalField   nonuniform List<scalar> 
9720
(
1686.94
1720.5
1747.41
1762.18
1774.21
1772.5
1758.78
1741.54
1715.98
1673.64
1612.56
1529.66
1424.71
1349.78
1356.62
1447.61
1847.47
3137.12
6420.71
1544.05
1720.42
1745.71
1767.63
1784.76
1800.33
1805.16
1796.19
1784.02
1761.27
1712.62
1645.82
1560.05
1440.45
1316.94
1297.89
1337.83
1577.43
2581.83
5582.82
2786.48
1747.36
1767.53
1788.42
1807.29
1825.88
1835.91
1830.4
1817.77
1784.57
1725.27
1659.17
1583.61
1484.25
1370.4
1339.77
1369.34
1567.92
2498.92
5339.83
2573.7
1762.13
1784.42
1806.88
1808.39
1843.85
1863.68
1870.63
1858.86
1824.33
1670.8
1614.8
1555.76
1472.72
1367.18
1343.03
1379.01
1623.53
2690.9
5534.2
1611.83
1774.15
1799.69
1824.82
1843.49
1655.33
1545.82
1530.27
1495.52
1430.44
1337.75
1326.52
1378.59
1730.23
3027.43
5641.36
951.337
1772.57
1804.93
1835.38
1862.53
1500.03
1483.06
1475.08
1445.11
1369.16
1290.67
1299.44
1395.18
1878.07
3417.74
5440.62
602.715
1758.79
1795.94
1830.03
1869.85
1443.61
1407.37
1392.57
1347.17
1283.86
1278.29
1311.07
1502.65
2207.02
4256.2
3934.64
379.278
1741.71
1783.93
1817.29
1858.4
1345.35
1280.02
1288.31
1295.46
1293.78
1314.2
1436.26
1859.02
2984.66
5668.28
912.403
348.343
1716.14
1760.66
1782.57
1819.88
1648.33
1512.02
1452.88
1357.1
1231.37
1262.55
1331.52
1374.77
1418.15
1533.89
1865.62
2672.99
5189.21
2007.01
350.284
348.189
1673.49
1711.46
1723.23
1668.11
1549.62
1488.47
1414.27
1289.32
1263.02
1396.17
1694.48
1832.96
1938.36
2176.61
2875.61
5095.62
2343.82
353.644
348.189
348.189
1612.16
1644.6
1657.67
1613.66
1532.27
1479.2
1399.29
1291.37
1324.98
1659.71
2815.18
3460.34
3479.78
4011.93
5110.1
1651.13
352.728
348.189
348.189
348.189
1529.11
1558.81
1582.27
1554.94
1495.91
1447.76
1353.14
1294.41
1363.21
1787.69
3300.16
6619.03
5411.74
3082.76
667.916
349.346
348.189
348.189
348.189
348.189
1424.12
1439.07
1482.65
1471.4
1430.13
1371.49
1286.22
1293.33
1406.71
1901.82
3355.22
5456.61
879.295
362.236
348.242
348.189
348.189
348.189
348.189
348.189
1349.66
1316.24
1369.16
1366.04
1337.84
1292.09
1279.2
1313.61
1525.64
2156.86
3948.79
3253.48
365.616
348.19
348.189
348.189
348.189
348.189
348.189
348.189
1356.74
1297.88
1339.45
1342.69
1326.7
1300.33
1311.39
1434.56
1860.34
2862.23
5166.16
704.664
348.255
348.189
348.189
348.189
348.189
348.189
348.189
348.189
1448.32
1338.25
1369.47
1379.11
1378.87
1395.38
1502.09
1856.29
2666.19
5094.58
1729.29
349.528
348.189
348.189
348.189
348.189
348.189
348.189
348.189
348.189
1849.72
1579.36
1569.57
1624.86
1730.14
1877.16
2205.46
2977.53
5179.57
2417.8
353.264
348.189
348.189
348.189
348.189
348.189
348.189
348.189
348.189
348.189
3143.75
2586.94
2503.65
2693.25
3025.93
3414.59
4248.81
5674.81
2055.74
354.16
348.189
348.189
348.189
348.189
348.189
348.189
348.189
348.189
348.189
348.189
6428.4
5593.72
5349.86
5541.11
5648.36
5450.86
3956.47
927.315
350.442
348.189
348.189
348.189
348.189
348.189
348.189
348.189
348.189
348.189
348.189
348.189
1530.39
2769.29
2565.95
1617.29
957.781
605.701
379.976
348.352
348.189
348.189
348.189
348.189
348.189
348.189
348.189
348.189
348.189
348.189
348.189
348.189
1692.11
1723.53
1748.93
1762.43
1773.98
1771.83
1758.75
1742.59
1718.03
1677.29
1619.71
1543.24
1443.76
1360.66
1361.44
1434.09
1783.55
2964.47
6220.83
1960.16
1723.45
1745.63
1765.14
1780.39
1796.22
1800.64
1792.1
1780.25
1755.45
1705.85
1642.47
1565.95
1459.59
1335.26
1304.87
1336.2
1534.76
2432
5256.82
3352.55
1748.85
1764.96
1783.31
1800.17
1819.76
1829.48
1824.15
1810.73
1773.07
1711.83
1647.94
1579.28
1490.88
1380.15
1339.25
1363
1528.51
2354.39
5035.31
3127.36
1762.36
1779.96
1799.67
1795.5
1832.27
1852.8
1859.53
1848.43
1808.26
1649.7
1594.11
1540.67
1467.79
1366.84
1334.51
1364.18
1568.16
2519.96
5264.72
2121.6
1773.87
1795.4
1818.13
1828.87
1626.13
1526.33
1512.36
1482.68
1428.21
1339.72
1320.05
1359.94
1647.62
2794.8
5545.44
1315.59
1771.96
1800.44
1828.79
1850.63
1487.72
1472.24
1464.5
1438.81
1376.41
1290.04
1288.81
1357.26
1747.77
3070.42
5676.47
871.041
1758.87
1792
1823.85
1858.76
1431.53
1402.52
1389.9
1350.6
1279.06
1258.58
1283.63
1425.23
2000.34
3677.3
4919.11
451.326
1742.72
1780.27
1810.6
1848.36
1332.19
1276.4
1266.05
1262.54
1264.38
1280.87
1367.09
1700.11
2609.23
5208.73
1765.4
349.48
1718.16
1755.28
1772.69
1805.49
1622.54
1488.87
1428.26
1328.54
1186
1192.99
1258.36
1301.82
1343.99
1439.92
1709.75
2367.65
4306.74
3572.03
365.677
348.19
1677.43
1705.68
1711.38
1649.96
1528.99
1472.07
1398.7
1269.14
1188.71
1252.24
1445.84
1611.44
1745.36
1977.09
2528.99
4259.77
4058.46
393.278
348.191
348.189
1619.89
1642.59
1647.91
1594.45
1513.87
1464.67
1388.12
1261.66
1254.99
1444.32
2180.71
2785.96
2949.4
3424.03
4943.94
3195.88
387.661
348.191
348.189
348.189
1543.47
1566.31
1579.8
1541.16
1483.29
1438.99
1350.1
1261.14
1301.23
1616.03
2824.74
5663.5
6030.64
4567.08
1376.86
359.705
348.19
348.189
348.189
348.189
1444.01
1460.14
1491.76
1468.59
1428.69
1376.32
1278.73
1264.72
1346.1
1756.85
3009.97
6130.58
2125.87
438.068
348.847
348.189
348.189
348.189
348.189
348.189
1360.81
1335.67
1380.92
1367.58
1340.18
1289.64
1258.4
1281.53
1444.67
1996.16
3506.02
4499.63
428.803
348.198
348.189
348.189
348.189
348.189
348.189
348.189
1361.54
1305.01
1339.52
1334.71
1320.08
1288.22
1283.36
1368.12
1718.24
2557.11
5018.27
1307.43
348.749
348.189
348.189
348.189
348.189
348.189
348.189
348.189
1434.16
1336.27
1363.09
1364.11
1359.45
1356.01
1424.26
1702.72
2381.16
4324.81
3109.48
358.44
348.189
348.189
348.189
348.189
348.189
348.189
348.189
348.189
1783.96
1534.6
1527.94
1566.52
1644.22
1743.95
1998.45
2615.07
4346.28
3994.63
384.322
348.19
348.189
348.189
348.189
348.189
348.189
348.189
348.189
348.189
2965.93
2431.03
2352.17
2514.01
2784.4
3059.56
3671.97
5224.95
3530.22
390.237
348.191
348.189
348.189
348.189
348.189
348.189
348.189
348.189
348.189
348.189
6223.14
5253.36
5030.29
5255.39
5539.04
5678.96
4927.1
1752.43
364.791
348.19
348.189
348.189
348.189
348.189
348.189
348.189
348.189
348.189
348.189
348.189
1955.16
3351.43
3134.53
2142.54
1337.45
881.53
452.093
349.449
348.19
348.189
348.189
348.189
348.189
348.189
348.189
348.189
348.189
348.189
348.189
348.189
1696.81
1724.38
1747.45
1760.48
1772.05
1770.42
1757.88
1742.11
1718.73
1679.93
1626.32
1556.59
1463.57
1371.44
1363.55
1419.36
1716.11
2780.31
5909.11
2567.18
1724.29
1743.48
1762.57
1778.89
1795.35
1800.98
1793
1780.73
1754.88
1705.48
1644.93
1575.48
1481.39
1356.93
1308.33
1332.08
1493.66
2271.25
4883.65
4055.14
1747.31
1762.39
1782.54
1800.87
1821
1831.54
1827.67
1813.95
1773.21
1711.67
1650.81
1588.6
1511.4
1407.99
1352.8
1368.09
1495.94
2196.27
4679.67
3841.4
1760.23
1778.33
1800.15
1796
1832.84
1854.43
1862.62
1854.87
1807.93
1648.97
1599.93
1556.27
1498.76
1409.43
1360.6
1379.31
1529.55
2326.33
4913.84
2923.36
1772.02
1795.01
1820.21
1830.58
1609.73
1529.9
1521.96
1501.82
1461.44
1382.55
1343.38
1368.81
1576.36
2537.7
5277.21
2118.22
1770.61
1801.15
1831.54
1853.32
1489.23
1480.56
1477.6
1460.93
1414.15
1329.04
1313.04
1355.91
1637.37
2736.98
5650.31
1534.15
1758.02
1793.13
1827.79
1862.64
1430.92
1415.81
1409.13
1381.54
1318.68
1281.4
1297.65
1391.38
1818.57
3208.38
5773.48
696.858
1742.25
1781.11
1814.74
1854.95
1335.42
1304.96
1291.37
1282.16
1281.06
1292.25
1346.8
1579.27
2316.86
4568.32
3333.6
359.792
1719.22
1756.32
1775.91
1810.69
1614.16
1486.38
1432.04
1330.85
1210.55
1203.4
1258.7
1300.3
1332
1396.47
1588.13
2114.26
3634.26
5223.77
465.705
348.195
1680.83
1707.3
1713.89
1649.41
1525.13
1479.01
1414.71
1301.89
1202
1232.29
1363.91
1507.65
1622.44
1806.65
2258.56
3578.46
5564.22
627.767
348.226
348.189
1627.34
1646.37
1651.92
1597.9
1517.06
1475.1
1405.97
1290.08
1260.87
1375.5
1889.33
2399.15
2601.51
2981.15
4351.02
4934.64
604.83
348.248
348.189
348.189
1557.65
1576.77
1589.18
1553.97
1496.78
1456.81
1374.98
1283.69
1307.31
1539.23
2512.55
4942.03
5856.35
5586.25
2943.99
438.278
348.219
348.189
348.189
348.189
1464.7
1483.16
1512.18
1497.37
1456.65
1407.12
1310.55
1283.66
1342.64
1661.57
2735.57
6193.2
4218.01
760.647
356.136
348.193
348.189
348.189
348.189
348.189
1372.01
1358.57
1408.54
1408.71
1378.17
1320.63
1277.92
1293.44
1409.44
1845.72
3109.52
5527.98
671.298
348.329
348.189
348.189
348.189
348.189
348.189
348.189
1363.51
1308.43
1351.95
1358.98
1339.75
1306.69
1294.64
1348.02
1602.87
2297.88
4473.18
2644.63
353.535
348.189
348.189
348.189
348.189
348.189
348.189
348.189
1418.73
1331.72
1366.83
1377.25
1365.16
1350.72
1388.78
1583.5
2133.43
3645.76
4729.72
418.93
348.192
348.189
348.189
348.189
348.189
348.189
348.189
348.189
1713.94
1491.53
1493.17
1525.57
1571.28
1632.87
1817.15
2326.19
3677.41
5463.94
565.328
348.21
348.189
348.189
348.189
348.189
348.189
348.189
348.189
348.189
2774.92
2264.26
2188.42
2316.05
2526.03
2726.68
3203.8
4589.13
5138.07
594.314
348.234
348.189
348.189
348.189
348.189
348.189
348.189
348.189
348.189
348.189
5896.86
4864.23
4659.89
4890.67
5252.05
5631.47
5762.78
3278.47
454.557
348.218
348.189
348.189
348.189
348.189
348.189
348.189
348.189
348.189
348.189
348.189
2582.11
4074.62
3866.15
2955.64
2157.15
1555.38
695.367
359.039
348.194
348.189
348.189
348.189
348.189
348.189
348.189
348.189
348.189
348.189
348.189
348.189
1706.82
1731.84
1753.11
1765.4
1776.78
1776.21
1765.03
1751.83
1731.88
1697.49
1648.4
1582.72
1492.17
1394.8
1379.06
1426.77
1696.21
2701.63
5771.01
3047.14
1731.75
1747.87
1765.85
1781.8
1798.69
1805.52
1798.82
1788.1
1763.65
1717.45
1662.62
1599.93
1513.04
1388.84
1327.3
1346.35
1490.22
2207.93
4730
4580.9
1753.02
1765.82
1786.54
1804.89
1825.7
1837.39
1835.03
1822.21
1780.91
1720.79
1665.38
1609.97
1539.97
1441.42
1376.19
1386.54
1497.96
2138.08
4538.19
4360.13
1765.24
1781.73
1805.07
1802.6
1839.23
1862.53
1872.35
1866.72
1814.41
1653.77
1610.07
1575.17
1528.15
1446.93
1387.71
1400.73
1530.43
2260.93
4794.61
3472.23
1776.83
1798.6
1825.7
1839.4
1615.67
1539.56
1535.07
1521.06
1489.32
1417.38
1367.61
1387.09
1567.03
2460.15
5192.93
2689.77
1776.44
1805.79
1837.65
1862.68
1493.24
1502.72
1501.26
1487.89
1446.01
1361.35
1336.04
1371.69
1619.95
2650.68
5622.9
2067.71
1765.15
1798.94
1835.22
1872.86
1453.57
1452.56
1445.79
1418.77
1355.47
1308.74
1320.34
1401.21
1785.59
3097.08
6095.02
950.252
1752
1788.41
1822.6
1866.82
1380.64
1353.62
1338.07
1320.85
1312.39
1317.46
1362.75
1570.17
2253.69
4397.23
4264.67
378.454
1732.21
1764.56
1782.9
1817.85
1616.61
1494.16
1455.21
1379.04
1253.95
1240.86
1293.64
1333.01
1358.38
1412.49
1583.06
2066.67
3467.47
5955.93
615.268
348.216
1698.19
1718.93
1722.84
1657.17
1539.71
1500.44
1447.58
1345.31
1237.16
1262.54
1388.76
1528.2
1632.95
1795.54
2205.77
3401.57
6105.99
950.356
348.357
348.189
1649.39
1664.21
1667.11
1611.97
1535.05
1498.97
1439.77
1329.84
1293.87
1395.66
1881.61
2382.64
2568.43
2901.42
4156.6
5723.82
914.329
348.463
348.189
348.189
1583.96
1601.75
1611.73
1576.59
1520.66
1485.36
1411.34
1317.23
1336.06
1547.48
2450.44
4813.96
5887.56
5942.96
3935.88
568.382
348.332
348.189
348.189
348.189
1493.58
1515.48
1542.22
1529.94
1488.83
1442.87
1348.51
1312.06
1363.67
1653.79
2646.37
6134.71
5410.19
1139.06
371.94
348.208
348.189
348.189
348.189
348.189
1395.87
1391.32
1444.11
1449.41
1417.07
1357.77
1305.93
1317.2
1418.21
1811.91
2967.01
5948.47
1019.05
348.733
348.19
348.189
348.189
348.189
348.189
348.189
1379.25
1328.1
1377.4
1388.83
1366.56
1332.93
1318.15
1362.24
1586.14
2217.13
4212.73
3680.95
366.311
348.19
348.189
348.189
348.189
348.189
348.189
348.189
1426.19
1346.54
1387.01
1400.98
1385.44
1368.54
1398.29
1567.43
2066.18
3416.35
5592.45
536.152
348.203
348.189
348.189
348.189
348.189
348.189
348.189
348.189
1693.01
1488.1
1496.02
1527.57
1561.78
1613.29
1777.56
2245.54
3464.24
6050.81
863.612
348.306
348.189
348.189
348.189
348.189
348.189
348.189
348.189
348.189
2692.36
2198.14
2127.8
2248.16
2443.84
2631.15
3073.19
4373.28
5918.61
917.103
348.425
348.189
348.189
348.189
348.189
348.189
348.189
348.189
348.189
348.189
5749.11
4702.02
4509.9
4763.9
5158.91
5586.67
6084.09
4271.19
608.173
348.341
348.189
348.189
348.189
348.189
348.189
348.189
348.189
348.189
348.189
348.189
3091.45
4628.32
4412.67
3531.92
2759.27
2132.23
972.104
378.823
348.215
348.189
348.189
348.189
348.189
348.189
348.189
348.189
348.189
348.189
348.189
348.189
1715.42
1739.23
1759.62
1771.42
1782.39
1782.74
1772.85
1762.62
1745.88
1714.18
1666.46
1600.71
1508.52
1408.21
1389.66
1434.8
1697.02
2688.74
5752.53
3239.01
1739.23
1752.67
1769.86
1785.46
1802.2
1809.83
1804.25
1795.91
1774.22
1731.59
1680.26
1619.31
1531.97
1404.95
1339.24
1356.85
1496.07
2198.84
4703.49
4783.82
1759.67
1769.79
1789.57
1806.73
1827.86
1839.76
1838.3
1826.57
1786.76
1731.95
1681.77
1629.08
1559.1
1458.6
1389.13
1398.16
1505.74
2131.07
4513.78
4562
1771.47
1785.13
1806.06
1803.71
1840.46
1863.92
1875.27
1871.47
1822.06
1661.19
1625.94
1595.74
1549.62
1466.15
1401.61
1413.27
1539.29
2254.09
4778.55
3682.45
1782.52
1801.77
1826.69
1838.66
1619.76
1554.33
1552.23
1540.26
1508.5
1434.14
1380
1398.48
1574.12
2451.79
5192.95
2884.26
1782.99
1809.92
1839.6
1863.34
1514.96
1521.74
1519.95
1505.96
1462.63
1374.93
1347.2
1382.32
1626.36
2643.68
5640.28
2234.74
1773
1804.32
1838.32
1875.34
1492.76
1470.29
1462.02
1432.91
1367.4
1319.19
1330.88
1411.57
1791.82
3092.02
6192.64
1034.01
1762.67
1795.96
1826.72
1871.61
1418.26
1365.06
1347.65
1331.2
1323.03
1328.19
1373.86
1580.51
2257.83
4393.47
4521.25
385.727
1746.06
1774.78
1787.8
1823.05
1618.46
1513.68
1486.54
1408.71
1267.2
1250.05
1306.32
1346.51
1372.07
1425.77
1595.16
2074.69
3460.72
6146.06
669.259
348.226
1714.67
1732.74
1733.56
1664.27
1556.3
1522.41
1469.01
1360.21
1246.37
1273.45
1408.28
1552.21
1654.91
1812.28
2214.78
3392.75
6242.71
1061.29
348.423
348.189
1667.24
1681.72
1683.59
1628.52
1554.04
1520.75
1461.17
1344.62
1305.29
1409.16
1907.63
2424.56
2601.29
2916.55
4148.58
5911.18
1020
348.57
348.189
348.189
1601.7
1620.98
1631
1597.95
1541.83
1506.72
1432.37
1330.64
1347.59
1557.89
2453.56
4832.35
5979.82
6058.21
4185.35
613.852
348.388
348.189
348.189
348.189
1509.59
1533.92
1561.19
1551.72
1509.87
1463.1
1367.2
1323.97
1374.26
1660.96
2635.09
6107.54
5778.33
1257.06
377.74
348.215
348.189
348.189
348.189
348.189
1409.01
1406.77
1460.77
1468.23
1435.19
1374.78
1319.4
1329.02
1427.41
1815.6
2942.48
6068.54
1195.16
348.972
348.19
348.189
348.189
348.189
348.189
348.189
1389.78
1339.83
1390.19
1402.58
1380.07
1346.49
1330.8
1373.43
1593.18
2212.28
4159.88
4084.61
375.127
348.19
348.189
348.189
348.189
348.189
348.189
348.189
1434.23
1356.94
1398.67
1413.66
1398.01
1381.05
1409.44
1575.26
2065.27
3379.03
5869.97
605.125
348.214
348.189
348.189
348.189
348.189
348.189
348.189
348.189
1693.85
1494.16
1504.24
1537.28
1570.15
1620.28
1781.62
2241.61
3432.91
6223.57
1021.36
348.389
348.189
348.189
348.189
348.189
348.189
348.189
348.189
348.189
2679.24
2189.4
2121.61
2243.12
2436.59
2622.61
3061
4346.29
6160.9
1081.05
348.586
348.189
348.189
348.189
348.189
348.189
348.189
348.189
348.189
348.189
5729.08
4676.04
4487.39
4751.45
5161.78
5604.45
6194.83
4617.71
688.236
348.441
348.189
348.189
348.189
348.189
348.189
348.189
348.189
348.189
348.189
348.189
3297.42
4843.09
4625.44
3751.43
2976.08
2341.23
1087.83
389.726
348.231
348.189
348.189
348.189
348.189
348.189
348.189
348.189
348.189
348.189
348.189
348.189
1715.44
1739.27
1759.65
1771.44
1782.43
1782.73
1772.87
1762.62
1745.84
1714.08
1666.32
1600.56
1508.34
1408.11
1389.67
1434.87
1697.25
2689.09
5753.49
3239.99
1739.21
1752.65
1769.88
1785.53
1802.46
1809.92
1804.34
1795.86
1774.02
1731.4
1680.15
1619.23
1531.81
1404.76
1339.23
1356.91
1496.33
2199.37
4704.23
4784.27
1759.65
1769.72
1789.52
1806.67
1828.26
1840.02
1838.41
1826.44
1786.47
1731.82
1681.81
1629.2
1559.24
1458.78
1389.29
1398.31
1505.97
2131.57
4514.6
4563.84
1771.49
1785
1805.91
1800.07
1838.58
1861.47
1872.24
1867.97
1818.25
1661.51
1626.78
1596.6
1550.35
1466.71
1401.88
1413.44
1539.34
2254.04
4778.77
3688.95
1782.48
1801.47
1826.21
1834.72
1606.11
1554.75
1552.88
1541.13
1509.45
1435.05
1380.37
1398.65
1573.79
2450.98
5192.15
2890.87
1782.99
1809.8
1839.33
1859.45
1525.88
1521.33
1519.7
1506.05
1463.22
1375.85
1347.64
1382.57
1626.38
2643.92
5638.75
2229.16
1773.02
1804.27
1838.2
1872.02
1491.3
1468.54
1461.05
1432.93
1368.15
1319.62
1331.21
1411.9
1793.07
3094.57
6186.91
1026.1
1762.66
1795.92
1826.74
1868.06
1407.88
1362.25
1346.67
1330.71
1322.82
1328.28
1374.3
1581.84
2261.21
4399.29
4494.96
384.78
1746.14
1775
1788.13
1822.22
1608.6
1526.56
1495.88
1412.5
1265.31
1247.1
1304.28
1345.22
1371.3
1425.8
1596.65
2078.33
3467.88
6130.49
662.028
348.225
1714.78
1732.97
1733.85
1663.61
1553.75
1522
1470.19
1362.62
1246.5
1271.39
1403.78
1548.25
1652.95
1813.31
2219.16
3402.23
6236.28
1046.39
348.413
348.189
1667.3
1681.84
1683.72
1628.43
1552.44
1520.3
1461.82
1346.9
1305.37
1406.85
1896.7
2414.41
2600.28
2923.05
4163.96
5898.13
1005.46
348.553
348.189
348.189
1601.68
1620.97
1630.98
1598.23
1541.41
1506.52
1432.37
1331.49
1347.81
1556.29
2445.47
4812.67
5986.6
6069.07
4162.32
607.454
348.379
348.189
348.189
348.189
1509.49
1533.79
1561.09
1552.18
1510.19
1463.05
1366.79
1324.28
1374.54
1660.88
2634.61
6110.94
5801.82
1254.25
376.998
348.214
348.189
348.189
348.189
348.189
1408.89
1406.54
1460.7
1468.66
1435.77
1374.8
1319.44
1329.24
1428.15
1817.32
2947.19
6082.99
1204.73
348.976
348.19
348.189
348.189
348.189
348.189
348.189
1389.71
1339.67
1390.13
1402.72
1380.49
1346.7
1331
1374.01
1594.97
2215.89
4169.24
4091.31
375.23
348.19
348.189
348.189
348.189
348.189
348.189
348.189
1434.24
1356.84
1398.62
1413.74
1398.44
1381.49
1410.26
1577.21
2068.77
3385.47
5870.86
603.987
348.213
348.189
348.189
348.189
348.189
348.189
348.189
348.189
1694.04
1494.23
1504.26
1537.41
1570.96
1621.74
1784.14
2245.64
3439.73
6223.13
1015.56
348.385
348.189
348.189
348.189
348.189
348.189
348.189
348.189
348.189
2679.43
2189.68
2121.82
2243.38
2437.82
2625.44
3066.08
4355.25
6152.69
1072.31
348.577
348.189
348.189
348.189
348.189
348.189
348.189
348.189
348.189
348.189
5729.48
4676.35
4487.42
4751.58
5163.33
5607.86
6192.1
4593.7
682.587
348.434
348.189
348.189
348.189
348.189
348.189
348.189
348.189
348.189
348.189
348.189
3295.38
4842.25
4624.7
3751.96
2967.67
2324.08
1076.86
388.753
348.23
348.189
348.189
348.189
348.189
348.189
348.189
348.189
348.189
348.189
348.189
348.189
1706.82
1731.85
1753.13
1765.42
1776.82
1776.2
1765.05
1751.88
1731.78
1697.21
1648.06
1582.37
1491.82
1394.7
1379.22
1427.09
1696.96
2703.2
5775.01
3043.4
1731.72
1747.84
1765.95
1782.16
1799.17
1805.68
1798.93
1788.17
1763.19
1716.71
1661.89
1599.32
1512.46
1388.47
1327.48
1346.67
1490.91
2209.62
4733.62
4575.25
1753
1765.67
1786.47
1805.3
1826.72
1837.85
1835.23
1822.13
1779.94
1719.8
1664.54
1609.35
1539.54
1441.18
1376.19
1386.61
1498.36
2139.49
4541.15
4355.31
1765.27
1781.37
1804.32
1805.53
1842.92
1866.31
1876.23
1871.71
1820.16
1652.72
1609.32
1574.54
1527.66
1446.72
1387.56
1400.52
1530.19
2260.9
4794.25
3472.22
1776.82
1798.11
1824.53
1838.43
1613.43
1540.07
1535.37
1520.77
1488.64
1416.95
1367.23
1386.53
1566.03
2459.09
5189.5
2682.72
1776.49
1805.64
1837.22
1863.7
1508.15
1501.38
1499.92
1486.53
1444.93
1361.02
1335.89
1371.47
1620.12
2653.64
5620.49
2035.48
1765.17
1798.88
1835.08
1875.91
1480.77
1449.33
1442.36
1415.7
1353.83
1308.44
1320.29
1401.8
1789.5
3108.94
6076.6
923.733
1752.06
1788.36
1822.38
1871.83
1409.69
1351.09
1334.79
1318.78
1311.66
1317.29
1363.63
1573.93
2265.03
4427.78
4173.15
375.736
1732.11
1763.85
1781.23
1821.4
1614.39
1506.15
1477.66
1404.16
1263.46
1239.75
1292.55
1332.21
1358.46
1414.04
1587.56
2077.77
3498.77
5904.23
594.399
348.212
1697.82
1717.83
1721.22
1655.23
1541.07
1500.99
1447.74
1346.98
1237.2
1260.64
1385.3
1527.63
1635.79
1802.24
2219.85
3437.43
6082.13
907.011
348.333
348.189
1648.84
1663.14
1665.91
1611.21
1536.41
1499.86
1440.72
1331.16
1292.25
1388.34
1859.04
2377.5
2584
2931.03
4209.64
5668.05
872.068
348.423
348.189
348.189
1583.23
1600.65
1610.71
1576.26
1521.94
1486.77
1413.7
1317.85
1333.87
1536.27
2408.32
4750.55
5951.98
5972.93
3838.45
549.346
348.31
348.189
348.189
348.189
1492.69
1514.03
1541.11
1529.53
1489.97
1445.1
1351.8
1312.3
1361.44
1645.12
2617.83
6056.97
5499.14
1114.88
369.474
348.205
348.189
348.189
348.189
348.189
1395.16
1389.78
1442.92
1448.71
1418.13
1360.72
1307.88
1317.89
1416.8
1807.96
2953
5983.01
1080.03
348.755
348.19
348.189
348.189
348.189
348.189
348.189
1379.04
1327.5
1376.81
1388.44
1367.56
1335.3
1319.87
1363.54
1586.98
2217.98
4210.12
3782.98
368.304
348.19
348.189
348.189
348.189
348.189
348.189
348.189
1426.39
1346.3
1386.74
1400.87
1386.46
1370.61
1400.43
1570.41
2070.25
3420.83
5643.7
546.161
348.204
348.189
348.189
348.189
348.189
348.189
348.189
348.189
1694.37
1488.98
1496.8
1528.55
1563.7
1616.23
1782.4
2252.54
3473.62
6072.2
876.526
348.312
348.189
348.189
348.189
348.189
348.189
348.189
348.189
348.189
2695.8
2201.96
2131.74
2252.36
2449.16
2639.18
3085.7
4390.04
5923.57
921.877
348.432
348.189
348.189
348.189
348.189
348.189
348.189
348.189
348.189
348.189
5757.36
4712.23
4519.92
4773.62
5169.8
5599.3
6083.74
4247.08
606.359
348.342
348.189
348.189
348.189
348.189
348.189
348.189
348.189
348.189
348.189
348.189
3075.47
4610.53
4393.46
3512.67
2732.56
2098.22
956.044
377.995
348.214
348.189
348.189
348.189
348.189
348.189
348.189
348.189
348.189
348.189
348.189
348.189
1696.83
1724.44
1747.48
1760.52
1772.03
1770.37
1757.89
1742.14
1718.64
1679.68
1625.94
1556.12
1463.11
1371.32
1363.72
1419.85
1717.52
2783.96
5917.14
2556.05
1724.27
1743.49
1762.62
1779.06
1795.65
1801.02
1793.09
1780.86
1754.69
1704.82
1643.99
1574.44
1480.28
1356.31
1308.44
1332.38
1494.7
2274.99
4892.74
4039.75
1747.32
1762.34
1782.51
1800.92
1821.54
1831.73
1827.78
1814.11
1772.86
1710.59
1649.35
1587.13
1509.88
1406.18
1351.59
1367.18
1496.17
2199.85
4688.25
3825.38
1760.29
1778.21
1799.9
1800.26
1837.22
1859.39
1867.85
1861.27
1810.21
1646.32
1596.26
1552.52
1495.26
1406.27
1358.4
1377.48
1529.01
2328.94
4918.83
2911.2
1772.09
1794.74
1819.59
1833.04
1608.05
1528.72
1519.64
1497.93
1456.68
1378.12
1340.41
1366.28
1575.73
2541.39
5279.73
2094.28
1770.72
1801.16
1831.42
1857.25
1493.06
1479.23
1475.71
1457.96
1409.85
1324.57
1309.94
1353.77
1639.4
2747.78
5651.14
1487.97
1758.07
1793.15
1827.81
1867.94
1444.01
1413.2
1406.5
1378.68
1315.53
1279.63
1296.34
1391.79
1827.37
3233.57
5729.94
670.514
1742.32
1781.02
1814.42
1861.43
1362.69
1303.09
1290.56
1282.69
1281.85
1292.46
1347.93
1586.48
2338.38
4621.6
3206.29
358.14
1719.07
1755.62
1774.35
1813.96
1611.11
1495.71
1449.56
1368.29
1234.55
1203.1
1259.21
1302.19
1335
1401.13
1597.21
2134.11
3690.31
5117.73
451.166
348.194
1680.38
1706.19
1712.36
1647.48
1527.16
1480.18
1415.57
1304.51
1203.41
1231.63
1364.32
1513.97
1633.59
1822.14
2282.76
3636.74
5492.91
596.102
348.218
348.189
1626.75
1645.37
1650.88
1597.24
1518.53
1476.11
1407.49
1292.25
1261.51
1368.52
1870.33
2414.03
2637.9
3030.97
4424.71
4830.44
575.78
348.236
348.189
348.189
1556.92
1575.78
1588.45
1553.77
1497.55
1457.71
1377.59
1284.2
1305.4
1523.73
2448.36
4872.32
5962.91
5601.11
2828.24
427.137
348.213
348.189
348.189
348.189
1463.85
1481.77
1511.25
1496.97
1457.02
1408.73
1313.47
1283.34
1338.72
1645.07
2677.53
6067.57
4325.46
738.753
354.964
348.192
348.189
348.189
348.189
348.189
1371.65
1357.39
1407.54
1408.05
1378.58
1323
1279.24
1293.33
1405.17
1832.86
3065.62
5587.86
713.204
348.333
348.189
348.189
348.189
348.189
348.189
348.189
1363.66
1308.53
1351.93
1358.99
1340.43
1308.94
1296.1
1348.62
1600.84
2290.8
4450.12
2753.83
354.317
348.189
348.189
348.189
348.189
348.189
348.189
348.189
1419.39
1332.17
1367.18
1377.63
1366.15
1353.06
1391.38
1586.64
2135.86
3643.24
4791.25
423.363
348.192
348.189
348.189
348.189
348.189
348.189
348.189
348.189
1716.16
1493.44
1495.01
1527.7
1574.41
1637.7
1824.67
2335.47
3687.53
5484.02
570.764
348.211
348.189
348.189
348.189
348.189
348.189
348.189
348.189
348.189
2781.23
2271.23
2195.69
2324.09
2536.22
2741.14
3224.09
4612
5129.15
594.84
348.234
348.189
348.189
348.189
348.189
348.189
348.189
348.189
348.189
348.189
5910.57
4882.89
4678.33
4908.92
5272.07
5648.78
5749.86
3238.57
452.371
348.218
348.189
348.189
348.189
348.189
348.189
348.189
348.189
348.189
348.189
348.189
2558.42
4045.82
3835.79
2927.05
2121.18
1516.63
680.924
358.489
348.194
348.189
348.189
348.189
348.189
348.189
348.189
348.189
348.189
348.189
348.189
348.189
1692.14
1723.58
1748.95
1762.52
1773.86
1771.68
1758.68
1742.53
1717.96
1677.2
1619.59
1543.07
1443.56
1360.63
1361.53
1434.46
1784.82
2968.34
6227.41
1949.47
1723.46
1745.66
1765.18
1780.62
1796.16
1800.38
1791.95
1780.13
1755.33
1705.7
1642.34
1565.72
1459.19
1334.97
1304.93
1336.41
1535.75
2435.57
5265.44
3337.58
1748.88
1764.96
1783.32
1800.44
1819.74
1829.16
1823.92
1810.49
1773
1711.68
1647.87
1579.14
1490.47
1379.57
1339.05
1362.98
1529.26
2357.79
5043.15
3114.51
1762.35
1779.82
1799.49
1797.07
1832.27
1853.48
1861.04
1851.48
1808.3
1649.84
1594.3
1540.7
1467.54
1366.46
1334.43
1364.26
1568.86
2522.46
5270.15
2114.91
1774.03
1795.52
1818.27
1828.77
1611.59
1526.93
1512.35
1482.31
1427.8
1339.66
1320.34
1360.29
1648.41
2797.44
5548.02
1308.88
1772.14
1800.74
1829.15
1851.73
1485.6
1470.96
1463.5
1438.01
1375.59
1289.74
1288.64
1357.54
1750.75
3079.61
5668.61
857.283
1758.96
1792.2
1824.16
1861.3
1428.41
1399.4
1388.35
1350.4
1279.01
1258.38
1283.57
1427.04
2009.29
3701.06
4869.37
445.421
1742.87
1780.46
1810.81
1852
1329.45
1272.15
1263.91
1261.59
1263.99
1280.87
1368.78
1707.83
2628.85
5248.57
1698.54
349.336
1718.27
1755.42
1772.74
1805.91
1610.48
1482.37
1425.67
1326.78
1188.72
1189.41
1255.56
1300.75
1344.37
1442.62
1717.99
2385.94
4363.23
3477.85
363.791
348.19
1677.38
1705.64
1711.37
1649.93
1527.96
1471.2
1398.33
1271.51
1189.56
1250.68
1444.69
1613.82
1751.16
1988.5
2550.3
4318.7
3965.99
388.599
348.19
348.189
1619.67
1642.29
1647.64
1594.77
1513.64
1464.04
1388.18
1263.67
1255.57
1443.62
2178.01
2801.08
2976.96
3464.8
4988.25
3111.11
383.624
348.191
348.189
348.189
1543.08
1565.76
1579.21
1541.4
1483.62
1438.83
1350.75
1262.38
1301.61
1614.55
2806.72
5653.95
6089.48
4545.97
1331.25
358.509
348.19
348.189
348.189
348.189
1443.54
1459.32
1490.79
1468.35
1428.91
1376.49
1279.7
1265.53
1346.57
1755.32
2991.86
6125.73
2172.23
434.53
348.78
348.189
348.189
348.189
348.189
348.189
1360.59
1335.05
1379.92
1367.1
1340.49
1290.75
1259.72
1282.72
1446.29
1996.21
3493.38
4556.51
433.612
348.198
348.189
348.189
348.189
348.189
348.189
348.189
1361.5
1304.9
1339.15
1334.77
1320.99
1289.72
1285.07
1370.86
1722.71
2561.86
5027.1
1326.54
348.77
348.189
348.189
348.189
348.189
348.189
348.189
348.189
1434.55
1336.39
1363.07
1364.54
1360.82
1358.36
1428.04
1709.6
2391.48
4345.35
3117.02
358.459
348.189
348.189
348.189
348.189
348.189
348.189
348.189
348.189
1785.89
1536.23
1529.59
1568.99
1647.89
1749.65
2008.12
2630.59
4378.09
3984.26
383.791
348.19
348.189
348.189
348.189
348.189
348.189
348.189
348.189
348.189
2972.51
2437.96
2359.66
2522.46
2794.66
3075.52
3698.87
5260.23
3504.26
389.124
348.191
348.189
348.189
348.189
348.189
348.189
348.189
348.189
348.189
348.189
6231.57
5269.22
5046.26
5270.64
5551.41
5683.67
4904.9
1722.69
364.149
348.19
348.189
348.189
348.189
348.189
348.189
348.189
348.189
348.189
348.189
348.189
1929.19
3316.27
3102.17
2115.55
1321.75
869.101
448.537
349.381
348.19
348.189
348.189
348.189
348.189
348.189
348.189
348.189
348.189
348.189
348.189
348.189
1686.97
1720.54
1747.41
1762.2
1774.02
1772.26
1758.6
1741.42
1715.93
1673.56
1612.43
1529.5
1424.51
1349.67
1356.59
1447.8
1848.36
3140.11
6423.23
1536.24
1720.44
1745.74
1767.66
1784.89
1800.17
1804.79
1795.88
1783.8
1761
1712.27
1645.45
1559.66
1439.99
1316.6
1297.71
1337.83
1578.22
2584.55
5588.58
2774.27
1747.43
1767.57
1788.45
1807.56
1825.88
1835.57
1830.05
1817.43
1783.85
1724.74
1658.73
1583.14
1483.65
1369.89
1339.59
1369.35
1568.67
2501.54
5345.25
2565.13
1762.19
1784.39
1806.67
1799.96
1836.64
1855.48
1861.78
1850.09
1812.3
1670.73
1615.22
1556
1472.5
1366.86
1342.96
1379.13
1624.31
2692.65
5538.12
1611.87
1774.38
1799.91
1824.85
1833.67
1625.57
1546.96
1531.32
1496.21
1430.84
1338.28
1327.01
1379.17
1730.75
3027.9
5645.51
953.389
1772.84
1805.32
1835.76
1854.26
1490.14
1483.8
1475.74
1445.74
1370.41
1291.69
1300.12
1395.82
1878.91
3419.98
5441.23
602.463
1758.98
1796.29
1830.45
1862.1
1431.64
1407.82
1393.18
1347.79
1283.55
1277.82
1311.11
1503.65
2209.53
4262.42
3923.37
378.891
1741.96
1784.3
1817.66
1850.68
1332.13
1279.9
1285.36
1291.6
1291.56
1313.22
1436.68
1861.47
2990.38
5668.91
905.013
348.339
1716.28
1760.6
1782.01
1810.93
1628.07
1494.81
1435.47
1337.4
1204.03
1256.53
1323.95
1367.7
1413.29
1532.34
1867.55
2679.01
5202.63
1987.54
350.224
348.189
1673.39
1710.92
1722.19
1666.31
1549.56
1488.06
1414.46
1290.42
1257.87
1386.63
1677.34
1817.81
1928.86
2174.7
2882.22
5114.58
2324.77
353.493
348.189
348.189
1611.83
1643.84
1656.53
1612.1
1531.8
1479
1400.19
1291.47
1322.48
1660.34
2806.76
3411.26
3448.77
4005.41
5125.36
1643.22
352.621
348.189
348.189
348.189
1528.67
1557.92
1581.13
1553.58
1495.14
1447.83
1355.09
1294.16
1363.47
1795.73
3338.29
6635.24
5472.75
3129.35
669.852
349.329
348.189
348.189
348.189
348.189
1423.67
1438.12
1481.42
1470
1429.06
1371.91
1287.48
1293.52
1408.59
1909.65
3384.75
5508.06
907.061
362.981
348.243
348.189
348.189
348.189
348.189
348.189
1349.37
1315.51
1368.14
1365.18
1337.15
1292.37
1279.67
1314.15
1528.38
2161.83
3964.15
3275.12
366.013