/*--------------------------------*- C++ -*----------------------------------*\
  =========                 |
  \\      /  F ield         | OpenFOAM: The Open Source CFD Toolbox
   \\    /   O peration     | Website:  https://openfoam.org
    \\  /    A nd           | Version:  9
     \\/     M anipulation  |
\*---------------------------------------------------------------------------*/
FoamFile
{
    format      ascii;
    class       volVectorField;
    location    "0.001";
    object      U;
}
// * * * * * * * * * * * * * * * * * * * * * * * * * * * * * * * * * * * * * //

dimensions      [0 1 -1 0 0 0 0];

internalField   nonuniform List<vector> 
9720
(
(-2044.69 -2044.33 -115.883)
(-1454.31 -2022.6 -155.412)
(-1019.36 -2075.87 -186.909)
(-582.196 -2057.44 -231.265)
(-123.814 -2081.13 -237.202)
(296.17 -2046.34 -280.545)
(761.926 -2051.62 -282.854)
(1201.67 -2024.14 -292.964)
(1642.26 -2015.57 -301.465)
(2099.25 -2001.07 -298.573)
(2559.81 -1954.86 -285.885)
(2992.34 -1910.57 -262.944)
(3356.45 -1894.72 -239.331)
(3737.55 -1912.45 -220.694)
(4235.39 -1845.43 -190.255)
(4508.23 -1640.75 -156.153)
(4440.93 -1477.76 -146.364)
(4008.12 -1139.86 -125.815)
(2370.93 -530.975 -64.558)
(293.982 -48.098 -5.52091)
(-2022.09 -1453.54 -156.034)
(-1440.11 -1439.66 -214.709)
(-1023.97 -1493.4 -266.132)
(-582.563 -1503.92 -331.94)
(-128.318 -1558.78 -333.575)
(293.973 -1564.06 -379.868)
(759.925 -1578.87 -391.875)
(1203.87 -1560.2 -409.969)
(1659.27 -1548.83 -420.146)
(2134.42 -1437.95 -410.887)
(2591.76 -1296.99 -384.978)
(3009.87 -1175.05 -346.718)
(3360.98 -1080.72 -310.449)
(3693.66 -1028.78 -289.929)
(4185.34 -1001.34 -264.942)
(4693.21 -895.923 -202.938)
(4715.37 -845.618 -182.134)
(4335.04 -756.639 -158.947)
(2806.9 -415.491 -85.5304)
(559.415 -62.5705 -13.1788)
(-2074.68 -1018.3 -187.776)
(-1493.55 -1022.53 -266.585)
(-1085.95 -1084.22 -335.315)
(-656.497 -1129.52 -408.825)
(-188.818 -1234.53 -416.542)
(296.063 -1282.53 -450.964)
(784.619 -1291.42 -479.365)
(1245.23 -1267.87 -504.851)
(1754.65 -1189.05 -517.695)
(2253.04 -935.914 -499.2)
(2695.74 -730.47 -451.555)
(3086.32 -581.866 -389.922)
(3419.3 -481.661 -333.123)
(3730.63 -437.183 -297.13)
(4158.26 -407.365 -265.859)
(4616.66 -305.292 -210.268)
(4661.5 -245.916 -188.308)
(4302.9 -174.105 -168.517)
(2749.9 -43.5009 -92.0923)
(530.139 2.98918 -13.5443)
(-2055.8 -581.222 -232.852)
(-1502.49 -580.249 -332.873)
(-1127.83 -652.608 -406.79)
(-872.697 -867.189 -498.675)
(-405.564 -919.692 -458.692)
(139.515 -1074.84 -481.078)
(658.804 -1097.95 -518.929)
(1134.93 -1026.34 -530.446)
(1644.06 -918.594 -561.003)
(2516.19 -241.387 -530.559)
(2893.71 -51.5949 -564.215)
(3216.57 61.9507 -561.126)
(3480.3 129.329 -544.827)
(3741.45 165.95 -531.113)
(4142.1 206.873 -491.771)
(4520.6 244.987 -385.641)
(4507.69 246.455 -352.027)
(4037.57 264.07 -277.358)
(2368.25 211.527 -121.868)
(321.875 32.7825 -10.5758)
(-2080.86 -123.831 -240.223)
(-1556.4 -128.368 -336.852)
(-1231.03 -188.697 -417.366)
(-915.402 -400.873 -456.981)
(2255.65 74.3305 -552.73)
(2624.99 809.629 -491.57)
(2831.89 832.355 -507.756)
(3108.98 825.551 -517.485)
(3382.72 802.527 -525.488)
(3679.22 793.276 -529.771)
(4150.88 781.414 -472.236)
(4439.78 724.055 -362.008)
(4344.81 692.496 -331.487)
(3725.04 581.465 -249.901)
(1974.7 287.788 -99.6155)
(169.771 18.7445 -5.06886)
(-2045.44 295.01 -281.489)
(-1562.29 292.784 -382.289)
(-1280.41 294.701 -454.754)
(-1074.07 136.423 -489.392)
(2735.07 1285.83 -477.71)
(2872.06 1473.68 -412.202)
(2950.67 1476.57 -437.533)
(3141.52 1427.24 -468.462)
(3412.2 1323.71 -491.295)
(3788.53 1278.78 -489.198)
(4272.45 1224.35 -409.221)
(4374.38 1146.92 -347.815)
(4228.25 1102.44 -324.729)
(3515.98 902.441 -243.344)
(1607.45 380.68 -89.0113)
(76.8502 11.7941 -2.39538)
(-2050.6 761.264 -283.762)
(-1577.06 759.082 -393.37)
(-1289.59 783.526 -481.557)
(-1097.12 656.238 -524.732)
(2972.32 1882.15 -409.582)
(3133.18 2017.73 -392.206)
(3214.33 1981.05 -426.236)
(3428.82 1881.97 -438.738)
(3697.72 1836.94 -442.102)
(4033.45 1826.78 -421.421)
(4221.13 1677.59 -370.891)
(4181.04 1591.03 -346.005)
(3935 1531.95 -322.604)
(2992.09 1163.77 -218.591)
(925.976 341.619 -55.1058)
(11.1385 2.29886 -0.32296)
(-2024.86 1200.7 -292.535)
(-1562.61 1202.63 -409.476)
(-1271.18 1244.94 -505.279)
(-1026.04 1131.83 -533.298)
(3265.8 2351.82 -343.19)
(3678.57 2542.15 -378.388)
(3722.96 2546.65 -353.96)
(3754.85 2511.51 -361.364)
(3836.73 2457.03 -378.785)
(3935.81 2302.04 -377.752)
(3910.61 2115.18 -361.574)
(3780.8 2051.12 -354.067)
(3405.95 1882.15 -304.011)
(1848.08 1038.72 -146.775)
(147.947 64.6934 -7.35937)
(0.0897746 0.0245123 -0.0019762)
(-2017.56 1642.45 -300.547)
(-1547.45 1660.96 -420.123)
(-1181.43 1760.09 -519.443)
(-908.279 1658.01 -563.448)
(109.509 2281.78 -495.559)
(1280.15 2751.67 -449.434)
(1866.77 2987.97 -390.694)
(2350.22 3263.04 -315.432)
(3374.37 3508.71 -306.893)
(3792.88 2922.8 -215.163)
(3741.07 2765.94 -272.984)
(3684.51 2763.61 -331.609)
(3602.67 2720.17 -375.324)
(3515.87 2620.24 -381.505)
(3392.69 2536.5 -373.354)
(3182.29 2396.94 -333.445)
(2107.98 1591.32 -198.706)
(374.3 261.504 -26.2808)
(0.909864 0.427894 -0.0281767)
(6.90408e-06 2.96614e-06 -1.15493e-07)
(-2000.59 2100.72 -298.331)
(-1432.01 2137.34 -411.811)
(-926.198 2257.68 -504.236)
(-225.077 2515.59 -543.54)
(803.508 2641.13 -507.243)
(1462.72 2893.82 -408.337)
(2012.41 3139.61 -370.937)
(2555.16 3646.05 -360.258)
(2935.35 3811.17 -208.115)
(3319.07 3342.52 -174.471)
(3308.09 2870.27 -295.035)
(3251.61 2850.39 -373.4)
(3058.83 2903.74 -405.498)
(2844.73 2872.95 -384.047)
(2634.99 2676.67 -325.934)
(1829.67 1766.5 -198.649)
(411.525 380.942 -34.1639)
(1.89811 1.52186 -0.0780985)
(3.43467e-05 2.31917e-05 -7.37622e-07)
(6.08844e-11 2.45343e-11 -6.22965e-13)
(-1953.33 2561.48 -287.065)
(-1290.93 2594.16 -387.284)
(-722.83 2698.93 -458.012)
(-42.3524 2888.91 -577.616)
(826.77 2843.61 -522.346)
(1466.74 2965.27 -433.673)
(1980.23 3214.12 -408.31)
(2551.84 3700.56 -344.398)
(2823.39 3742.92 -257.852)
(2907.77 3339.03 -284.256)
(2667.16 2633.94 -384.828)
(2420.81 2630.21 -402.961)
(2119 2722.81 -350.992)
(1770.01 2386.28 -267.493)
(1181.83 1439.74 -148.92)
(232.151 284.41 -22.3268)
(1.24615 1.6262 -0.0668376)
(4.20896e-05 4.35384e-05 -1.13896e-06)
(9.86133e-11 7.76113e-11 -1.34626e-12)
(2.83811e-16 2.24131e-18 0)
(-1908.71 2993.23 -265.066)
(-1170.4 3010.9 -350.632)
(-576.601 3087.88 -395.6)
(65.9497 3211.41 -572.043)
(820.669 3115.88 -528.727)
(1423.25 3147.77 -466.045)
(1883.75 3425.13 -431.978)
(2515.04 3747.44 -353.756)
(2816.33 3682.21 -324.414)
(2892.32 3275.03 -359.939)
(2699.09 2447.88 -385.868)
(1823.38 1786.1 -287.345)
(925.913 1324.31 -160.11)
(387.799 660.613 -61.7376)
(43.7258 85.4091 -5.14031)
(0.241232 0.525314 -0.0174019)
(1.47183e-05 2.37324e-05 -5.15539e-07)
(6.13194e-11 9.28649e-11 -1.19541e-12)
(2.82695e-16 2.84561e-16 0)
(0 0 0)
(-1892.92 3356.42 -241.77)
(-1077.21 3361.03 -314.885)
(-478.35 3419.21 -337.751)
(131.1 3475.8 -553.7)
(799.628 3386.65 -533.817)
(1324.1 3412.66 -491.689)
(1835.2 3693.01 -442.977)
(2464.76 3839.12 -376.841)
(2749.94 3608.61 -371.947)
(2929.29 3080.61 -389.205)
(2776.67 2162.7 -328.978)
(1386.26 952.03 -149.42)
(110.453 103.041 -9.96056)
(1.34834 5.36531 -0.228725)
(0.00764481 0.0337315 -0.000875212)
(1.04962e-06 3.02371e-06 -5.17124e-08)
(1.41926e-11 4.18925e-11 -4.25007e-13)
(2.27668e-18 2.82714e-16 0)
(0 0 0)
(0 0 0)
(-1910.56 3737.52 -223.415)
(-1025.91 3693.51 -294.521)
(-434.83 3729.64 -302.025)
(167.274 3738.04 -539.236)
(791.732 3680.68 -536.115)
(1278.5 3784.2 -491.451)
(1826.87 4030.04 -426.889)
(2311.4 3941.16 -382.437)
(2634.06 3526.68 -379.632)
(2886.29 2870.29 -365.165)
(2432.99 1815.16 -248.605)
(704.889 420.409 -58.112)
(6.50252 1.66089 -0.239452)
(0.00026201 0.00019967 -8.39181e-06)
(1.02391e-08 1.02987e-07 -1.14567e-09)
(9.54373e-13 5.90681e-12 -4.54097e-14)
(2.62429e-20 1.78867e-18 0)
(0 0 0)
(0 0 0)
(0 0 0)
(-1843.03 4235.49 -193.505)
(-998.963 4185.69 -270.211)
(-405.964 4157.63 -271.962)
(207.515 4140.72 -499.422)
(780.524 4149.11 -478.134)
(1225.81 4269.54 -416.477)
(1681.62 4223.03 -380.356)
(2122.61 3916.75 -369.098)
(2543.42 3405.06 -368.064)
(2690.38 2662.69 -309.654)
(1473.55 1217.62 -139.33)
(93.8979 49.2701 -5.09141)
(0.0411167 0.00973972 -0.000947716)
(1.27896e-07 1.28985e-08 -1.26025e-09)
(2.87696e-13 2.35113e-13 -3.54763e-15)
(1.41279e-16 1.83102e-20 0)
(0 0 0)
(0 0 0)
(0 0 0)
(0 0 0)
(-1638.68 4507.01 -159.981)
(-894.31 4692.52 -208.698)
(-304.653 4615.72 -216.832)
(244.908 4520.02 -392.397)
(723.559 4439.96 -368.567)
(1149.83 4376.06 -357.316)
(1596.63 4184.45 -357.105)
(2055.78 3786.42 -358.569)
(2402.57 3195.99 -326.013)
(1787.13 1855.6 -189.596)
(299.045 246.476 -21.6247)
(0.597815 0.277699 -0.0179791)
(3.68864e-06 1.30527e-06 -5.7342e-08)
(7.09352e-12 1.1802e-12 -4.98088e-14)
(1.43699e-16 1.4177e-16 0)
(0 0 0)
(0 0 0)
(0 0 0)
(0 0 0)
(0 0 0)
(-1476.2 4439.45 -150.41)
(-844.725 4713.62 -187.967)
(-246.152 4659.69 -194.916)
(246.253 4507.02 -358.25)
(692.445 4345.59 -338.003)
(1105.35 4230.08 -334.609)
(1535.59 3938.66 -331.593)
(1886.02 3414.12 -304.869)
(1602.45 2126.52 -193.876)
(393.257 426.377 -33.2247)
(1.78796 1.38431 -0.0682118)
(2.8091e-05 1.75258e-05 -5.57908e-07)
(4.96024e-11 1.70297e-11 -4.59064e-13)
(1.43668e-16 1.42921e-16 0)
(0 0 0)
(0 0 0)
(0 0 0)
(0 0 0)
(0 0 0)
(0 0 0)
(-1138.26 4005.5 -129.452)
(-756.044 4332.11 -164.166)
(-174.983 4300.59 -174.458)
(263.292 4038.34 -282.664)
(581.882 3728.49 -255.87)
(904.904 3519.5 -250.744)
(1166.22 2998.63 -222.994)
(1044.32 1860.22 -146.215)
(268.289 384.4 -25.9374)
(1.63967 2.0601 -0.079481)
(5.0159e-05 4.88523e-05 -1.2199e-06)
(1.07995e-10 7.22197e-11 -1.28439e-12)
(2.8407e-16 1.43259e-16 0)
(0 0 0)
(0 0 0)
(0 0 0)
(0 0 0)
(0 0 0)
(0 0 0)
(0 0 0)
(-529.569 2365.11 -66.2846)
(-414.986 2801.84 -88.1791)
(-45.1467 2746.98 -95.1241)
(210.318 2370.9 -124.593)
(288.426 1979.86 -102.579)
(382.272 1612.3 -91.719)
(343.637 931.774 -56.0318)
(66.159 151.359 -7.40787)
(0.454052 0.970909 -0.0287412)
(2.60899e-05 3.90151e-05 -7.85342e-07)
(8.86948e-11 1.14073e-10 -1.43892e-12)
(2.84077e-16 2.84023e-16 0)
(0 0 0)
(0 0 0)
(0 0 0)
(0 0 0)
(0 0 0)
(0 0 0)
(0 0 0)
(0 0 0)
(-47.5461 290.983 -5.60434)
(-62.1197 555.622 -13.4912)
(2.45801 528.353 -13.9327)
(32.6233 323.088 -10.8676)
(18.9209 171.319 -5.27412)
(11.9404 77.6273 -2.48638)
(2.3438 11.3592 -0.331717)
(0.0255989 0.094293 -0.00203126)
(3.25103e-06 7.63772e-06 -1.22275e-07)
(2.74706e-11 6.90628e-11 -6.62698e-13)
(1.42967e-16 2.83811e-16 0)
(0 0 0)
(0 0 0)
(0 0 0)
(0 0 0)
(0 0 0)
(0 0 0)
(0 0 0)
(0 0 0)
(0 0 0)
(-2054.61 -2054.5 -141.037)
(-1463.27 -2035.83 -173.501)
(-1030.18 -2092.79 -197.138)
(-594.721 -2076.81 -232.661)
(-138.002 -2097.77 -237.749)
(283.909 -2072.72 -273.46)
(744.539 -2080.32 -279.112)
(1181.19 -2058.94 -296.602)
(1623.86 -2059.19 -307.056)
(2084.69 -2036.45 -307.379)
(2550.14 -1982.85 -302.746)
(2990.96 -1934.77 -290.379)
(3365.84 -1913.98 -266.683)
(3744.08 -1927.55 -240.807)
(4236.83 -1871.99 -211.084)
(4553.25 -1669.24 -175.708)
(4503.99 -1515.05 -169.948)
(4103.18 -1194.26 -180.327)
(2536.81 -580.668 -137.559)
(379.885 -66.1223 -21.2105)
(-2034.98 -1463.13 -174.071)
(-1455.12 -1455.75 -220.194)
(-1043.53 -1515.18 -255.785)
(-608.281 -1533.13 -301.276)
(-153.945 -1594.41 -306.528)
(274.077 -1614.11 -339.288)
(735.483 -1629.09 -352.526)
(1176.85 -1624.99 -378.35)
(1643.18 -1609.79 -383.717)
(2119.7 -1478.42 -376.544)
(2576.06 -1323.77 -364.695)
(3002.07 -1195.84 -346.612)
(3367.9 -1104.3 -320.608)
(3703.53 -1051.01 -294.915)
(4180 -1022.13 -271.358)
(4716.26 -922.623 -221.065)
(4771.93 -862.734 -198.752)
(4437.21 -786.759 -197.863)
(2986.14 -455.208 -158.881)
(685.53 -82.1774 -43.1503)
(-2091.4 -1030.01 -198.164)
(-1514.48 -1043.44 -256.452)
(-1114.43 -1113.47 -291.372)
(-697.524 -1176.38 -335.781)
(-224.873 -1292.02 -351.985)
(268.413 -1352.02 -378.493)
(757.794 -1358.77 -400.473)
(1220.47 -1353.63 -426.631)
(1754.34 -1257.46 -423.093)
(2260.01 -986.508 -402.351)
(2701.06 -775.562 -374.591)
(3090.94 -627.988 -344.942)
(3427.31 -526.682 -313.575)
(3737.69 -475.877 -285.982)
(4152.26 -441.488 -265.373)
(4632.45 -336.867 -229.878)
(4710.35 -263.671 -210.937)
(4395.92 -198.62 -211.36)
(2933.42 -62.3929 -169.82)
(658.624 0.430716 -44.8722)
(-2076.02 -594.397 -234.481)
(-1532.62 -606.394 -302.944)
(-1176.02 -693.193 -336.966)
(-950.468 -945.102 -403.588)
(-459.683 -1007.3 -387.759)
(101.338 -1157.89 -421.422)
(626.03 -1182.35 -448.911)
(1094.47 -1109.9 -453.984)
(1648.5 -1019.46 -459.47)
(2554.5 -272.222 -418.702)
(2922.56 -67.718 -418.991)
(3239.96 51.2695 -397.361)
(3503.46 123.32 -367.017)
(3757.87 165.712 -345.142)
(4139.41 207.845 -328.856)
(4549.2 243.856 -284.468)
(4558.33 242.131 -270.621)
(4146.01 250.209 -263.296)
(2562.67 207.539 -186.732)
(433.449 42.704 -33.4745)
(-2099.41 -138.225 -239.351)
(-1593.26 -154.13 -307.01)
(-1288.56 -224.871 -351.235)
(-1005.17 -458.467 -385.068)
(2317.6 20.4633 -443.285)
(2708.26 758.89 -390.888)
(2890.43 782.803 -384.403)
(3148.67 777.995 -380.722)
(3419.33 763.231 -372.921)
(3701.76 764.722 -359.89)
(4144.47 764.141 -333.046)
(4483.95 701.398 -269.339)
(4415.99 669.609 -256.071)
(3854.52 564.163 -262.896)
(2196.7 288.246 -185.81)
(257.202 26.6622 -21.6579)
(-2071.92 282.624 -273.94)
(-1613.26 272.946 -340.366)
(-1351.39 267.469 -379.692)
(-1160.27 96.2345 -424.192)
(2896.73 1186.45 -372.25)
(3047.03 1382.23 -348.297)
(3086.07 1393.74 -353.936)
(3224.11 1373.63 -366.578)
(3454.85 1293.94 -357.658)
(3787.06 1244.7 -336.078)
(4280.69 1205.85 -294.61)
(4457.08 1132.63 -247.95)
(4345.27 1090.59 -250.786)
(3712.71 915.941 -288.248)
(1912.12 422.301 -199.064)
(145.316 22.2468 -13.9987)
(-2080.44 744.18 -280.619)
(-1629.6 735.328 -354.314)
(-1359.38 757.83 -401.454)
(-1182.77 625.506 -451.226)
(3181.39 1777.97 -345.104)
(3303.7 1942.14 -365.52)
(3342.15 1920.27 -373.329)
(3503.21 1842.77 -361.392)
(3739.56 1781.96 -323.646)
(4060.87 1790.34 -285.901)
(4313.13 1681.13 -252.082)
(4307.5 1596.45 -245.953)
(4107.19 1537.94 -293.036)
(3307.78 1234.9 -335.06)
(1275.6 459.778 -168.25)
(32.6334 7.22668 -3.18894)
(-2058.76 1180.96 -295.528)
(-1625.05 1176.73 -376.804)
(-1354.07 1220.67 -425.583)
(-1110.26 1093.04 -455.169)
(3488.14 2296.91 -352.294)
(3743.33 2475.79 -394.757)
(3814.7 2502.3 -352.323)
(3865.58 2471.25 -314.184)
(3953.97 2449.41 -273.502)
(4061.94 2344.77 -243.15)
(4072.8 2156.19 -256.804)
(3955.85 2062.82 -320.193)
(3620.82 1920.75 -398.992)
(2290.93 1223.73 -327.145)
(338.226 157.048 -49.5126)
(0.613722 0.169281 -0.0493694)
(-2059.54 1623.68 -305.864)
(-1609.72 1643.28 -383.851)
(-1256.19 1755.96 -428.809)
(-1004.21 1660.85 -466.751)
(73.1371 2339.29 -404.283)
(1208.23 2891.22 -386.167)
(1781.44 3183.45 -339.721)
(2300.83 3491.84 -328.94)
(3386.1 3523.2 -377.475)
(3946.5 3064.11 -316.147)
(3887.65 2912.48 -281.205)
(3832.36 2882.21 -282.568)
(3779.52 2808.34 -277.716)
(3715.34 2680.65 -297.391)
(3596.52 2570 -367.72)
(3383.08 2437.24 -444.151)
(2555.63 1854.83 -405.039)
(729.451 516.175 -131.661)
(6.03338 2.8424 -0.65448)
(0.000170217 6.54233e-05 -1.15188e-05)
(-2036.84 2084.77 -308.894)
(-1478.08 2119.69 -381.924)
(-985.162 2261.24 -413.68)
(-263.776 2551.79 -450.701)
(767.741 2705.04 -405.495)
(1389.11 3042.91 -337.762)
(1942.36 3300.21 -338.257)
(2480 3727.61 -353.303)
(3037.17 3975.13 -292.999)
(3503.28 3546.93 -233.604)
(3533.96 3051.92 -279.811)
(3472.48 2967.07 -339.628)
(3322.84 2979.15 -382.459)
(3110.7 2928.25 -438.739)
(2901.19 2778.09 -478.958)
(2242.33 2123.51 -421.914)
(790.244 710.685 -163.057)
(12.5072 9.92188 -1.76381)
(0.00091506 0.000584325 -7.55665e-05)
(1.75767e-09 6.54887e-10 -8.47808e-11)
(-1983.07 2550.48 -307.096)
(-1323.66 2576.28 -374.398)
(-775.445 2701.63 -390.091)
(-65.6295 2921.08 -444.394)
(785.31 2890.41 -400.753)
(1397.12 3083.71 -346.824)
(1920.55 3338.29 -346.255)
(2500.73 3803.61 -322.887)
(2925.72 3889.23 -284.454)
(3050.14 3542.32 -280.18)
(2906.86 2899.86 -391.611)
(2740.42 2822.22 -499.005)
(2496.16 2908.21 -511.501)
(2147.37 2707.1 -480.39)
(1560.24 1865.81 -369.943)
(525.293 594.132 -125.501)
(8.8717 10.9485 -1.58763)
(0.00113603 0.00117079 -0.000118986)
(2.99558e-09 2.28322e-09 -1.8427e-10)
(5.67622e-15 3.57026e-15 -1.41905e-16)
(-1934.76 2991.33 -296.308)
(-1195.85 3002.61 -357.39)
(-628.48 3091.43 -362.335)
(50.8616 3239.59 -414.754)
(777.088 3150.27 -395.393)
(1374.89 3223.48 -359.389)
(1843.89 3500.43 -341.57)
(2474.66 3861.22 -299.045)
(2893.5 3824.41 -291.931)
(2974.11 3460.14 -335.97)
(2819.26 2721.45 -479.197)
(2158.03 2162.19 -526.286)
(1341.79 1771.76 -405.857)
(717.665 1084.99 -227.686)
(145.056 240.326 -44.1421)
(1.94598 4.0469 -0.475372)
(0.000408811 0.000683408 -5.77377e-05)
(1.89178e-09 2.85087e-09 -1.68695e-10)
(5.58599e-15 6.15424e-15 -2.83811e-16)
(0 1.58751e-24 0)
(-1913.74 3366.12 -272.335)
(-1104.33 3368.25 -330.451)
(-527.224 3428.13 -330.087)
(122.083 3504.32 -379.338)
(761.477 3421.55 -385.508)
(1293.94 3455.55 -353.998)
(1782.45 3738.94 -317.208)
(2455.78 3951.78 -273.527)
(2813.7 3769.83 -284.103)
(2981.23 3304.41 -366.385)
(2897.77 2475.81 -467.25)
(1743.22 1329.59 -367.508)
(323.442 329.902 -81.0141)
(9.42556 28.0146 -3.87765)
(0.0838429 0.327816 -0.0307335)
(2.83967e-05 8.70937e-05 -6.29323e-06)
(4.21526e-10 1.29562e-09 -6.36653e-11)
(2.5739e-15 5.29634e-15 -1.41905e-16)
(1.58751e-24 3.54784e-27 0)
(0 0 0)
(-1927.22 3744.36 -245.823)
(-1050.79 3703.89 -303.659)
(-475.923 3738.63 -299.732)
(164.273 3759.42 -355.888)
(762.5 3703.61 -370.951)
(1243.78 3786.38 -337.212)
(1791.81 4060.42 -288.967)
(2350.76 4059.99 -251.65)
(2681.74 3707.28 -297.999)
(2927.99 3096.53 -409.995)
(2686.41 2123.06 -428.59)
(1053.37 695.051 -193.497)
(25.3716 8.52723 -2.97885)
(0.00372154 0.00429006 -0.00050854)
(1.91865e-07 1.50731e-06 -8.63424e-08)
(2.49692e-11 1.51403e-10 -6.77442e-12)
(4.31342e-16 1.99893e-15 0)
(0 1.58751e-24 0)
(0 0 0)
(0 0 0)
(-1871.77 4237.03 -216.144)
(-1022.06 4180.39 -279.778)
(-441.295 4152.82 -277.207)
(206.262 4140.79 -339.157)
(762.338 4144.23 -340.874)
(1206 4279.38 -299.735)
(1683.85 4314.62 -262.295)
(2158.15 4071.36 -266.295)
(2570.15 3590.05 -360.545)
(2778.38 2888.82 -445.694)
(1838 1534.58 -329.933)
(226.06 134.309 -36.2185)
(0.283918 0.0710863 -0.0225133)
(1.25706e-06 1.55953e-07 -5.75118e-08)
(3.13826e-12 3.65161e-12 -2.13568e-13)
(1.87219e-18 1.47906e-16 0)
(0 0 0)
(0 0 0)
(0 0 0)
(0 0 0)
(-1669.34 4552.92 -180.603)
(-923.492 4716.26 -228.671)
(-337.858 4632.76 -239.427)
(241.795 4551.32 -293.52)
(699.974 4486.41 -275.564)
(1133.15 4460.23 -258.036)
(1598.58 4309.52 -258.259)
(2063.97 3953.27 -324.803)
(2438.81 3377.92 -429.348)
(2110.48 2220.51 -391.845)
(575.782 505.869 -110.733)
(3.6516 1.73362 -0.378791)
(7.25855e-05 2.34456e-05 -4.4533e-06)
(1.26102e-10 2.06571e-11 -4.62129e-12)
(4.25131e-16 1.75194e-18 0)
(0 0 0)
(0 0 0)
(0 0 0)
(0 0 0)
(0 0 0)
(-1515.4 4503.42 -174.999)
(-863.892 4771.72 -205.746)
(-265.352 4710.88 -219.118)
(239.951 4561.36 -278.611)
(668.463 4420.34 -262.96)
(1091.43 4349.56 -261.425)
(1539.66 4108.53 -302.645)
(1922.71 3618.71 -396.212)
(1851.07 2540.8 -387.426)
(697.105 772.732 -149.165)
(10.1468 8.14371 -1.32943)
(0.000589419 0.00035042 -4.34834e-05)
(1.10848e-09 3.57458e-10 -4.59874e-11)
(1.71145e-15 5.68618e-16 0)
(0 0 0)
(0 0 0)
(0 0 0)
(0 0 0)
(0 0 0)
(0 0 0)
(-1194.35 4102.1 -185.834)
(-788.009 4437.04 -204.656)
(-200.876 4396.92 -218.757)
(247.772 4151.53 -270.755)
(564.419 3862.8 -269.653)
(918.65 3719.55 -296.799)
(1238.1 3310.12 -338.06)
(1224.51 2285.13 -319.647)
(509.67 718.126 -123.434)
(9.36805 11.7181 -1.52882)
(0.00103597 0.000996826 -9.32775e-05)
(2.49029e-09 1.63336e-09 -1.26542e-10)
(4.71126e-15 2.28305e-15 -1.41905e-16)
(1.58752e-24 0 0)
(0 0 0)
(0 0 0)
(0 0 0)
(0 0 0)
(0 0 0)
(0 0 0)
(-580.634 2534.97 -141.519)
(-456.186 2986.22 -163.844)
(-64.6958 2935.65 -174.886)
(205.447 2570.83 -191.155)
(289.441 2208.32 -190.171)
(425.941 1921.57 -202.55)
(462.41 1278.14 -167.385)
(156.129 335.242 -47.4155)
(2.73153 5.75227 -0.584774)
(0.000529435 0.000820023 -6.12316e-05)
(2.03199e-09 2.63101e-09 -1.4184e-10)
(5.42489e-15 5.14003e-15 0)
(3.54784e-27 1.5875e-24 0)
(0 0 0)
(0 0 0)
(0 0 0)
(0 0 0)
(0 0 0)
(0 0 0)
(0 0 0)
(-65.9988 378.775 -21.7211)
(-82.3404 685.152 -44.3716)
(-0.274818 660.153 -46.1255)
(42.625 437.794 -34.431)
(27.2159 262.02 -22.4415)
(22.8044 147.74 -14.308)
(7.31148 32.8164 -3.15016)
(0.166669 0.599536 -0.0458639)
(6.1218e-05 0.000156866 -9.71363e-06)
(5.95279e-10 1.5725e-09 -6.67697e-11)
(3.13541e-15 5.2505e-15 -1.41905e-16)
(1.58751e-24 0 0)
(0 0 0)
(0 0 0)
(0 0 0)
(0 0 0)
(0 0 0)
(0 0 0)
(0 0 0)
(0 0 0)
(-2075.97 -2075.71 -123.415)
(-1481.43 -2062.43 -147.256)
(-1050.81 -2126.05 -161.019)
(-611.302 -2118.15 -186.189)
(-153.466 -2141.24 -196.409)
(272.706 -2127.34 -219.938)
(732.374 -2137.61 -223.45)
(1167.93 -2122.84 -234.688)
(1612.72 -2127.09 -235.403)
(2076.59 -2095.5 -231.113)
(2545.55 -2032.12 -226.581)
(2997.8 -1975.91 -214.948)
(3389.18 -1944.91 -190.909)
(3764.25 -1953.84 -166.309)
(4245.05 -1911.27 -146.004)
(4602.43 -1715.43 -117.636)
(4579.43 -1565.24 -112.737)
(4222.22 -1269.67 -126.332)
(2746.21 -652.07 -107.358)
(502.431 -94.3397 -22.4072)
(-2062.29 -1481.36 -147.652)
(-1482.3 -1482.51 -179.327)
(-1075.76 -1550.55 -200.636)
(-634.626 -1581.81 -234.144)
(-179.077 -1652.44 -248.53)
(258.981 -1685.52 -273.191)
(723.824 -1700.47 -281.836)
(1168.85 -1704.97 -295.036)
(1644.57 -1678.79 -289.446)
(2122.31 -1529.01 -276.016)
(2578.72 -1367.46 -263.194)
(3011.02 -1241.23 -247.379)
(3392.55 -1149.21 -220.698)
(3732.05 -1090.39 -191.928)
(4184.95 -1062.51 -176.43)
(4737.51 -972.313 -147.262)
(4842.14 -901.307 -128.751)
(4564.06 -836.571 -132.792)
(3219.34 -519.286 -121.678)
(855.926 -112.428 -41.3771)
(-2126.08 -1051.02 -161.993)
(-1550.82 -1075.92 -201.485)
(-1154.91 -1154.23 -222.869)
(-733.508 -1228.56 -257.39)
(-258.701 -1356.31 -277.839)
(247.42 -1425.23 -303.278)
(742.04 -1431.21 -319.639)
(1214.16 -1434.9 -335.835)
(1769.84 -1315.82 -321.226)
(2277.64 -1029.5 -295.743)
(2715 -816.716 -275.928)
(3107.61 -674.598 -260.09)
(3456.52 -574.777 -235.131)
(3773.8 -519.33 -206.612)
(4169.97 -485.102 -190.787)
(4660.79 -392.338 -168.425)
(4787.95 -312.368 -148.246)
(4531.96 -257.294 -149.335)
(3180.88 -109.387 -133.507)
(837.882 -10.219 -44.438)
(-2119.3 -612.445 -188.475)
(-1583.01 -635.448 -237.147)
(-1228.84 -733.849 -262.555)
(-990.824 -989.798 -302.498)
(-500.903 -1076.95 -302.371)
(71.3077 -1222.88 -337.58)
(606.589 -1253.04 -362.6)
(1069.18 -1178.35 -365.883)
(1665.96 -1093.28 -357.295)
(2562.85 -281.996 -308.665)
(2925.54 -98.4299 -306.727)
(3261.51 -5.19964 -299.925)
(3557.08 52.3138 -276.926)
(3826.4 87.5977 -245.71)
(4183.79 123.022 -228.16)
(4615.76 174.637 -207.312)
(4674.12 188.303 -193.13)
(4344.24 198.545 -193.532)
(2865.65 179.425 -154.937)
(615.964 51.4077 -38.9165)
(-2142.83 -153.792 -197.244)
(-1652.1 -179.365 -250.247)
(-1354.71 -259.268 -283.104)
(-1073.13 -501.486 -311.051)
(2353.79 -11.8154 -339.961)
(2785.61 693.908 -277.321)
(2942.4 726.456 -279.871)
(3184.32 730.3 -284.911)
(3465.81 725.682 -272.937)
(3752.31 730.733 -243.886)
(4162.51 740.196 -223.898)
(4572.38 688.123 -197.348)
(4561.02 658.83 -186.875)
(4115.1 572.102 -196.766)
(2552.16 309.867 -158.627)
(432.312 43.4431 -30.0872)
(-2126.27 271.789 -219.995)
(-1684.82 258.968 -273.056)
(-1425.31 247.546 -303.26)
(-1225.29 68.5718 -339.477)
(3009.99 1085.01 -304.327)
(3131.93 1315.65 -253.524)
(3153.3 1334.44 -261.042)
(3262.85 1341.11 -266.666)
(3481.62 1294.11 -250.217)
(3798.97 1247.66 -220.702)
(4279.44 1218.79 -204.373)
(4580.42 1136.64 -183.692)
(4522.01 1100.26 -177.829)
(4021.85 963.288 -204.739)
(2340.27 499.461 -164.123)
(294.634 47.3584 -21.7914)
(-2139.16 732.621 -224.973)
(-1702.7 724.699 -283.242)
(-1433.05 743.235 -320.288)
(-1253.61 607.025 -362.669)
(3285.36 1688.18 -298.391)
(3339.57 1905.05 -249.851)
(3367.27 1897.26 -260.248)
(3511.67 1845.08 -255.74)
(3748.77 1780.47 -222.596)
(4058.05 1785.52 -194.436)
(4389.71 1714.5 -182.295)
(4449.41 1611.81 -167.54)
(4331.5 1572.48 -183.782)
(3705.07 1352.05 -228.216)
(1753.05 622.963 -148.903)
(95.0052 23.4023 -7.01365)
(-2120.76 1168.28 -233.967)
(-1700.38 1168.59 -293.411)
(-1429.54 1211.71 -333.958)
(-1177.58 1074.6 -365.474)
(3529.27 2261.78 -333.057)
(3712.55 2465.45 -238.728)
(3815.24 2485.42 -224.712)
(3892.44 2450.65 -208.518)
(3999.69 2434.37 -188.704)
(4143.92 2378.32 -171.297)
(4216.97 2214.44 -162.849)
(4149.65 2118.19 -188.416)
(3897.97 2015.24 -245.871)
(2823.57 1462.48 -241.646)
(696.966 340.831 -71.4034)
(4.29184 1.19198 -0.257126)
(-2125.68 1611.53 -235.533)
(-1683.14 1640.79 -291.289)
(-1329.47 1760.88 -327.255)
(-1094.65 1653.01 -372.268)
(-0.230931 2334.11 -384.768)
(1106.1 2987.73 -284.535)
(1695.66 3276.81 -278.993)
(2254.04 3534.64 -295.68)
(3441.51 3441.99 -253.216)
(3978.06 3115.41 -184.267)
(3951.8 2995.2 -182.754)
(3914.6 2969.04 -184.194)
(3884.34 2905.14 -180.574)
(3866.7 2785.11 -177.281)
(3796.76 2664.08 -209.061)
(3634.5 2546.88 -268.265)
(3050.19 2141.72 -282.687)
(1224.39 857.969 -143.758)
(32.8834 16.7749 -2.74779)
(0.00415315 0.00149846 -0.000190378)
(-2098.27 2074.81 -233.299)
(-1539.89 2119.11 -282.37)
(-1046.51 2273.12 -308.186)
(-307.764 2563.57 -324.202)
(692.487 2761.46 -288.095)
(1307.99 3122 -247.55)
(1897.87 3343.42 -240.067)
(2453.58 3756.48 -223.413)
(3088.12 4026.71 -174.595)
(3604.94 3646.25 -146.506)
(3648.19 3217.95 -174.915)
(3596.32 3122.75 -203.337)
(3493.74 3122.21 -217.239)
(3346.46 3061.87 -248.233)
(3181.27 2927.79 -292.612)
(2720.48 2486.46 -296.258)
(1292.49 1135.62 -171.287)
(65.0456 51.2867 -6.90164)
(0.0214571 0.0126845 -0.00121149)
(5.33156e-08 1.79836e-08 -1.63984e-09)
(-2036.45 2544.13 -230.293)
(-1377.71 2576.98 -270.898)
(-829.384 2713.87 -288.284)
(-111.497 2932.54 -322.963)
(726.616 2922.59 -288.272)
(1326.76 3144.86 -255.468)
(1884.69 3377.77 -246.051)
(2484.43 3852.84 -208.026)
(2967.33 3969.73 -179.092)
(3187.61 3645.9 -169.132)
(3110.42 3116.87 -216.845)
(3004.62 3045.03 -280.25)
(2821.05 3116.07 -297.83)
(2540.28 3004.57 -305.042)
(2014.34 2349.44 -276.218)
(956.626 1032.65 -145.509)
(49.9829 57.7653 -6.52555)
(0.0271526 0.0275629 -0.00197292)
(9.13309e-08 6.64443e-08 -3.6059e-09)
(1.99093e-13 1.07737e-13 -4.82478e-15)
(-1980.43 2997.47 -219.545)
(-1249.47 3010.86 -255.251)
(-683.435 3108.4 -271.12)
(-10.7096 3270.17 -316.661)
(732.134 3170.39 -296.713)
(1332.11 3256.93 -263.429)
(1827.04 3533.18 -243.92)
(2456.89 3917.56 -200.497)
(2936.16 3910.97 -183.648)
(3081.91 3564.67 -199.388)
(2976.51 2955.55 -273.288)
(2476.2 2511.89 -325.849)
(1774.05 2210.05 -286.153)
(1118.17 1565.72 -199.591)
(390.817 566.345 -73.8609)
(13.8802 24.9265 -2.31224)
(0.0100351 0.0174618 -0.00102298)
(5.83328e-08 8.82357e-08 -3.40997e-09)
(1.98835e-13 2.07935e-13 -6.10193e-15)
(0 6.3215e-19 0)
(-1948.97 3390.21 -195.281)
(-1156.13 3394.07 -227.91)
(-581.612 3458.81 -244.859)
(49.5443 3565.9 -292.316)
(726.753 3455.87 -286.443)
(1282.94 3480.4 -251.774)
(1769.51 3771.08 -220.897)
(2437.67 4011.72 -188.776)
(2869.78 3869.95 -181.058)
(3085.24 3452.35 -211.501)
(3056.41 2758.17 -282.522)
(2101.74 1735.21 -269.488)
(669.925 702.081 -111.327)
(46.9585 105.862 -10.8791)
(0.857181 2.9745 -0.207447)
(0.000833941 0.00262649 -0.000129661)
(1.31225e-08 4.27769e-08 -1.34716e-09)
(9.03975e-14 1.83055e-13 -4.39907e-15)
(6.32149e-19 2.11993e-21 0)
(0 0 0)
(-1957.41 3765.38 -169.888)
(-1096.26 3734.08 -197.563)
(-524.739 3776.78 -214.743)
(85.1681 3835.37 -258.358)
(730.185 3746.74 -256.807)
(1238.41 3802.62 -227.362)
(1782.87 4075.59 -199.825)
(2371.88 4145.31 -174.673)
(2755.29 3850.54 -178.152)
(3035.69 3304.74 -239.837)
(2945.07 2463.4 -286.417)
(1462.81 1041.91 -178.863)
(84.4051 38.194 -8.16522)
(0.0431174 0.0597759 -0.0046014)
(6.8876e-06 4.8182e-05 -2.03421e-06)
(7.80603e-10 5.305e-09 -1.50472e-10)
(1.52306e-14 7.09126e-14 -1.27715e-15)
(3.16784e-19 6.32505e-19 0)
(0 0 0)
(0 0 0)
(-1914.93 4245.63 -149.648)
(-1067.65 4185.94 -181.653)
(-489.438 4172.05 -197.903)
(121.606 4191.6 -238.854)
(739.623 4163.61 -235.692)
(1213.61 4288.68 -213.504)
(1709.21 4396.14 -189.026)
(2200.9 4212.03 -167.112)
(2644.94 3778.71 -208.433)
(2911.34 3141.01 -283.351)
(2276.58 1932.65 -259.167)
(501.104 335.889 -62.2594)
(2.09621 0.569064 -0.136547)
(2.65862e-05 3.766e-06 -1.06721e-06)
(5.47843e-11 8.91771e-11 -3.54905e-12)
(8.54721e-16 8.39423e-15 0)
(0 3.17138e-19 0)
(0 0 0)
(0 0 0)
(0 0 0)
(-1718.86 4603.76 -121.755)
(-976.611 4738.66 -152.528)
(-395.911 4662.43 -174.843)
(174.018 4621.85 -214.797)
(687.36 4578.77 -204.408)
(1133.55 4585.05 -190.716)
(1604.59 4449.42 -173.628)
(2105.95 4140.93 -192.577)
(2535.07 3614.73 -266.536)
(2456.72 2663.18 -287.231)
(976.546 894.073 -134.05)
(20.213 10.7711 -1.78034)
(0.00174308 0.000525296 -8.19931e-05)
(3.42047e-09 4.85928e-10 -9.30716e-11)
(5.40802e-15 7.12252e-16 0)
(0 0 0)
(0 0 0)
(0 0 0)
(0 0 0)
(0 0 0)
(-1568.27 4581.22 -117.243)
(-904.745 4844.94 -134.058)
(-315.171 4790.96 -153.591)
(187.153 4680.14 -198.583)
(657.838 4567.12 -192.211)
(1097.31 4526.48 -184.559)
(1565.34 4328.96 -190.098)
(2006.72 3886.19 -248.83)
(2127.13 3015.08 -279.893)
(1099.19 1242.48 -163.765)
(50.0705 42.4252 -5.46079)
(0.0128322 0.00725307 -0.000725862)
(3.01788e-08 9.01179e-09 -9.16305e-10)
(4.93831e-14 1.03891e-14 -8.51432e-16)
(3.17138e-19 0 0)
(0 0 0)
(0 0 0)
(0 0 0)
(0 0 0)
(0 0 0)
(-1272.7 4224.25 -131.854)
(-840.049 4567.85 -138.44)
(-260.365 4536.42 -154.931)
(196.47 4351.41 -198.939)
(571.539 4122.85 -202.37)
(962.895 4026.74 -211.385)
(1349.33 3700.59 -233.596)
(1455.82 2803.84 -242.884)
(838.982 1190.67 -140.307)
(46.0659 57.7157 -6.06221)
(0.0214711 0.0207325 -0.00148961)
(6.56529e-08 4.22115e-08 -2.44646e-09)
(1.32895e-13 6.36093e-14 -3.12192e-15)
(1.42538e-16 3.16784e-19 0)
(0 0 0)
(0 0 0)
(0 0 0)
(0 0 0)
(0 0 0)
(0 0 0)
(-654.387 2750.83 -112.506)
(-522.426 3226.44 -127.41)
(-111.969 3189.77 -139.238)
(177.381 2877.74 -160.044)
(310.835 2565.95 -163.539)
(502.556 2350.14 -169.191)
(624.201 1750.78 -151.984)
(335.333 683.293 -70.7697)