/*--------------------------------*- C++ -*----------------------------------*\
  =========                 |
  \\      /  F ield         | OpenFOAM: The Open Source CFD Toolbox
   \\    /   O peration     | Website:  https://openfoam.org
    \\  /    A nd           | Version:  9
     \\/     M anipulation  |
\*---------------------------------------------------------------------------*/
FoamFile
{
    format      ascii;
    class       volScalarField;
    location    "0.01";
    object      p;
}
// * * * * * * * * * * * * * * * * * * * * * * * * * * * * * * * * * * * * * //

dimensions      [1 -1 -2 0 0 0 0];

internalField   nonuniform List<scalar> 
9720
(
509494
356209
174379
106770
131293
153071
152919
128270
97902
71502.7
53202.2
44576.8
40427.4
41927.7
45901.5
51505.8
58236.2
67154
78420.2
112219
359756
120601
64786.2
67552.3
122969
148134
147814
117364
71955.1
40759.6
25030.9
19734.9
20081.8
21535.6
25458.9
31769.6
38722.5
46303.1
54852.2
80834.8
178212
64373.1
55749.9
54800.6
116959
147989
147192
113432
53706
24221.1
15259.3
15258.9
16463.9
18762.2
22049.2
26539.8
31044.5
35251.5
39251.8
52667.1
105419
65878.5
54067.9
41232.6
84938.2
147524
156986
131726
50257.4
10051.1
10734.9
12193.7
13921.3
15581.5
17198.1
18707.9
20177.4
21869.9
23504.9
28305.6
125409
116888
111587
84831.5
8307.03
18202
19596
20734.6
21342.8
21641.6
21961
22460.3
23148.9
23975.6
24789.5
27016.4
145779
141374
141639
141146
26934.8
27914.2
27381.4
26865.1
26483.6
26280.1
26242.8
26341.5
26564.6
26942.2
27432.2
28557.2
145320
141035
140958
150545
30123.5
28230.7
27808.2
27405.1
27055.4
26794.4
26597.1
26495.8
26529
26690.4
26924.7
27604.6
121509
111230
107493
125693
24786.8
17763.9
18716.3
19336.7
19866
20284
20674.9
21114.4
21576.6
22129.8
22669.1
23715.2
92249.5
67355.2
49636
44073.2
7998.58
25575.2
28691.7
23148.2
2200.86
3796.35
6207.3
8525.28
10542.7
12230.3
13536.3
14779.6
15990.6
17081.6
17979
19605.1
67069.2
37869.4
22579.5
9462.56
17426
26717.8
26869.1
16811.5
3993.9
1379.35
1857.64
3075.69
4653.36
6364.7
8130.58
9792.24
11239
12651.8
13785.4
15898.3
49966.5
23047.4
13983.8
10263.2
18932.1
26089.5
26373.2
17809.5
6446.5
1937.27
1144.56
1336.05
1952.43
3121.21
4592.67
6127
7639.26
9104.53
10393.2
12769.1
41984.7
18488.3
14098.8
11695.1
19796
25527.6
25927.4
18433.4
8744.57
3263.93
1362.64
1019.23
1158.56
1631.26
2491.36
3658.7
4902.51
6306.61
7639.19
9915.28
38284.3
19031.6
15591.8
13325.9
20164.1
25160.9
25585.1
18969.1
10615.8
4900.11
2044.91
1169.82
983.414
1040.4
1384.84
2029.59
2943.35
4204.33
5315.04
7383.7
39721.8
20741.8
18370.5
15003.6
20453.6
24958.9
25373.5
19413.4
12153.5
6603.31
3289.67
1674.72
1038.77
1019.52
1072.87
1306.5
1911.87
2800.8
3685.18
5598.65
43475.6
24612
21881.9
16585.2
20840.3
24933.6
25257.9
19831.5
13368
8338.91
4811.16
2565.34
1376.51
1068.1
1088.94
1247.76
1578.55
2119.73
2818.34
4411.2
48901
30585.5
25997.2
18071.3
21417.7
25054.3
25241.2
20298.6
14593.6
10004.1
6355.23
3748.52
2033.73
1299.36
1243.79
1341.92
1533.44
1860.01
2308.74
3551.49
55395.5
37123.3
29859.7
19565.7
22148.8
25338.2
25324.8
20806.7
15848.2
11467.9
7872.64
5038.1
2988.87
1901.66
1577.8
1539.17
1616.2
1809.88
2071.82
3007.07
63894.4
44271.4
33824.1
21290.3
23001.8
25804.8
25552.5
21421.5
17033.1
12901.7
9371.14
6504.4
4315.94
2840.68
2149.39
1903.26
1832.99
1903.23
2088.18
2657.3
74639.7
52311.6
37801.5
22972.3
23862
26375.1
25842.4
22003.1
17966.7
14067.2
10710.4
7896.38
5525.83
3795.45
2896.33
2416.08
2165.41
2123.88
2163.03
2471.28
106993
76814.7
50912.6
27866.2
26247
27638.5
26669.5
23166.2
19634
16223.6
13144.5
10292.2
7741.6
5846.1
4631.91
3807.58
3262.28
2874.15
2597.52
2737.58
508212
335992
160642
104592
132273
153588
153437
128454
97001.9
70749.1
52170.9
43433.6
39011.2
40279.7
44037.6
49653.5
56424
65220.8
76115.8
109063
340320
108139
62556.6
67179.4
124789
149186
148590
117726
70790.4
39682.8
24256.4
18928.8
19141.6
20253.9
23647.6
29643
36664.2
44256.8
52534.1
77503.5
164929
61904.6
53502.4
54199.3
119047
149313
147999
113494
52504.8
22989.7
14647.3
14660.3
15682.3
17555.7
20241.1
24191
28736.3
33208.3
37217.3
49666.6
102504
64580.5
51626.2
39610.7
91655.7
146824
156529
131333
50848.6
9683.13
10237.9
11541.6
13195
14812.5
16386.4
17832.8
19151
20637.1
22073.7
26405
124334
115649
109591
79982.9
8451.51
17786.9
18969.3
19970.3
20619
20910.4
21169.7
21585.1
22208.5
22961.2
23687
25648.9
144867
140876
141448
140245
26020.6
27284.6
26728.3
26176.5
25752.8
25478
25420.6
25462.1
25625.2
25933.1
26358
27388
144565
140641
140742
149356
29144.5
27612.3
27141.2
26668.3
26275.1
25987.1
25806.1
25631.6
25586.4
25685.6
25895.9
26540.2
120902
111214
107518
124950
23979.8
17272.4
18122.5
18678.8
19230.3
19718
20049.5
20330.4
20670.3
21203.3
21792.3
22796.6
91076
66451
48899.6
45356.4
8531.57
25129.2
28196.8
22666.7
2373.6
3696.83
6018.45
8331.85
10251
11765.6
12884.4
13963.8
15253.3
16512.3
17360.7
18717.5
66227.2
37033.8
21528.2
9232.76
17346
26462.7
26592.2
16570.3
3905.31
1335.62
1833.43
2965.12
4375.3
5888.48
7531.95
9288.99
10853.8
12167
13098.6
14901.1
48665.2
22434.5
13584.8
9921.19
18617.5
25915.2
26167.1
17505.8
6305.19
1910.99
1052.85
1181.32
1679.8
2759.31
4276.66
5867.39
7260.44
8510.97
9560.73
11807.5
40418.8
17638
13681.5
11268.4
19500.7
25388.7
25750.5
18145.8
8641.14
3145.45
1201.58
902.583
1060.07
1558.72
2397.58
3445.01
4490.58
5646.38
6882.58
9241.54
36428.6
17964.7
14879.3
12843
19992.1
25011.5
25414.2
18796.6
10541.7
4640.28
1773.25
1074.03
971.1
1044.4
1323.55
1831.03
2549.46
3648.37
4822.38
6925.34
37671.1
19213.6
17058.6
14459.6
20308.6
24801.8
25225
19376.7
11961
6206.89
2942.09
1618.02
1054.39
927.475
940.712
1099.44
1593.36
2484.1
3384.15
5185.84
41293.7
22492.5
19827.8
16028.1
20640.6
24764.6
25137.6
19744.8
13005.1
7871.82
4561.71
2528.57
1353.97
943.726
936.717
1062.5
1385.65
1923.39
2561.71
3971.85
46814
28175.3
23495.6
17482.1
21121.6
24848
25078
20040.2
14091.2
9697.9
6243.73
3645.61
1902.15
1118.88
1066.18
1172.9
1365.21
1640.34
2006.97
3057.47
53401.4
34910.2
27611.6
18838.6
21778.1
25058.2
25088.4
20434
15473.1
11344.1
7695
4758.75
2682.28
1638.42
1406.28
1376.81
1423.8
1548.4
1725.1
2541.07
61865.9
42191
31941.5
20362.5
22540.5
25437.5
25239.2
21063.2
16850.5
12696.6
8982.57
5985.97
3862.23
2589.79
1987.72
1696.4
1573.9
1602.07
1746.59
2335.28
72213
49964.2
35913.5
21824.8
23296
25926.3
25496.2
21715.7
17736
13639.5
10073.9
7302.75
5141.48
3576.49
2684.25
2127.73
1802.88
1792.96
1865.26
2231.09
103419
73405.2
47923.9
26173.1
25348.1
27040.3
26239.3
22808.3
19126.6
15502
12429.4
9821.99
7420.76
5530.59
4239.21
3322.65
2772.32
2525.5
2343.53
2487.46
521003
320499
145969
105022
131988
153299
153029
127608
96326.2
70247.5
51639.6
42816.9
38182.7
39301.5
43148.1
49004.5
55992.6
64735.6
75440.1
108429
323616
91672.9
60563.7
69192.5
123886
148901
148248
116693
69944.4
38871.4
23919.9
18582
18788.5
19713.7
22733.9
28540
35873.4
43675.9
51850.4
76608.5
148237
59458.6
51710.9
54584.7
117663
149052
147773
112374
51208.8
22010
14544.2
14827.3
15723.7
17190.2
19254.5
22611.1
27311.6
32489.2
36821.4
48649.8
99060.7
63345.3
50068.1
37655.1
90829.7
147141
156809
131034
49099.3
9424.05
10038.1
11340.1
13003.2
14592.2
16111.5
17613.2
18935.2
20330.1
21610.3
25481.5
122901
114432
108353
78309.5
7549.55
17494.7
18608.3
19489.7
20304.7
20752.7
21025.6
21352.9
21894
22613.7
23308.8
25113.2
143935
140077
140737
139758
25740
27138.5
26584.2
26055.5
25626.3
25331.7
25289.9
25343.2
25498.6
25780.7
26172.6
27176.1
144217
140148
140009
148842
28965.1
27496.8
27012
26517.8
26119.7
25848.2
25710.9
25594.2
25525.3
25592
25776.2
26397.7
120369
110947
107296
124261
23751.9
17176.3
17923.6
18465.6
19043.3
19657.8
20017
20233.6
20534.6
21058.9
21657.5
22675.8
90408.4
66600
49551.4
46785.7
7340.92
25057
28095.2
22658.8
2372
3683.19
6011.78
8377.53
10271.6
11633.5
12726.3
13720.7
14985.7
16388
17275.8
18565.1
65486.4
36531.7
20901.1
8905.22
17061.6
26415.8
26550.7
16350.7
3700.49
1240.22
1767.5
2890.95
4242.55
5704.43
7266.72
9047.26
10742.2
12014.7
12880.2
14571.3
47678
21971.3
13187.1
9468.38
18136.2
25861.1
26091
17171
6035.97
1805.2
938.921
1044.19
1497.06
2485.37
3983.4
5661.86
7031.35
8169.56
9171.95
11387.4
39106.2
16881.9
13493
10693
18923.9
25331.8
25639.6
17796.2
8394.97
2969
1061.16
821.462
954.736
1445.37
2271.62
3254.61
4211.33
5296.84
6481.37
8912.88
34853.7
17134.8
14504.1
12281
19621.3
24893.9
25273.2
18470.3
10286.3
4365.29
1567.71
969.173
945.794
1022.22
1245.52
1694.32
2339.97
3343.52
4537.62
6701.23
35957.8
18178.6
16105.8
13832.2
20065
24600
25053.5
19145.4
11636.3
5887.37
2624.69
1501.09
1035.66
870.357
876.007
1014.23
1441.16
2317.61
3212.98
4935.61
39697.1
21016.6
18171.7
15336.7
20361.3
24552.8
24976.5
19531
12686
7481.2
4201.16
2394.31
1293.51
884.093
869.188
974.038
1279.26
1788.61
2347.5
3696.05
45447.8
26476
21332.4
16856.6
20690.5
24611.9
24910
19758.3
13679.3
9307.11
5963.26
3454.44
1790.34
1050.18
979.873
1084.32
1255.01
1456.89
1789.55
2803.85
52295
33525
25631.6
18249
21217.6
24773.7
24881.6
20094.4
15001.5
11063.1
7407.09
4484.79
2507.99
1522.73
1306.18
1261.25
1279.32
1386.95
1567.74
2350.28
60791.2
41050.7
30581.1
19698.5
21933.1
25078.9
24978.3
20706.2
16481.8
12385.5
8612.39
5664.4
3610.87
2465.81
1855.64
1488.02
1399.63
1448.08
1604.13
2209.59
70927.5
48708.2
34811.7
21005.2
22649.2
25503.2
25220
21367.6
17424.7
13296.4
9675.07
6944.18
4895.28
3432.26
2462.5
1867.57
1614.45
1638.86
1742.5
2130.5
101813
71805.5
46062
24822.5
24489
26565.4
25946.8
22480
18800.8
15091.6
12007
9516.7
7210.22
5303.73
3948.06
3017.91
2527.7
2367.64
2223.7
2371.4
528497
305672
134078
104934
131430
153066
152702
126773
95295.4
69069.9
50499.6
41719
37329.8
38303
42062.4
48307.9
55971.9
65085.4
75714.2
108877
307767
79233.5
59356.7
69972.1
121965
148371
147985
116042
69125
37534.1
22918.9
17766.1
18174.3
19243.3
21807.8
27458
35303.3
43647.1
51775.8
76357.2
133618
57929.4
51554.5
53420.9
115007
148485
147596
111971
50605.2
20831.2
13665.1
14442.1
15628.7
17000.3
18454
21216.7
25633.5
31474.6
36345.3
47995.4
96076.6
63210.6
50416.3
37179.1
85602.5
146826
156768
130726
45637.4
9087.37
9604.41
10886.6
12604.9
14218.4
15641.9
17151.4
18600.7
20053.8
21281.9
24748.4
121824
114269
109067
82361.5
8135.64
17354.6
18538.1
19336
20097.6
20715.1
21051.9
21297.5
21679.2
22282.9
22945.6
24602.2
143370
139841
140592
138939
25643.7
27140.3
26631.4
26149
25708.6
25329
25235.6
25251.2
25382
25618.7
25943.9
26824.1
143727
139556
139461
148504
28971.1
27567.7
27114
26641.7
26219.8
25912.1
25722.8
25588.4
25468.9
25504.5
25637.9
26156.5
119615
110101
106377
123682
23755.2
17037.4
17770
18360.1
18940
19549.7
19926.4
20134.3
20424.4
20930.2
21454.1
22374
89941.4
65760.5
48512.4
44880.4
8024.28
25086.4
28178.2
22709.3
2343.31
3517.86
5853.22
8179.56
10096
11449.2
12582.7
13612.5
14772.7
16095.2
17006
18353
65106.6
35614.4
19850.6
8706.79
17021.3
26416.2
26580.6
16326.9
3645.81
1153.88
1652.56
2733.35
4037.73
5493.09
7086.59
8798.87
10487.8
11792.3
12671.8
14380.5
47453.4
21614.1
12689.8
9158.77
18118.5
25868.7
26131.7
17105.5
5974.5
1706.87
851.935
933.599
1355.85
2302.09
3702.85
5357.44
6777.27
7851.75
8923.15
11157.4
38620.4
16485.1
13423
10336.2
18765.5
25349.8
25684.7
17719.6
8286.83
2898.25
965.604
749.986
850.587
1289.51
2077.92
3044.7
3921.7
5015.65
6227.61
8653.66
34021.7
16786.7
14601.3
12002.6
19400
24887.9
25299.4
18365.9
10227.4
4304.03
1454.52
864.309
892.997
970.918
1173.82
1554.47
2162.32
3166.65
4333.35
6504.49
34848.8
17774.2
16010.8
13622.6
19969.4
24532
25061.6
19036.8
11595.8
5790.96
2467.48
1337.78
984.895
836.92
828.152
955.23
1368.26
2206.3
3084.6
4759.95
38368.4
20142.3
17470.9
15017
20333.6
24479.6
24968.4
19475.3
12658.4
7355.56
3914.87
2192.5
1228.13
839.381
824.44
930.12
1214.94
1696.24
2195.08
3462.75
44221.2
25280
20043
16473.8
20612.7
24529.7
24902.2
19739.4
13625.7
9027.45
5625.7
3257.12
1675.13
998.465
937.176
1031.54
1183.98
1342.53
1593.65
2582.46
51338.7
32506.1
24050.3
17899.2
21022
24691.5
24878.7
20086.2
14763.8
10739.8
7139.93
4234.37
2353.64
1453.37
1238.98
1189.93
1200.19
1255.89
1441.33
2236.15
59782.8
40130.7
29329.8
19330.3
21655.2
24958.2
24940.5
20661
16150.8
12140.2
8297.43
5396.58
3421.41
2332.61
1761.81
1375.75
1266.05
1322.2
1512.4
2165.02
69514.6
47358.1
33693
20510.7
22321.1
25314.7
25117.4
21244.1
17161.6
13057.4
9380.33
6638.29
4627.77
3270.14
2317.84
1660.15
1465.5
1527.48
1688.63
2164.64
100084
69386.8
43988
23710.9
23929
26248.6
25740
22264.9
18592.5
14804.2
11623.2
9109.13
6901.17
5075.53
3690.07
2730.91
2331.33
2259.38
2222.32
2423.32
535818
300332
128280
103791
131383
153511
152870
126434
94429.2
68056.6
49554.2
40652.8
36768.8
37872.8
41799.4
48167.5
56456.2
66112.8
76884.9
110292
302764
74679.3
58333.8
70308.2
122314
149026
148244
116038
68404.7
36386.9
22176.9
17012.4
17569.4
18871.4
21455.7
26926.2
34983.3
43845
52147.4
77048.8
128142
56755
50696.8
53728.4
115995
149146
148019
112119
50142.4
20013.9
12951.4
13978.4
15469.1
16944.5
18032.3
20371.6
24406
30440.4
35802.1
47942.1
95166
62437.2
48788.3
36225.6
86093.5
146581
157184
131070
46719.4
9017.77
9423.65
10574
12280.7
13972.7
15382.3
16847
18362.6
19887.1
21135.9
24475
120812
112827
107106
80143
8105.71
17288.4
18596.4
19303.4
19944.1
20575
21041.4
21311.7
21645.9
22200.6
22860.7
24501.5
142619
139264
140380
138414
25682.7
27121.2
26604.2
26130.1
25692.6
25303.2
25172.6
25182.6
25322.6
25567.4
25888.5
26753.3
143293
139406
139491
148212
29005.6
27610.1
27154.7
26703.6
26304.4
25980.2
25746.4
25618.6
25538.1
25575.1
25680.5
26158.9
118882
109617
105968
123551
23862
16947.7
17687.1
18294.3
18872.4
19431.8
19840.3
20151
20485.1
20950
21400.6
22315.2
89373.7
65149.7
47602.6
44182.8
7833.79
24978.8
28074.1
22547.6
2237.44
3461.33
5766.4
8029.71
9894.54
11330.4
12539.5
13617.9
14688.7
15875.6
16834.7
18342.9
64637.7
34948.1
19305
8664.87
16893.4
26328.3
26520.8
16241.3
3622.15
1122.03
1558.14
2620.21
4028.42
5461
7042.39
8672.1
10249.4
11655.9
12653.9
14405.2
47215.7
21248.5
12335.4
9058.47
18122.7
25803.4
26095.2
17087.5
5958.64
1621.72
836.504
965.076
1408.38
2277.59
3580.38
5135.4
6642.86
7927.96
8990.25
11097.6
38355.2
16213.8
13214.6
10147.6
18775
25335.5
25710.3
17700.9
8216.79
2799.53
998.346
741.963
804.651
1181.26
1935.11
2958.66
4003.28
5084.35
6208.31
8495.87
33867.5
16596.6
14593.2
11832.7
19350.2
24908.5
25366.3
18282.8
10071.1
4299.24
1501.02
811.222
844.224
941.573
1187.19
1644.21
2264.1
3189.1
4250.72
6414.81
34632.4
17719.2
16119.3
13539.5
19894.6
24525.1
25077.5
18875.2
11512.7
5776.33
2437.39
1219.3
953.375
893.531
907.555
1028.18
1394.77
2125.93
3008.01
4784.87
37976.7
19955.2
17341.2
14912.7
20325.3
24425.1
24909.5
19373.7
12681.9
7331.61
3781.71
2022.7
1229.95
917.116
888.249
946.793
1156.12
1635.71
2225.45
3543.68
43657.3
24847.4
19561.3
16278
20612
24453.2
24889.5
19807.9
13686.2
8899.37
5366.51
3122.96
1739.12
1063.05
951.834
1006.28
1167.88
1406.57
1696.97
2662.98
50871
32079.6
23193.9
17669
20961.8
24610.8
24915.9
20217
14698
10451
6940.24
4247.4
2410.06
1458.53
1176.69
1172.99
1229.36
1345.05
1512.5
2243.27
59225.8
39765.4
28476.6
19087.9
21522
24875.5
24999.2
20685.5
15884
11934
8282.79
5371.49
3377.45
2225.43
1692.52
1445.41
1357.59
1394.15
1544.12
2150.1
68617.6
46681.2
32988.7
20246.8
22148.1
25206.1
25125.2
21147.4
16906.9
12980.5
9337.34
6516.45
4475.35
3154.74
2333.14
1763.74
1533.67
1555.4
1682.94
2228.74
98902.2
67642
42811.3
23162.3
23637.9
26064.2
25649.8
22128.3
18512
14744.7
11420.2
8826.93
6697.79
5015.39
3718.26
2768.01
2295.23
2193.34
2272.62
2553.19
535130
298827
127122
103511
131764
153908
153003
126558
94426.1
68057.8
49597.3
40468.6
36755.5
37940.7
41865.3
48221.6
56577.2
66459.1
77484.5
111155
302653
73949.2
57756.4
70983.6
123353
149754
148391
116131
68504.5
36469.8
22211.3
16993.9
17490.3
18898.6
21668.4
27172.3
35137.4
43976.4
52352.4
77672.5
128499
56308.7
50030.5
54602.1
117175
149947
148270
112211
50221.5
20098.9
12938.3
13972.5
15516.1
17065.5
18244.6
20600.5
24675.2
30752.6
36075.6
48278.2
95859.3
62436.3
48059.1
35974.3
88355.5
146839
157576
131543
46180.2
9003.85
9411.85
10564.1
12290.1
13997.6
15404.7
16846.7
18323.8
19849.8
21138.2
24555.7
120199
111566
105705
76637.8
6947.3
17248
18619.7
19311
19931.1
20524.2
20972.6
21257.1
21609.9
22157.5
22802.5
24433.9
141734
138180
139384
138221
25637.7
27114.4
26620.4
26158.9
25714
25321.8
25195.5
25206.2
25338.9
25578.4
25903.2
26749.1
143082
139281
139374
147920
28992.5
27584.4
27139.9
26675.6
26243.3
25924.5
25761.3
25667.2
25538.8
25546.4
25637.7
26119.3
118672
109535
106099
123306
23763.9
16991.7
17725.7
18284.9
18883.6
19484.1
19913.4
20209.2
20521.8
20986.9
21490.7
22397.1
89202.5
65222
47821.1
45350.4
7245.14
24992.4
28106.4
22647.5
2253.89
3568.19
5896.94
8145.77
10016.8
11467.4
12639.1
13658.6
14742.3
15978.7
16968.5
18428.2
64558.6
35024.5
19379.4
8538.11
16838.9
26391.2
26619.9
16267.9
3597.98
1124.35
1575.66
2681.56
4132.81
5561.27
7095.33
8711.08
10289.5
11761.3
12792.7
14496.3
47159.6
21248.4
12293.8
8960.87
18062.2
25894.9
26215.8
17033
5888.65
1594.7
839.861
983.262
1442.42
2307.2
3598.19
5134.2
6674.47
8011.15
9066.03
11122.1
38325.2
16204.1
13180.4
10078.9
18742.5
25446.1
25811.2
17621.8
8099.74
2730.45
991.484
740.635
800.294
1172.01
1920.82
2959.79
4030.92
5116.14
6224.95
8531.07
33881.1
16601.6
14594.2
11780.5
19355.8
25031.2
25440.8
18287.4
9967.66
4209.83
1475.25
802.51
837.648
937.887
1191.14
1655.17
2271.83
3179.84
4249.55
6431.12
34655.2
17767.1
16175
13483.6
19930
24653.2
25165.5
18991.7
11420.5
5673.03
2388.49
1201.12
948.101
895.558
910.356
1026.02
1377.95
2105.21
2999.66
4778.41
37997.5
20014
17441.1
14879.2
20370.8
24549.3
25040.2
19470.8
12580.6
7223.13
3726.11
1992.53
1224.35
917.542
886.209
938.531
1141.37
1631.17
2226.16
3530.85
43641.3
24835.2
19572.9
16263.3
20659.1
24572.6
24970.2
19743.5
13560.3
8824.79
5312.47
3083.14
1725.02
1056.2
944.188
997.897
1164.36
1411.86
1691.33
2635.78
50833.3
31951.1
23037
17670.3
21002.2
24723.6
24949.4
20051.6
14617.5
10409.8
6867.5
4194.63
2385.83
1444.44
1170.64
1171.07
1230.92
1339.59
1497.57
2210.85
59141.3
39597.9
28187.7
19052.7
21534.3
24988
25000.6
20563.9
15861.6
11848
8194.78
5327.24
3355.49
2218.54
1691.56
1441.74
1350.41
1383.35
1525.96
2133.08
68431.1
46449.2
32692.3
20168.4
22147.5
25318.7
25137.5
21128.5
16858.6
12847.1
9265.23
6478.67
4465.57
3150.04
2325.49
1753.68
1522.77
1541.17
1668.61
2212.55
98530.1
67062.5
42335
22996.5
23641.4
26174.5
25688.9
22145.9
18363.9
14592.8
11359.7
8815.2
6685
4987.91
3697.36
2755.22
2281.29
2196.65
2265.98
2526.81
527955
302912
131706
104686
132537
154582
153302
127100
94913.7
68670.4
50204.3
41358.1
37405
38547.6
42411.4
48604.5
56402.8
65983.9
77167
111095
307089
77538.5
57902.8
71965.1
124513
150436
148508
116337
68637
36965.6
22639.5
17516.9
18031.5
19346.1
22229.8
27971.2
35795.8
44252.4
52665.9
78276.6
133747
56531.1
49871.3
55912.5
118102
150602
148311
112224
50278
20493.4
13340.8
14255.9
15716.1
17217
18683.8
21494.7
26073.9
32124.2
37136.4
49213.9
96495.8
62224.4
48239.7
36289
89550
147011
157630
131686
46398.6
9102.05
9557.26
10788.9
12543.2
14222.2
15659
17178.5
18669
20199
21490.4
25078.9
120114
111564
105908
77041.6
7268.61
17375.7
18663.7
19375.1
20049.9
20657
21026.7
21281.8
21672.7
22311.7
23021.6
24755.7
141750
138252
139321
138433
25624.6
27139.5
26611.6
26100.2
25623.9
25227.7
25157.4
25189.6
25339.1
25595
25941.3
26850.8
143060
139401
139545
148144
29003.3
27582.5
27106
26629.4
26210
25910.6
25752.3
25654.2
25561.6
25596.4
25729.3
26253.9
118678
109458
105901
123619
23756.6
17079.2
17794.8
18365.2
18942.9
19561.7
19988.7
20250.1
20574.8
21108.4
21639.9
22563.1
89173.2
64988.7
47561.7
43668.9
6957.68
24957.3
28135.3
22752.9
2228.69
3598.19
5962.18
8300.91
10244.6
11603.2
12694.6
13720.2
14867.8
16230.6
17213.6
18583.7
64510.7
35153.6
19670.1
8739.92
16837.4
26313.3
26580.9
16261.3
3511.65
1130.02
1657.57
2802.06
4155.61
5585.16
7163.66
8839.43
10543
11926.6
12830.7
14535.1
47171.4
21313.3
12554.6
9185.42
18110.4
25788.5
26139.7
17014.7
5797.14
1652.45
838.687
937.602
1368.3
2305.82
3691.34
5345.18
6822.99
7921.51
8989.25
11223.6
38580.1
16403
13258.6
10357.2
18800.8
25319.8
25703.3
17628.9
8089.91
2780.33
938.89
728.235
821.522
1250.49
2044.01
3043.05
3949.9
5026.95
6235.97
8665.32
34087.6
16805.9
14634.3
12040.3
19389.7
24888.5
25327.5
18266.2
10007.1
4121.72
1382.2
825.241
871.326
956.573
1170.26
1561.93
2158.25
3144.25
4298.91
6487.47
34915
17879.8
16270.9
13689.5
19926
24514.6
25066.7
18944.2
11362.6
5574.86
2346.52
1277.56
966.778
828.89
821.359
938.142
1332.77
2148.68
3044.21
4729.1
38395.1
20203.7
17744.7
15044.4
20308.8
24444.7
24940.4
19393.3
12466.1
7160.09
3771
2109.46
1204.17
828.7
809.644
906.136
1175.62
1663.94
2176.38
3430.13
44256.9
25251.4
20144.9
16434.5
20588.7
24475.9
24864.5
19655.3
13475.2
8865.31
5465.34
3150.63
1633.2
971.785
913.666
1004.27
1162.83
1331.55
1571.18
2532.58
51350.4
32490.6
23877.7
17846.8
20971
24627.9
24819
19983.5
14632.2
10565.7
6947.57
4100.21
2279.12
1407.38
1210.01
1171.84
1187.73
1237.09
1412.32
2194.87
59688.3
40175.8
29053
19288.8
21566.7
24889.2
24871.7
20526.6
15973.3
11904.2
8083
5241.84
3330.09
2281.3
1740.79
1368.04
1250.05
1298.36
1481.89
2169.91
69200.4
47240.6
33475.6
20484.7
22217.8
25232.1
25038.3
21086.6
16926.8
12816
9181.63
6497.27
4545.02
3221.71
2296.48
1645.99
1442.14
1501.46
1675.81
2165.77
99383.3
68561.1
43543.1
23607.2
23795
26149.4
25637.6
22094.6
18364.3
14592
11475.8
8994.78
6809.96
5000.05
3646.05
2694.73
2302.2
2267.49
2229.24
2409.95
520202
315782
143225
106514
133844
155553
154089
128332
95963.5
69757.9
51178.9
42397
38230.9
39555.2
43485.5
49252.5
56270.5
65416.8
76734
110813
320950
89088
59698.6
71915.3
126203
151377
149207
117284
69383
38130.9
23347.5
18200.6
18502.9
19649
23055.2
29133.1
36467.3
44408
52925.3
78889.5
146343
58272.3
50794.8
56700.2
119687
151450
148854
112888
50848.9
21485.9
14058.2
14563.7
15651.8
17139.2
19292.2
22866
27903.7
33389.9
37914.1
50344.9
97552.8
62203.8
49225.3
37313.1
91298.1
147798
158095
132047
47212.6
9328.07
9867.91
11159.1
12866.8
14492.7
16021.7
17565.5
18952.7
20421.7
21761
25774.5
121283
112934
106965
77379.4
7548.09
17475.9
18693
19560.3
20365.4
20816.4
21061.4
21348.5
21858.9
22571.6
23276.3
25126.8
142608
139018
139912
138869
25699.9
27122.1
26593.5
26059.7
25600.8
25281.2
25236.1
25271.7
25400.8
25644.5
26006.4
26988.6
143427
139846
139986
148432
29034.9
27506.3
27038.9
26559.9
26173
25920
25792.4
25679.3
25546.4
25588.2
25747.4
26334.8
119355
110237
106668
123691
23756
17049.3
17809.3
18394.4
19039.5
19714
20099.3
20304.8
20591.8
21125.3
21737
22727.2
89552.6
65777.9
48521.8
45697.3
7569.03
24954.6
28080.2
22693.8
2327.58
3633.47
5966.15
8369.92
10322.5
11685.8
12772.6
13759.6
15035.7
16502.6
17423.4
18675.9
64890.3
35991.9
20535.1
8792.51
16944.4
26388.4
26609
16428.6
3670.16
1214.61
1753.17
2886.95
4239.45
5687.44
7253.28
9056.38
10820.5
12140
12994.6
14650.5
47491.5
21676.7
12921.9
9383.55
18164.7
25872.1
26179.2
17219.7
5982.43
1779.92
916.372
1014.44
1452.79
2423.06
3923.13
5662.41
7093.72
8218.18
9214.7
11439.4
38949.4
16697.3
13271.4
10657
18989.2
25380.3
25746.9
17815.1
8341.14
2941.72
1024.96
792.674
916.615
1408.63
2256.17
3264.22
4215.12
5293.08
6480.35
8954.83
34622.2
17026.3
14509.6
12280
19638.7
24959.4
25386.5
18474.9
10249.9
4306.78
1495.38
924.893
939.062
1025.77
1249.86
1683.61
2309.42
3303.01
4511.73
6732.07
35723.2
18159.7
16353.4
13840.6
20074.2
24659.4
25157.9
19156.5
11579.4
5784.45
2509.89
1440.82
1033.94
857.082
854.55
980.105
1390.67
2267.07
3188.03
4940.32
39458.7
21014.1
18415.7
15288.5
20386.2
24606.1
25065.5
19561.1
12621.8
7363.89
4060.18
2328.82
1282.59
861.072
841.045
942.563
1243.85
1761.24
2321.3
3677.5
45258.4
26434.1
21380.2
16803.8
20726
24658.9
24989.5
19783.8
13596.3
9180.21
5833.52
3383.9
1754.26
1013.23
948.704
1055.64
1237.03
1438.42
1760.9
2770.26
52157.6
33513.3
25430.4
18252.6
21254.7
24822.7
24940.7
20088.6
14887.5
10936.8
7294.69
4395.01
2440.42
1464.29
1273.65
1246.05
1263.44
1363.99
1542.82
2327.53
60605.6
40962.9
30277.3
19746.7
21964.1
25128.8
25020.7
20658
16365.6
12269.1
8473.59
5544.75
3507.08
2396.67
1836.81
1477.88
1377.6
1424.53
1580.33
2219.88
70602.1
48333.7
34426.9
21035.2
22668.6
25548
25235.9
21313.6
17320.1
13152.2
9509.83
6803.02
4786.7
3378.73
2442.55
1845.21
1587.21
1612.28
1731.9
2146.28
101384
70755
45094.9
24620
24430.7
26588
25922.9
22405.7
18660
14885
11816.4
9372.89
7113.04
5237.71
3903.33
2971.84
2490.06
2362.02
2229.97
2372.9
507841
330136
157990
108391
135076
156385
155061
129916
97653.5
71131.2
52243
43410.7
39277.8
40692.2
44436
49829.4
56458.1
65517.8
76927.2
110995
336709
104994
62747
71108.5
127426
151881
149984
118709
71116.3
39728.6
24224.3
18852.3
19064.4
20333
24024.9
30154.9
37032.6
44694.7
53237.6
79271
161959
60905.5
52847.9
56707.9
121245
151789
149364
114222
52744.3
22910.7
14693.7
14635.7
15614.2
17430.8
20266.4
24557.4
29488.7
34200.4
38328.8
51431.1
99432.2
62639.7
50646.2
38933.5
93579.2
148776
158361
132482
50195.9
9612.41
10167.3
11475.8
13094.5
14653.9
16225.1
17715.6
19095.9
20651.4
22175.8
26756.1
122732
114550
108711
78301.4
7834.05
17512.3
18762.6
19816.1
20486.4
20754.9
21001.9
21426.3
22076.8
22855.5
23607.3
25673.1
143631
140054
141029
139704
25618.8
27074.9
26541.7
25994.2
25556.7
25290.3
25244.8
25282.6
25430.5
25729.1
26157.8
27205.7
143776
140248
140464
148927
28835.2
27413.9
26963.2
26496.5
26106.2
25851.1
25717.2
25566.7
25496.2
25584.3
25792.9
26445.3
120024
110895
107389
124316
23599.4
17159.5
17996.5
18575.2
19172.4
19700.1
20020.9
20268.9
20610.8
21190.6
21814.5
22802.9
90004.7
66157.1
49134.5
44715
7957.76
25137.5
28268.9
22854.1
2338.35
3723.66
6072.89
8431.38
10330.8
11773.4
12834.4
13910.2
15278.4
16623.8
17463
18755.5
65250.4
36623.7
21480.2
9148.17
17247.3
26670.7
26837.4
16652.6
3801.9
1325.67
1845.18
2976.54
4347.5
5840.28
7492.79
9331.78
10975.7
12262.1
13139.7
14898.6
47961.6
22085.2
13264.8
9802.23
18633.7
26122.9
26401.9
17556
6212.14
1897.65
1029.39
1134.87
1615.49
2696.31
4270.51
5934.72
7324.35
8507.49
9538.58
11816.1
39650.3
17206.9
13395.2
11109.2
19548.1
25598
25968.5
18194.9
8581.9
3103.95
1158.03
877.719
1040.78
1560.38
2425.53
3470.84
4476.2
5612.62
6865.47
9282.77
35646.7
17554.6
14703.6
12696.2
20034.8
25201.1
25608.2
18864.3
10473.5
4547.83
1698.51
1050.53
974.673
1058.12
1329.13
1806.62
2499.04
3597.17
4810.04
6959.53
36929.6
18901.7
17033.7
14320.4
20359.7
24938
25394.1
19453.4
11887.6
6085.54
2841.4
1593.51
1059.71
906.193
911.863
1058.38
1540.09
2446.19
3371.94
5182.86
40587.3
22233.1
19821.6
15886.6
20691
24883.5
25295.3
19802
12917.6
7745.09
4456.59
2491.91
1340.16
912.472
902.855
1030.8
1358.63
1903.19
2543.41
3947.45
46177.5
27877.5
23326.8
17383.2
21148.8
24946.9
25201.9
20060.4
13984.3
9575.56
6140.22
3576.28
1849.46
1073.29
1033.43
1147.12
1347.4
1623.17
1985.1
3023.91
52864.2
34565.1
27270.5
18786
21782.5
25135.5
25184.1
20414.5
15356.9
11221
7565.63
4645.63
2594.45
1574.9
1375.64
1356.86
1404.12
1526.14
1700.68
2510.23
61359.5
41669.2
31468
20317.5
22524.1
25487.3
25299.6
21026.3
16740.6
12550.1
8817.68
5847.27
3747.65
2516.76
1952.75
1668.55
1548.37
1577.12
1722.22
2317.09
71730.7
49195.8
35280.8
21725.5
23239.4
25941.3
25522.8
21674.9
17617.1
13467
9893.59
7150.85
5016.57
3494.76
2634.52
2084.87
1764.24
1764.68
1841.85
2214.73
103183
72340.2
46558.5
25777.2
25142.1
26998.7
26208.9
22724
18962.6
15282.7
12219.4
9645.84
7273.34
5416.87
4155.32
3249.66
2710.92
2484.44
2311.55
2455.99
509282
350059
171245
110288
134769
156212
155178
130320
99146
72407.8
53610.9
44794.3
40747.3
42284.4
46122.3
51382.9
57877.2
67006.4
78771.5
113720
357129
117711
65750.5
70813.5
126875
151177
149832
118783
72639.7
41134.5
25169.6
19791.1
20105.6
21690.4
25850.8
32175.5
38851.2
46392.6
55158.4
82153.7
176137
63477.3
55575.9
57038.4
121031
150825
149148
114534
54165.2
24295.3
15441.2
15249.9
16342.4
18561.5
22087.5
27056.7
31855.6
36067.9
40066.3
54197.5
102628
63626.1
52185.2
40527.6
94967.7
149333
158736
133102
51327.2
10026.4
10672.1
12130
13770.1
15315.7
16879.1
18378
19897.9
21690.3
23459.3
28615.4
123332
114914
109648
79732
8511.34
17827.5
19197.8
20338.5
20923.9
21160.8
21454.3
21967.5
22693.4
23573.1
24430.8
26806.1
144405
140401
140898
140822
25730.4
27435.5
26895
26358.4
25976.5
25767.7
25724.5
25806
26008.5
26376.9
26873.3
28018.4
144405
140454
140501
149297
28879
27772.3
27339.2
26917.7
26551.5
26285.3
26087.3
25987.2
26020
26173.4
26403.8
27093.5
120546
110637
106931
124914
23746.5
17477.2
18417.2
19038.6
19562.3
19954.3
20307
20715.7
21174.1
21742
22278.1
23298.9
91029.2
66389.1
48508.7
44580.7
8574.2
25424.2
28530.8
22932.8
2400.33
3737.18
6147.72
8455.3
10432.7
12048.4
13298
14535.9
15761.2
16837.6
17702.2
19287.5
66068.6
37188.6
22129.3
9348.7
17465.5
26758.3
26934.2
16816.9
3947.55
1367.97
1850.33
3048.52
4577.78
6256.41
8010.7
9682.63
11111.4
12474.3
13577.8
15671
49113.4
22635.4
13699
10218.3
18883.9
26088
26409.4
17780.2
6398.46
1922.42
1124.74
1303.54
1908.6
3078.4
4558.23
6075.67
7543.64
8969.47
10251.3
12613.3
41103.7
18031.7
13860.2
11684.7
19783.4
25518.5
25948.3
18404.3
8691.99
3223.53
1331.58
1002.42
1148.25
1630.57
2487.39
3620.22
4829.87
6225.71
7550.48
9796.72
37412.1
18574.9
15394.2
13307
20177.2
25146.7
25585.6
18945
10544.8
4823.7
2000.64
1158.26
973.909
1031.99
1364.94
1986.04
2888.18
4141.31
5236.78
7282.52
38836.9
20320.7
18201.2
14948.6
20465.7
24922.6
25362.4
19385.6
12054
6510.09
3235.14
1657.41
1024.05
993.596
1040.64
1269.16
1868.68
2741.83
3616.43
5512.07
42524.8
24136
21639.1
16498.5
20828.1
24893.2
25242
19777.3
13252.3
8249.53
4753.28
2527.86
1340.39
1033.04
1055.6
1219.21
1545.5
2075.58
2765.4
4341.71
47966.1
29981.1
25590.1
17978
21368.9
25008.7
25222.9
20219.5
14480.7
9921.9
6273.1
3670.41
1966.55
1254.65
1214.88
1316.89
1506.52
1824.63
2268.43
3501.11
54477.7
36386
29337
19459.9
22076.6
25281.9
25295
20726.4
15749.1
11363.5
7750.57
4924.7
2896.79
1849.33
1553.53
1515.47
1588.62
1780.64
2045.13
2968.19
62974
43250.9
33098.1
21151.6
22916.5
25742.1
25510.2
21354
16923.2
12757.7
9225.25
6379.63