/*--------------------------------*- C++ -*----------------------------------*\
  =========                 |
  \\      /  F ield         | OpenFOAM: The Open Source CFD Toolbox
   \\    /   O peration     | Website:  https://openfoam.org
    \\  /    A nd           | Version:  9
     \\/     M anipulation  |
\*---------------------------------------------------------------------------*/
FoamFile
{
    format      ascii;
    class       surfaceScalarField;
    location    "0.01";
    object      phi;
}
// * * * * * * * * * * * * * * * * * * * * * * * * * * * * * * * * * * * * * //

dimensions      [0 3 -1 0 0 0 0];

internalField   nonuniform List<scalar> 
28500
(
-85.6093
-85.8456
10.1564
-100.763
-159.85
9.41102
-149.117
-245.996
1.0824
-116.645
-274.084
-2.95506
-51.0651
-281.429
-2.01981
0.239574
-284.798
-2.92646
51.8007
-280.737
-1.89708
119.756
-285.997
-0.872957
181.383
-273.42
-0.967095
228.644
-232.913
-1.32285
261.575
-196.189
2.15593
280.14
-165.927
1.05152
295.454
-138.452
4.80782
306.397
-127.362
5.92616
313.99
-114.381
6.41082
323.829
-98.2339
3.71211
335.13
-90.8226
5.23255
346.034
-85.5863
7.84258
351.239
-75.3724
10.4692
-59.1268
10.6423
-158.451
-97.1079
11.0453
-214.096
-212.745
3.23366
-194.775
-242.946
-3.11572
-130.645
-271.217
-5.65151
-55.1474
-282.781
-1.84352
0.31099
-283.634
-2.86973
55.6931
-281.272
-2.23608
136.345
-284.908
-0.609504
218.759
-262.262
1.42421
279.845
-203.173
-4.99088
320.93
-162.474
1.64426
343.239
-142.84
4.29711
367.098
-128.027
6.91944
394.268
-127.703
5.86871
409.429
-124.691
4.32853
421.297
-111.763
5.43855
435.413
-105.714
6.49364
447.787
-98.7117
6.58257
453.145
-88.6969
6.85858
-64.152
7.8066
-245.52
-146.827
6.30508
-243.876
-192.737
2.38129
-219.198
-217.097
-1.28136
-141.733
-62.3426
-6.12727
-64.1081
-63.8681
-65.3085
-60.1838
-69.829
-2.5159
-70.331
-70.8316
-71.0978
-0.105037
-70.5187
-2.55668
-69.3565
-70.9547
-69.966
60.5404
-69.3954
-2.14123
-69.6019
-69.905
-70.1409
146.802
-69.7805
-1.23704
-69.8284
-70.268
-70.5826
240.972
-63.6852
3.02757
-54.0167
-64.6435
-54.9864
308.168
-178.859
-6.97211
360.809
-164.109
-2.6455
414.035
-155.705
1.89262
457.108
-157.56
6.56802
487.23
-157.398
6.52392
505.507
-153.893
0.239834
518.257
-149.461
-2.54092
528.627
-144.539
-1.47756
537.343
-136.508
1.90827
542.432
-129.935
2.68721
-110.554
3.23426
-273.511
-115.485
3.829
-270.288
-130.477
5.00426
-63.8315
-141.125
7.41785
-64.8801
-63.4523
-65.0827
-56.8766
-55.1036
-2.04775
-24.6014
-1.41647
42.8832
-17.0649
-16.9638
-16.9889
-17.0025
15.8094
-7.12446
-0.429459
-17.5405
-17.7489
-17.7655
-17.5285
0.0785871
7.10971
-0.408628
-17.4087
-17.1585
-17.1777
-17.3873
-15.9855
24.7854
-0.302019
-17.6496
-17.2827
-17.3176
-17.6155
-45.1856
58.0415
-60.3454
-0.680056
477.579
-123.913
-0.00226878
-84.987
-112.659
-84.9312
-112.285
518.105
-129.733
-1.5995
540.887
-128.793
-0.754545
555.319
-128.47
-1.2263
564.309
-125.571
-0.618984
568.115
-120.595
0.161381
569.5
-113.773
0.238209
571.054
-108.358
0.416904
572.872
-103.012
1.25046
574.543
-98.0892
1.38024
-87.5114
1.75652
-282.899
-51.5542
-2.56029
-283.663
-55.5808
-2.28088
-70.2495
-60.2572
-0.342718
-70.5819
-70.4621
-71.0463
-24.3936
0.483771
43.3673
-17.3867
-17.617
-17.8574
-17.4439
6.18947
31.6257
-7.45121
-0.253279
589.059
-62.426
0.975738
-144.29
-146.07
-145.308
-147.288
593.254
-62.2211
1.50883
596.929
-61.8396
1.14324
600.302
-60.0323
1.01957
603.13
-57.6567
0.843278
605.299
-55.5169
0.0207671
606.645
-53.2381
-0.435349
606.937
-51.2555
0.27013
606.985
-48.9869
1.23136
606.738
-47.2285
0.758861
-44.8099
0.303981
-286.613
0.00901398
-1.74485
-285.43
0.0832486
-1.94375
-70.6823
-0.278864
-2.15622
-70.2167
-71.3131
-70.4954
15.8024
-7.08331
-0.481418
-17.5377
-17.7477
-17.7761
-17.5075
3.27042
36.6914
-2.35217
-0.0308318
593.137
-0.159509
0.680219
-147.268
-147.606
-148.485
-148.786
593.86
-0.246333
0.332743
594.331
-0.62887
0.0693947
594.391
-0.799594
-0.27811
594.122
-1.18262
-0.40142
593.557
-1.29091
-0.386796
592.69
-1.25023
-0.242722
591.648
-1.49524
-0.522251
590.52
-1.12238
-0.952649
589.317
-1.34686
-0.865802
-0.695298
-0.369592
-281.57
51.9827
-2.1511
-281.749
55.6238
-2.4307
-69.6497
60.5285
-2.17687
-69.7662
-70.1389
-70.2853
0.0378314
7.04981
-0.519433
-17.4806
-17.2756
-17.2878
-17.465
-0.000109161
36.592
0.738112
-0.0117786
591.451
59.2827
0.96143
-147.045
-147.102
-148.214
-148.289
592.196
58.413
1.06305
592.719
57.0348
1.07093
593.172
55.3614
0.507723
593.702
54.0155
-0.0603397
594.024
52.32
0.0137427
594.125
51.0025
0.377948
594.271
49.6799
0.58413
594.659
47.8175
0.324335
595.086
47.2314
0.088075
46.2295
0.129346
-287.387
120.239
-0.841588
-285.743
137.094
-0.806224
-69.7497
147.124
-1.48135
-69.9244
-70.3457
-70.6163
-15.9185
24.7456
-0.453735
-17.5166
-17.4412
-17.4291
-17.3675
-3.26324
36.7033
4.42564
-0.0258238
595.329
156.567
2.86395
-147.119
-146.708
-148.225
-147.881
597.047
149.59
3.18878
598.899
145.389
-0.347445
599.876
138.333
-2.91788
600.575
133.067
-1.03377
601.473
127.278
2.85406
601.615
121.064
3.51542
600.918
116.233
0.645165
599.964
110.61
-2.4523
599.379
106.386
-1.27925
99.8225
0.166738
-273.894
182.255
-1.85476
-262.399
220.553
0.0227402
-63.3903
242.1
0.541176
-54.1999
-64.938
-55.7214
-44.786
-60.2892
59.9353
-1.10541
7.5809
-6.35346
35.5827
-0.219022
3.27685
-2.34128
35.8348
-0.260001
-0.0461114
0.794941
35.6947
-0.211907
-3.36139
4.51007
35.9319
-0.200382
-7.52919
-9.41009
119.134
126.121
-3.27607
-14.1445
-6.86862
-13.4338
-15.333
-11.8392
-16.3257
555.606
320.895
4.21679
-132.621
-117.331
-132.848
-116.604
569.823
269.349
-12.3607
579.603
241.517
-4.79225
587.711
227.104
5.62184
592.128
211.874
9.159
595.774
199.396
4.36173
598.591
187.238
-4.25868
599.836
176.49
-7.3155
601.81
167.651
-2.36827
603.191
160.657
3.42027
149.246
2.58832
-232.105
229.253
-3.16762
-200.154
281.151
-7.54105
-178.437
310.002
-10.8256
-127.662
476.721
-5.66361
-87.1187
-115.688
-86.0183
-112.448
-62.6685
578.492
-3.91901
-142.333
-143.129
-143.516
-144.962
0.694787
581.808
-3.27697
-144.165
-144.213
-145.939
-145.952
62.0625
580.192
-3.52529
-143.689
-144.024
-145.441
-145.853
165.456
583.957
-1.67445
-144.741
-144.955
-146.702
-147.175
303.759
552.534
5.45701
-134.344
-121.991
-136.108
-123.912
455.15
463.011
-37.023
510.714
375.769
-8.71884
535.164
320.675
20.3391
551.017
298.036
16.676
564.338
279.093
1.42918
573.288
260.773
-11.8049
578.575
244.532
-12.3101
585.782
233.229
-2.0463
592.818
219.521
9.54222
596.089
211.64
7.62901
194.816
1.96284
-195.249
261.796
-0.64544
-162.778
322.294
-1.09965
-161.168
364.931
-4.93688
-130.051
513.606
-7.39328
-62.5133
582.5
-2.79196
0.757533
582.856
-3.73334
60.7468
580.972
-3.29309
153.428
584.812
-0.697661
257.16
563.377
-12.8428
356.459
507.235
-11.7362
431.287
436.47
36.2246
474.614
372.714
27.6439
508.754
348.939
-6.63122
524.704
327.125
-22.5309
537.09
311.694
-17.3616
552.659
296.509
0.536445
566.661
283.138
15.6181
573.662
267.951
14.5187
580.392
255.448
0.365224
234.776
-3.67636
-165.88
281.159
-2.9267
-145.98
345.993
-2.68971
-158.154
418.386
-0.584607
-130.109
534.99
-3.57003
-61.1736
586.507
-3.63027
0.476849
583.451
-3.80178
58.6174
581.708
-2.8524
146.749
586.594
-3.96243
234.057
570.584
-8.98818
306.232
529.702
13.923
360.622
473.463
25.1553
414.698
419.527
-10.8404
451.181
385.641
-35.9494
474.641
362.191
-20.5721
498.048
352.543
4.72848
516.606
338.729
20.9804
531.465
326.111
18.2335
544.223
305.987
0.612138
552.677
292.273
-10.9211
272.885
-4.2734
-140.77
296.397
1.13178
-133.296
369.842
-0.072175
-161.204
456.663
0.506383
-130.014
547.353
-4.27458
-58.6784
589.895
-3.82265
0.321114
583.597
-3.92117
56.4364
582.305
-3.34553
138.792
587.446
-6.19359
222.348
577.718
1.11734
288.657
544.95
13.5405
338.153
505.817
-6.62527
376.255
452.366
-34.9156
416.358
421.498
-24.0807
453.646
399.756
12.2816
470.126
383.677
29.1194
485.703
367.028
20.9893
503.407
356.071
-0.774078
513.573
336.286
-17.6525
525.089
331.349
-11.276
310.539
2.42332
-127.938
306.882
2.63846
-125.978
393.372
0.0866579
-156.733
481.402
0.640293
-124.688
553.258
-5.16086
-56.482
592.709
-3.44827
-0.106337
583.385
-4.03223
54.7576
583.016
-4.2181
132.577
587.969
-4.01286
207.773
582.236
6.32196
272.156
557.387
0.845893
319.86
520.7
-23.071
354.056
475.261
-21.4007
392.173
456.588
12.0021
427.691
433.063
37.3176
448.687
410.307
25.9922
464.744
386.927
-1.88416
472.774
372.763
-21.3104
482.771
361.95
-17.5804
505.362
363.772
3.14844
342.87
10.7562
-114.515
313.981
3.30908
-121.15
406.811
-0.916745
-152.67
498.46
-4.09322
-118.86
556.593
-4.8694
-54.4631
594.744
-3.71543
-0.324694
582.881
-4.15013
52.6975
583.334
-4.30372
126.283
588.545
-0.042903
195.637
585.574
2.33567
254.921
565.24
-12.7352
305.343
531.524
-19.718
347.608
497.705
2.30716
380.664
475.727
29.052
405.362
456.677
27.8707
428.097
436.916
-2.39686
438.787
403.77
-25.6824
448.21
385.97
-20.0824
468.014
380.268
2.55229
482.56
381.326
17.9923
363.718
11.5957
-98.5686
323.536
0.989103
-110.467
418.559
0.843186
-147.734
511.015
-5.76257
-112.044
558.956
-4.20363
-52.3013
595.872
-3.6196
-0.417859
582.095
-4.322
51.2756
583.55
-3.74888
119.897
588.562
0.38446
183.666
587.188
-6.35432
239.107
569.118
-14.3773
291.529
545.868
-2.5332
336.34
515.991
19.3365
367.132
491.046
22.5707
387.009
473.821
0.372693
399.571
450.597
-24.3931
410.615
418.858
-21.7466
429.919
403.667
1.62094
446.965
393.695
24.0748
459.48
389.539
17.8782
376.146
4.44869
-91.3916
335.025
1.45387
-106.168
432.859
1.59672
-142.243
521.258
-4.08382
-106.872
561.237
-3.30684
-50.1544
596.045
-2.65592
-0.841723
580.984
-4.82865
49.6189
583.904
-3.16992
114.514
587.912
-2.78416
172.706
587.5
-9.75427
227.641
574.947
-4.76048
277.619
558.734
13.0306
323.01
528.905
17.7032
355.864
505.847
1.29404
375.519
480.734
-20.463
388.524
458.986
-19.6362
402.976
438.947
1.37397
419.389
423.938
23.9112
431.326
407.699
23.1492
443.885
396.137
5.78132
387.291
-1.80761
-86.4497
346.2
3.53776
-98.9647
444.912
1.89323
-134.309
529.17
-0.522469
-101.426
563.036
-2.04678
-47.7703
596.03
-1.85487
-0.524863
579.723
-5.11664
47.638
584.44
-3.28247
108.371
587.309
-5.57095
163.333
588.348
-4.76981
213.914
580.544
6.57647
262.774
563.995
12.2826
303.298
538.748
0.508181
336.427
514.04
-17.4602
364.462
488.124
-18.941
383.958
476.395
0.73218
396.71
457.263
25.7342
404.985
440.394
25.2205
414.375
421.963
10.1378
421.366
405.853
-5.26918
398.976
0.468533
-76.4948
351.481
6.35051
-88.9208
450.134
2.8644
-127.435
533.688
0.397494
-96.1467
564.189
-1.86049
-46.065
595.482
-2.84643
-0.795751
578.27
-4.90289
47.2284
584.947
-3.53561
104.06
587.42
-4.17967
155.848
589.152
0.6239
205.77
582.552
4.78441
250.079
568.321
-1.20425
288.813
545.184
-11.5487
329.439
522.656
-12.584
363.195
507.825
1.03311
383.295
489.398
19.3354
392.746
467.48
21.8287
397.26
452.155
9.80804
405.076
427.273
-3.60054
416.403
416.142
-1.92894
413.343
10.8472
-60.3243
7.48526
-64.5446
4.49569
-107.214
1.1748
-85.3649
-1.264
-43.7393
-3.34421
-0.161929
-4.31811
46.0759
-3.48617
97.4151
-2.57227
144.351
-0.362447
189.001
-0.671515
228.998
-5.5387
267.835
-6.09222
306.066
0.145346
340.192
9.6545
363.808
13.6852
376.231
8.87544
386.864
1.4479
398.997
1.58749
412.535
12.3287
17.5071
-85.8844
-86.5076
11.1394
-107.061
-169.394
17.1093
-150.713
-253.727
7.3016
-116.939
-281.433
0.324697
-50.4438
-287.104
-2.12555
0.572044
-290.376
-1.74902
52.2416
-285.667
-1.56473
120.725
-291.223
-0.731642
182.929
-278.388
0.983611
230.236
-237.237
-0.511378
263.591
-199.58
4.12415
281.993
-168.816
3.15635
297.589
-140.027
7.17024
308.826
-128.695
9.3278
315.921
-115.642
10.8703
325.264
-98.7901
6.97757
336.329
-90.657
7.96569
347.348
-85.5854
9.92017
352.757
-75.3998
13.1329
-58.8247
13.2512
-166.081
-102.68
17.9524
-213.865
-215.773
11.737
-196.005
-249.39
-0.098252
-129.49
-281.112
1.03403
-54.2828
-290.042
-1.39231
0.591805
-289.675
-1.91435
56.2711
-287.209
-1.94302
137.167
-291.043
-1.01602
220.503
-268.152
4.77148
282.373
-209.282
-2.55022
325.075
-165.538
3.0994
347.639
-144.392
6.23217
371.671
-129.14
10.6785
400.478
-130.566
11.4519
415.688
-128.744
13.2685
426.311
-115.039
12.7137
439.332
-107.017
11.5532
451.735
-99.3231
10.3294
457.535
-89.4905
10.9225
-64.9726
12.2337
-249.614
-149.11
11.1949
-246.597
-196.542
2.33897
-218.724
-221.939
4.96496
-141.402
-65.6923
5.11313
-66.9805
-66.2645
-67.9493
-58.9008
-72.6116
-1.14177
-72.8665
-73.4958
-73.7363
0.00848257
-72.1693
-2.11853
-71.312
-72.9597
-72.1387
60.7219
-71.2456
-1.89096
-71.4241
-72.0032
-72.1907
147.387
-71.5368
-1.50449
-71.9523
-72.2601
-72.6406
244.216
-65.8063
5.49897
-56.1385
-65.9719
-56.1599
313.858
-181.881
-1.26663
366.976
-166.793
2.57668
419.689
-157.072
5.45696
463.142
-157.627
9.69795
495.734
-158.163
10.7847
514.342
-154.697
8.74812
526.047
-150.074
6.90919
535.611
-145.994
6.37725
543.954
-138.099
7.02869
549.163
-131.773
6.71655
-113.386
8.04264
-277.699
-117.038
4.67994
-276.317
-132.365
2.81816
-64.2078
-142.233
4.4454
-66.0899
-64.852
-66.8772
1.59481
-55.7818
-57.6885
-1.55856
1.22539
-24.1982
-0.472947
43.3406
-18.1095
-18.5902
-17.9044
-18.7194
0.346201
15.7391
-7.03095
-0.332718
-17.9269
-18.139
-17.8183
-18.2572
0.35851
0.00763257
7.16217
-0.34025
-17.9183
-17.5798
-17.7998
-17.6827
0.21989
-16.0205
24.7062
-0.233746
-18.0863
-17.7586
-18.0102
-17.8786
-45.2972
-0.364169
57.9711
-62.2597
0.507258
488.173
-124.801
5.09933
-85.9303
-113.442
-87.4327
-117.262
528.441
-131.116
5.70521
550.441
-129.8
7.83674
564.61
-128.873
5.66639
574.058
-126.335
3.71919
578.074
-121.59
3.94685
578.776
-115.016
4.49489
579.363
-109.179
5.1015
580.574
-103.913
6.43638
582.057
-99.1715
6.4885
-88.9728
7.16391
-287.76
-51.8482
-1.77444
-289.908
-55.9394
-1.42614
-71.4932
-60.156
-0.363134
-72.3702
-72.2588
-73.1917
-0.80681
-24.4754
0.378546
42.8981
-17.4973
-17.2301
-17.3669
-17.3285
-0.112668
5.98524
31.4392
-7.50135
0.207531
600.127
-62.4994
3.33229
-147.271
-149.312
-148.706
-150.514
603.941
-62.2009
3.86457
606.955
-61.7245
3.64432
609.699
-60.1316
3.4529
612.025
-57.826
3.76392
613.829
-55.6811
3.22761
615.087
-53.2439
2.49395
615.293
-51.3061
3.01077
615.183
-49.0892
4.31925
614.865
-47.43
4.22527
-45.0285
4.31137
-291.053
0.0154349
-0.727567
-290.393
0.145528
-1.12565
-72.4593
0.0680883
-1.58952
-71.4561
-72.9497
-72.0673
0.340226
15.761
-7.00066
-0.269874
-18.0101
-18.2112
-17.9507
-18.2848
-0.106443
3.20021
37.4337
-2.30069
0.122781
604.74
-0.169302
2.30132
-150.505
-150.711
-151.688
-151.809
604.601
-0.0720974
2.22272
604.394
-0.393491
2.27191
603.965
-0.634408
2.26803
603.3
-1.08786
2.36095
602.469
-1.32547
2.44709
601.355
-1.01737
2.72532
600.011
-1.24442
2.72192
598.663
-0.954778
2.41549
597.327
-1.12295
2.51606
-0.702188
3.14531
-286.296
51.933
-0.579703
-287.316
55.6499
-0.720272
-71.3593
60.4109
-0.656968
-71.4351
-72.0097
-72.1588
0.339461
0.0235579
7.0466
-0.157562
-17.9394
-17.6487
-17.8395
-17.7296
-0.121705
-0.00538159
37.316
0.731309
0.13446
603.07
59.3267
2.78852
-150.195
-150.277
-151.333
-151.456
602.96
58.7759
2.99126
602.9
57.4988
3.53945
602.839
55.5503
3.50783
602.933
54.0348
3.07422
602.93
52.5406
2.96635
602.714
51.1427
3.26641
602.619
50.1859
3.81234
602.777
48.2076
3.95738
603.051
47.3327
3.72529
46.3368
3.64807
-291.987
120.625
0.203022
-291.287
137.327
-0.250406
-71.5179
147.102
-0.643945
-71.8667
-72.2519
-72.5773
0.277586
-15.8516
24.5149
-0.162596
-17.9478
-17.7942
-17.889
-17.915
-0.128118
-3.19359
37.4059
4.32803
0.155657
606.812
158.651
3.60151
-150.22
-149.766
-151.493
-151.199
608.293
150.099
6.24453
609.355
145.287
4.3284
609.504
138.555
0.851097
609.627
132.988
0.910445
610.374
128.2
4.40691
610.69
121.92
6.98519
610.093
116.472
5.65005
608.46
110.974
2.26179
607.723
106.74
1.97241
100.466
3.50104
-278.582
183.133
0.615254
-267.834
221.51
3.37425
-65.0989
244.409
3.20105
-55.7585
-65.9806
-56.302
-44.4528
0.186753
-61.956
59.1752
0.103754
-0.0162712
8.2077
-7.32877
35.9815
-0.269625
0.17975
3.20474
-2.28695
36.9785
-0.173134
0.132822
-0.0557819
0.790051
36.8099
-0.123551
0.140334
-3.30625
4.42186
37.0818
-0.140642
-6.9499
-10.8508
2.30106
118.712
129.147
-1.63204
-13.3592
-6.92246
-13.3319
-16.2718
-10.9695
-16.3546
567.356
327.728
16.7955
-134.762
-117.874
-135.793
-119.431
579.816
270.027
-6.02305
587.724
241.107
-5.39737
596.309
227.73
3.512
602.155
213.793
11.0857
605.303
200.619
10.7861
606.952
187.924
4.06765
607.466
176.028
-2.53998
609.053
167.389
-0.851968
611.198
161.484
5.10012
150.427
6.58265
-236.785
230.476
-2.15618
-206.933
282.719
-4.71757
-180.208
314.694
-5.26788
-126.353
488.5
-1.71769
-87.1967
-116.204
-87.6638
-117.721
-62.4901
595.293
-2.84591
-146.597
-148.111
-148.366
-149.818
0.739865
599.568
-2.50646
-149.049
-149.097
-150.841
-150.951
62.4897
598.019
-2.5027
-148.612
-148.995
-150.468
-150.852
168.183
601.943
-2.27117
-149.872
-150.445
-151.719
-152.317
307.279
570.901
15.0197
-138.489
-125.812
-140.85
-127.164
462.492
474.837
-23.308
516.404
379.974
-22.3134
545.91
327.981
15.3923
562.217
303.261
23.1235
573.586
280.89
14.8512
581.29
261.401
-0.298561
585.773
243.138
-7.95781
591.85
232.835
-2.65886
601.13
221.699
9.58785
604.404
213.39
12.8739
196.59
8.76988
-199.149
263.813
1.50529
-165.97
325.962
0.490147
-163.706
370.305
-0.332349
-130.406
526.546
-3.36782
-62.0926
598.318
-1.71168
1.06041
598.977
-2.84643
61.1262
597.094
-2.31337
154.856
601.777
0.850115
259.054
579.145
-7.41495
360.022
517.921
-22.2658
444.599
453.768
26.0091
489.067
387.638
46.1822
518.681
354.13
19.4855
533.971
328.772
-8.6615
543.961
311.563
-14.9251
558.105
297.5
-3.37878
575.421
287.129
14.2299
582.928
271.562
21.335
587.778
258.171
12.0416
235.893
3.95797
-169.833
282.895
-0.26968
-147.809
349.906
-0.955359
-157.591
423.043
2.80804
-130.07
547.631
2.32237
-61.2605
601.127
-2.19563
0.694866
598.347
-2.92998
59.062
596.649
-1.73842
147.276
602.092
-1.09929
234.328
584.021
-10.0118
312.934
543.548
9.8041
374.717
491.285
43.3454
427.645
433.782
24.8607
461.355
391.342
-21.0099
479.344
365.396
-21.3913
503.568
355.808
-1.94568
527.141
344.761
21.3402
542.156
331.315
28.7412
551.547
309.719
18.4865
559.783
293.405
-0.185031
272.971
0.63916
-142.81
298.254
4.05195
-134.163
373.94
4.03123
-160.207
463.847
3.05335
-129.999
560.225
1.99881
-59.1654
603.538
-2.90265
0.504217
597.577
-2.90463
56.7853
596.488
-1.85152
139.289
601.594
-4.63322
223.351
590.234
-2.32755
294.194
559.3
18.5218
343.278
518.7
17.0044
382.067
464.417
-20.9744
417.768
423.869
-28.4416
456.025
403.194
-0.227969
482.299
392.456
29.216
496.044
374.214
35.5498
510.469
359.48
20.799
521.363
338.059
-3.00709
530.908
330.396
-7.11467
311.836
4.48888
-129.702
309.134
6.27317
-129.882
399.74
7.39723
-157.605
492.336
4.70889
-126.051
567.366
-1.39953
-56.9724
605.58
-2.47206
0.00517106
596.678
-2.91395
55.0181
596.265
-2.57449
132.903
601.201
-4.56389
210.523
595.946
6.11386
274.842
570.334
11.8599
321.953
532.716
-10.9205
357.031
481.202
-22.9528
394.855
459.35
-0.820657
436.182
441.533
37.5018
458.194
418.284
42.2767
470.897
391.71
24.2118
479.853
375.573
-5.043
486.551
362.298
-11.519
508.591
365.402
2.36922
346.389
14.628
-116.931
315.866
8.05751
-127.563
414.503
8.66489
-153.78
510.049
4.56226
-120.686
570.83
-2.06513
-54.8562
607.054
-2.54484
-0.363016
595.681
-2.94913
53.1016
595.987
-2.94259
127.614
601.442
-0.957638
197.891
599.075
6.60483
256.804
576.964
-3.0688
305.929
541.144
-18.3163
349.909
503.612
-5.69119
387.863
486.088
27.3622
413.187
463.991
42.0826
434.333
441.519
23.2948
444.825
408.424
-7.95591
452.251
388.535
-13.9051
470.624
382.417
2.63072
489.662
386.662
22.6414
368.313
22.7191
-100.373
324.926
4.7345
-115.668
425.344
8.50828
-149.014
521.749
3.76721
-114.046
572.001
-1.18741
-52.4623
607.916
-2.81654
-0.192619
594.442
-2.91401
51.5411
595.646
-2.62276
121.282
601.616
1.64039
185.337
599.797
-0.0761172
239.061
579.853
-11.7497
292.897
553.424
-7.94773
341.299
526.377
17.149
372.955
500.03
32.8636
390.302
477.913
23.2876
403.554
454.831
-8.13502
414.282
421.871
-16.2917
433.306
406.268
2.68271
455.592
399.48
29.6795
465.324
394.425
34.9928
378.154
21.3146
-92.4538
336.183
5.14967
-109.329
438.516
6.80689
-144.702
530.769
3.15469
-108.332
572.86
0.16718
-50.4123
607.856
-2.03963
-0.517159
592.87
-3.20117
50.387
595.614
-1.97103
115.406
600.903
0.110306
173.364
598.834
-7.15022
228.532
584.326
-7.17826
282.109
569.424
9.54714
327.797
540.436
25.0309
358.744
512.992
18.5837
377.587
485.948
-6.72942
390.284
461.05
-15.1302
405.635
440.91
1.74318
426.11
429.655
29.3237
437.199
412.735
41.3926
448.305
398.875
30.0592
387.085
12.3139
-87.4872
347.454
6.5568
-101.297
450.512
6.05335
-136.875
538.255
3.83528
-103.029
573.858
2.0814
-48.0744
607.569
-0.777503
-0.314698
591.277
-3.50199
48.147
595.897
-1.6394
109.349
599.212
-3.19626
164.348
599.359
-5.54432
217.23
592.163
4.73716
266.678
576.014
17.0388
307.308
548.362
14.8491
338.511
521.804
-5.78656
364.513
491.035
-14.4004
385.29
477.286
-0.00689042
401.965
463.713
30.0766
410.325
445.234
42.8706
418.371
425.965
35.289
426.746
407.728
12.5522
399.208
8.54842
-77.5292
353.118
10.0572
-91.3277
456.266
7.65866
-130.256
542.98
4.13174
-98.009
574.784
2.46874
-46.4873
606.966
-1.32319
-0.626097
589.652
-3.26577
47.2889
596.01
-1.7779
105.09
598.792
-3.38194
157.969
600.853
0.355005
208.648
594.579
8.28533
253.886
579.426
8.1275
291.06
554.606
-3.27724
329.376
529.508
-10.0178
364.537
510.532
-0.857723
387.829
495.58
22.2279
397.114
471.951
36.9443
399.994
455.897
32.89
406.194
433.538
14.4965
416.223
415.935
6.57922
413.504
15.9784
-60.6931
11.2526
-66.7309
9.86182
-111.57
6.27534
-87.7129
3.70588
-44.1928
-1.03901
-0.248222
-2.39127
46.2158
-1.76314
98.7406
-1.59185
146.66
1.83316
191.962
4.36398
231.326
0.193906
269.109
-2.87465
308.26
0.933345
343.599
12.1513
368.247
22.8132
378.956
24.1293
387.35
15.7045
399.605
10.9163
413.247
18.1764
23.4938
-88.1928
-88.0703
8.81268
-120.848
-187.375
15.5562
-151.358
-260.743
5.70819
-117.154
-285.984
0.378139
-50.1089
-293.875
-1.67484
0.833519
-296.915
-0.486241
52.7991
-291.631
-1.38923
121.961
-297.373
-0.827968
184.752
-284.367
0.86611
232.509
-243.117
-1.18209
266.969
-204.628
3.60761
285.437
-173.995
2.52916
301.125
-142.513
5.73855
313.811
-129.996
8.08926
321.534
-119.241
10.1608
330.26
-102.601
6.39512
340.645
-91.668
7.05768
351.601
-86.4098
8.37166
357.852
-76.8924
11.2506
-59.733
11.3675
-186.378
-113.649
16.3594
-216.422
-216.384
9.3747
-199.275
-251.692
-0.280015
-130.536
-285.491
1.96802
-54.1423
-296.516
-1.13507
0.695235
-296.198
-0.754956
56.6282
-292.923
-1.80476
138.451
-297.008
-1.60019
223.333
-273.782
3.85809
286.625
-215.917
-3.41343
332.394
-171.88
1.76432
355.768
-146.461
2.81687
379.126
-127.784
8.50173
409.267
-130.981
9.94735
430.009
-134.859
11.9436
439.8
-123.223
12.9686
450.591
-110.788
11.1436
462.238
-100.132
9.22935
469.142
-90.6681
9.46883
-66.9
10.5657
-258.874
-151.454
8.48892
-250.506
-198.979
1.14007
-219.385
-222.367
6.30517
-141.916
-66.8783
5.16811
-68.0187
-66.796
-68.2537
-58.6293
-74.0143
-0.743936
-74.387
-74.2487
-74.6482
0.196646
-73.7983
-1.20813
-73.1874
-74.1877
-73.6191
61.0853
-72.7467
-1.80733
-72.9247
-73.0569
-73.1824
148.151
-73.0455
-2.12434
-73.3757
-73.2827
-73.4741
249.138
-67.4377
2.52564
-57.9475
-66.7475
-57.0669
323.91
-184.151
-2.71071
379.212
-173.01
1.17616
430.912
-163.218
3.68635
472.714
-156.486
6.90648
508.441
-157.052
8.13736
532.734
-155.489
8.13584
543.782
-150.354
8.95104
551.601
-146.737
9.09268
559.713
-140.542
8.10406
565.372
-134.611
6.24313
-117.753
6.67034
-284
-118.7
3.19698
-283.73
-133.614
1.95984
-65.4193
-143.882
1.44671
-67.6432
-65.7009
-67.4816
1.42278
-56.3366
-58.4582
-1.36151
0.198913
-24.0515
0.285464
43.7113
-18.5048
-18.9815
-18.4484
-18.9567
0.383401
15.4844
-6.90274
-0.343218
-18.2932
-18.5505
-18.2332
-18.5965
0.467346
-0.0685462
7.25265
-0.624929
-18.2808
-18.0236
-18.2347
-18.0705
0.213088
-16.1975
24.9054
-0.176152
-18.4755
-18.1322
-18.4339
-18.1725
-45.6773
-0.546363
58.9581
-64.263
0.990072
504.21
-127.029
0.881229
-88.2262
-116.115
-90.6169
-122.966
545.566
-134.497
3.14175
566.237
-133.035
8.28195
581.014
-129.215
6.96395
592.571
-126.817
3.73855
599.307
-123.304
3.02867
600.136
-117.308
4.08333
599.355
-110.868
4.73737
599.241
-105.587
6.08386
600.299
-101.018
6.09011
-91.4398
6.40542
-293.487
-51.9663
-1.35938
-295.555
-55.9519
-1.11124
-72.9619
-60.0541
-0.207605
-73.8704
-73.2821
-74.0721
-0.2265
-24.6808
-0.0320057
43.2864
-17.8683
-17.6394
-17.8089
-17.6896
-0.00759085
6.1087
32.8405
-7.59971
0.339346
617.794
-63.4239
3.3986
-150.99
-152.614
-154.763
-155.491
622.11
-62.5773
3.41491
625.407
-61.7791
3.26204
628.048
-60.7261
3.21661
630.29
-58.6805
4.08773
632.014
-56.4631
3.79651
633.616
-53.9457
2.69611
634.191
-51.8492
2.23184
634.156
-49.7147
3.25603
633.884
-48.0716
3.61652
-45.6718
3.69343
-295.788
-0.147388
-0.279696
-294.759
0.257873
-0.870461
-73.4302
0.308996
-1.3307
-72.5843
-73.6508
-72.8023
0.286578
15.8003
-6.88873
-0.281764
-18.1821
-18.4754
-18.1588
-18.504
-0.14983
3.22045
38.1067
-2.30999
0.159387
621.928
-0.215825
2.14442
-153.825
-153.918
-156.581
-156.625
622.438
-0.22674
2.17519
622.712
-0.415224
2.07972
622.616
-0.607777
1.92306
622.204
-0.928117
1.87604
621.546
-1.44369
1.85819
620.556
-1.20332
2.08193
619.176
-1.19474
2.26847
617.745
-1.04255
2.08506
616.285
-1.13238
1.9492
-0.86438
2.3794
-291.751
51.7361
0.241106
-292.754
55.8449
0.0181483
-72.6967
60.7958
-0.0741386
-72.893
-72.9445
-73.1623
0.024471
-0.123285
7.23623
0.051813
-18.2518
-17.9891
-18.2094
-18.0209
-0.161175
-0.0126677
38.0149
0.735748
0.166377
620.364
59.8798
3.12313
-153.41
-153.558
-156.086
-156.28
620.815
58.9141
2.91261
621.238
58.0101
3.38453
621.518
56.2993
3.59253
621.88
54.448
3.21553
622.003
52.9428
2.71343
621.892
51.3991
2.67306
621.754
50.4907
3.16312
621.827
49.0306
3.6928
622.005
47.6635
3.54687
46.5391
3.39437
-297.002
121.1
0.676239
-296.395
137.359
0.0955924
-73.0249
147.309
-0.0223327
-73.3268
-73.3415
-73.7361
0.0565926
-16.1097
24.7668
0.072531
-18.4875
-18.1269
-18.4175
-18.1722
-0.201379
-3.20503
38.1452
4.34664
0.19214
622.82
160.817
1.64741
-153.716
-153.462
-156.412
-156.579
626.077
153.151
5.76902
627.805
146.05
5.62091
628.366
139.901
2.28663
628.261
133.173
0.0218915
628.895
128.914
1.87323
630.23
123.559
5.5295
630.4
117.654
6.08572
628.694
112.221
3.51334
627.421
108.05
1.73618
101.579
2.64201
-284.641
183.916
2.52444
-273.855
221.478
5.11403
-67.2993
244.184
3.63709
-57.9231
-67.7234
-58.1213
-45.4521
0.164048
-63.9414
58.4154
0.549247
0.441235
5.9917
-7.54415
32.6471
-0.217837
0.174219
3.18782
-2.27304
37.9405
-0.17038
0.107412
-0.0583519
0.787468
37.8256
-0.102291
0.130584
-3.28777
4.40834
38.0577
-0.131858
-9.31891
-7.69469
0.945269
128.927
125.083
0.0836457
-14.6857
-9.36983
-14.7567
-15.0497
-7.89995
-14.9912
589.269
324.635
23.1103
-140.175
-124.432
-141.47
-123.909
599.292
268.902
1.49501
604.766
240.34
-5.88758
611.52
226.584
-1.25418
620.054
215.31
7.84175
624.903
202.813
11.9443
626.965
190.088
8.38522
626.206
178.071
0.696011
626.547
168.035
-1.6967
629.15
163.124
2.39762
152.424
5.26891
-243.585
231.499
-0.168327
-215.852
283.028
-0.418768
-185.559
317.877
-0.951575
-125.163
496.065
-0.548815
-87.1917
-115.195
-87.5268
-116.78
-62.144
612.54
-2.42149
-149.761
-151.664
-151.96
-153.75
0.771649
617.287
-2.37112
-152.891
-153.094
-155.021
-155.219
61.8042
616.007
-2.05373
-152.582
-152.923
-154.697
-155.082
166.482
619.486
-3.46641
-153.622
-154.309
-155.725
-156.095
320.971
586.904
16.7085
-138.771
-123.047
-142.875
-127.787
479.621
481.092
-1.3597
527.858
374.523
-28.3728
559.439
327.361
1.44504
581.418
306.751
20.9667
592.982
284.967
21.2534
600.495
264.931
9.08975
603.845
245.168
-3.93983
607.204
232.623
-5.37906
616.272
223.553
3.75876
622.647
215.944
11.4497
199.996
9.75707
-204.677
266.142
3.075
-174.419
329.025
3.06041
-174.119
376.083
1.4834
-133.439
539.25
-4.1326
-61.3721
617.052
-1.64355
0.91685
617.715
-2.70437
60.6445
615.967
-2.22904
156.911
621.433
0.848567
266.574
596.625
-2.05341
367.981
526.268
-29.5314
456.676
461.184
-6.64728
514.306
404.428
48.2312
539.002
365.395
36.7101
553.169
334.921
7.23707
561.669
314.132
-11.3876
570.966
298.157
-9.55944
588.613
289.956
4.74506
602.237
276.228
19.4341
606.902
264.228
16.5683
240.588
7.56988
-175.99
285.192
1.07247
-150.499
354.537
-0.0758386
-165.184
429.4
3.19237
-132.969
561.824
2.94233
-60.3807
620.551
-1.98984
0.850808
617.828
-2.75991
59.3125
616.207
-1.70908
148.187
622.664
0.816379
237.577
601.164
-11.0706
319.833
555.877
-2.91179
398.102
513.946
44.3284
456.611
457.866
50.3935
485.43
405.308
3.37995
497.651
369.32
-19.7647
515.317
357.166
-11.9542
541.958
349.06
9.64427
563.072
338.764
27.2494
572.581
318.721
26.2335
579.241
300.514
7.96954
276.453
1.83263
-146.34
300.788
3.63192
-133.05
378.908
4.54844
-159.569
471.969
1.76767
-129.702
576.568
4.1623
-59.2859
623.248
-2.82073
0.607865
617.672
-2.64651
57.3219
616.586
-1.44845
140.736
622.564
-2.57329
224.118
606.682
-7.52547
302.226
577.675
14.8207
361.491
537.032
29.9539
402.973
483.926
1.86373
431.103
431.872
-29.2572
460.987
402.71
-14.087
495.691
396.942
16.4182
515.182
383.37
35.6982
529.844
368.643
31.3523
539.621
346.232
9.12558
547.67
332.68
-5.64363
314.909
1.42359
-132.228
313.396
5.06396
-133.263
407.493
7.83012
-158.737
505.49
3.08095
-126.92
587.743
-0.136849
-57.448
625.408
-2.25797
0.0901841
617.172
-2.51063
55.2524
616.803
-1.80239
133.573
621.852
-4.80551
213.558
614.915
1.72618
282.447
589.978
15.0008
332.208
551.042
2.71256
365.356
496.214
-21.5455
397.634
461.237
-14.0124
442.667
446.338
21.2737
473.775
427.542
44.6651
488.278
401.548
36.7825
497.913
383.44
8.4668
502.539
366
-9.05591
517.054
366.803
-3.59245
351.02
10.1599
-122.552
321.07
7.45116
-137.728
429.363
8.80079
-156.841
529.255
3.7224
-123.061
594.525
-2.24618
-55.3399
626.967
-1.97008
-0.484116
616.445
-2.3874
53.6042
616.645
-2.33163
128.968
622.04
-2.80059
201.423
620.171
6.633
262.569
597.378
4.18082
310.828
558.949
-15.2232
352.241
513.213
-14.4452
391.465
494.606
14.8635
423.815
474.164
43.6983
449.388
450.674
36.6391