/*--------------------------------*- C++ -*----------------------------------*\
  =========                 |
  \\      /  F ield         | OpenFOAM: The Open Source CFD Toolbox
   \\    /   O peration     | Website:  https://openfoam.org
    \\  /    A nd           | Version:  9
     \\/     M anipulation  |
\*---------------------------------------------------------------------------*/
FoamFile
{
    format      ascii;
    class       volScalarField;
    location    "0.01";
    object      rho;
}
// * * * * * * * * * * * * * * * * * * * * * * * * * * * * * * * * * * * * * //

dimensions      [1 -3 0 0 0 0 0];

internalField   nonuniform List<scalar> 
9720
(
1.58068
1.16358
0.672485
0.484762
0.581141
0.656134
0.655214
0.570594
0.459528
0.354347
0.274048
0.228599
0.205575
0.209448
0.22309
0.243059
0.266992
0.29822
0.33722
0.448277
1.17296
0.504682
0.324375
0.338146
0.550519
0.638056
0.636753
0.530822
0.358864
0.222002
0.140936
0.110743
0.111355
0.117031
0.133352
0.158996
0.186549
0.216079
0.248551
0.339518
0.682608
0.323114
0.287324
0.283254
0.528103
0.636965
0.634207
0.515593
0.279965
0.136669
0.0851631
0.0845727
0.0903405
0.101583
0.117131
0.137361
0.157844
0.177643
0.196081
0.250136
0.479057
0.331324
0.280408
0.224573
0.409929
0.635458
0.667519
0.579696
0.266101
0.0601953
0.065124
0.0744535
0.0849586
0.0949272
0.104391
0.113066
0.121337
0.130514
0.139077
0.161713
0.560393
0.528649
0.508548
0.409622
0.05279
0.113711
0.121524
0.127746
0.131487
0.133524
0.135499
0.138307
0.141865
0.145853
0.149609
0.159501
0.631204
0.614843
0.614438
0.613641
0.158003
0.162396
0.160069
0.157855
0.156301
0.155559
0.155712
0.156301
0.1575
0.159403
0.161743
0.166784
0.629282
0.613524
0.612122
0.64543
0.172619
0.163817
0.162023
0.160356
0.158917
0.157887
0.157048
0.156756
0.156989
0.157855
0.159049
0.162293
0.546705
0.508708
0.494001
0.558647
0.147798
0.11253
0.118221
0.121925
0.124945
0.127248
0.129286
0.131499
0.133778
0.136479
0.139115
0.144174
0.438034
0.339408
0.261071
0.235385
0.0549538
0.151555
0.165964
0.139903
0.013756
0.025413
0.0423354
0.0585539
0.0721586
0.0831631
0.0914163
0.0988226
0.105629
0.111432
0.116085
0.124258
0.335651
0.207826
0.12819
0.0580944
0.11009
0.156746
0.157396
0.108298
0.027448
0.00897076
0.0124587
0.0209935
0.0325289
0.0447434
0.0569811
0.0682248
0.0776823
0.086401
0.0931402
0.104854
0.259855
0.132031
0.0800571
0.0635105
0.118139
0.153927
0.155228
0.113976
0.0448629
0.0131429
0.00773402
0.00918474
0.0136679
0.0219196
0.0323436
0.0432144
0.0537947
0.0638436
0.0723726
0.0868213
0.217554
0.105588
0.0804008
0.0725601
0.123374
0.151484
0.153324
0.117551
0.060833
0.0225701
0.00944669
0.00711714
0.0081491
0.0115032
0.0176084
0.0259504
0.0349495
0.0448142
0.0540342
0.0688993
0.196797
0.107135
0.0874443
0.0825291
0.125862
0.149994
0.151898
0.120491
0.0735495
0.0346574
0.0144372
0.00826031
0.00702409
0.00745575
0.0099097
0.0145678
0.0210727
0.0298226
0.0377765
0.0519783
0.200632
0.114121
0.100562
0.0925121
0.127777
0.14924
0.151038
0.122833
0.0835633
0.0468963
0.0232725
0.0118748
0.00747707
0.0074727
0.00786715
0.00947441
0.0135788
0.019785
0.026118
0.0393341
0.213884
0.130485
0.116805
0.101747
0.130075
0.149415
0.150599
0.124965
0.091121
0.0589609
0.0341626
0.0183017
0.00996127
0.00786578
0.0079885
0.00900585
0.0111322
0.014821
0.0197264
0.0306641
0.233604
0.155097
0.135721
0.110293
0.133222
0.150102
0.150691
0.127316
0.0982383
0.070129
0.0452168
0.0269405
0.0147967
0.00949041
0.00901711
0.0095414
0.0107412
0.0128853
0.0159579
0.0243395
0.257073
0.181328
0.153946
0.118659
0.136921
0.151578
0.15116
0.12984
0.105086
0.0795296
0.0558878
0.0363458
0.0216694
0.0136804
0.0112202
0.0107841
0.0112605
0.0125344
0.0142426
0.0203868
0.287276
0.209598
0.172812
0.127948
0.140984
0.153897
0.152357
0.132859
0.111198
0.0881879
0.0661433
0.0467131
0.0309277
0.0202279
0.0150841
0.0131457
0.012655
0.0130949
0.0142673
0.017988
0.324995
0.240665
0.191209
0.136725
0.144959
0.156613
0.153817
0.135708
0.115938
0.0949777
0.0749367
0.0563506
0.0395266
0.0270383
0.0202991
0.0166205
0.0147888
0.0144469
0.0147456
0.0167561
0.432483
0.327745
0.244495
0.159706
0.155643
0.162305
0.157752
0.141333
0.124252
0.106747
0.0895112
0.0718406
0.0546484
0.0411699
0.0321827
0.0259504
0.0218857
0.0192246
0.0174583
0.0183162
1.5688
1.10473
0.631303
0.47755
0.584185
0.657561
0.656719
0.571055
0.455917
0.350635
0.268959
0.222933
0.198699
0.201793
0.214635
0.234785
0.259099
0.290067
0.327862
0.436257
1.11552
0.462445
0.314514
0.336344
0.556822
0.641529
0.639055
0.531905
0.353568
0.21596
0.136477
0.106258
0.106448
0.110742
0.124982
0.149589
0.1776
0.207357
0.238959
0.326649
0.641966
0.311965
0.27711
0.279969
0.535412
0.640923
0.636516
0.515547
0.273623
0.129711
0.0814517
0.0810916
0.0863166
0.095951
0.109259
0.12757
0.14803
0.168779
0.187326
0.238071
0.468746
0.32555
0.269059
0.216075
0.435121
0.632694
0.665535
0.578033
0.268011
0.0578393
0.0623807
0.0710781
0.081233
0.0910285
0.100315
0.108692
0.116224
0.124438
0.13212
0.153028
0.556272
0.523959
0.501068
0.390803
0.053033
0.111709
0.118629
0.124188
0.128038
0.129987
0.131651
0.134039
0.137317
0.141011
0.144416
0.153214
0.627712
0.612918
0.613444
0.610386
0.153722
0.159621
0.157171
0.154769
0.152994
0.151848
0.151887
0.152228
0.153117
0.154693
0.156758
0.161418
0.626349
0.611911
0.610992
0.641162
0.168128
0.161122
0.159123
0.157114
0.15543
0.154223
0.153464
0.152721
0.152647
0.153177
0.154253
0.157348
0.544298
0.508377
0.493708
0.555746
0.143914
0.110181
0.115472
0.118845
0.121941
0.124558
0.126276
0.127686
0.129363
0.131975
0.134873
0.139756
0.433532
0.335705
0.257612
0.241575
0.0569676
0.149442
0.163656
0.137545
0.0140555
0.0243706
0.040669
0.0569419
0.0702799
0.0805554
0.0879902
0.0946901
0.101944
0.108536
0.112878
0.119774
0.332072
0.203724
0.122789
0.0561049
0.109619
0.15566
0.156219
0.107115
0.0264611
0.00841397
0.0120268
0.0200781
0.0307155
0.0417847
0.0532783
0.0651225
0.0753302
0.0835873
0.0893503
0.0996999
0.254252
0.128333
0.0769878
0.0611507
0.116822
0.153205
0.154389
0.112563
0.0432804
0.0126192
0.0069825
0.00811625
0.0118903
0.0194732
0.030059
0.0412853
0.0513835
0.0602965
0.067587
0.0815649
0.210352
0.100666
0.0773203
0.0699671
0.121822
0.150892
0.152609
0.116198
0.0595784
0.0215389
0.00833996
0.00637925
0.00743631
0.0108735
0.0167839
0.0244077
0.0323773
0.040708
0.0492949
0.0646676
0.188052
0.101401
0.0833665
0.0796897
0.12491
0.149324
0.151171
0.119691
0.0725626
0.0328479
0.0126037
0.00754262
0.00680174
0.00733207
0.00937019
0.0132336
0.0185399
0.0262251
0.034473
0.0489294
0.191146
0.106466
0.0942034
0.0894245
0.126975
0.148502
0.150412
0.122718
0.0821603
0.0441683
0.0208045
0.011293
0.00740569
0.00664922
0.00691153
0.00808373
0.01152
0.0176246
0.0240665
0.0366438
0.203847
0.120483
0.107739
0.0986388
0.129005
0.148633
0.15009
0.124594
0.0890577
0.0557585
0.0320713
0.0177217
0.00961169
0.00694602
0.00693836
0.007766
0.00983549
0.0134801
0.0180337
0.0278956
0.224038
0.14417
0.125055
0.10705
0.131705
0.149138
0.149948
0.126076
0.0956571
0.067893
0.0439354
0.0259047
0.0138082
0.00824458
0.00780394
0.00836716
0.00957899
0.0114692
0.0140593
0.0212824
0.248064
0.171383
0.144118
0.114772
0.135116
0.150265
0.150069
0.128023
0.103225
0.0784546
0.0544277
0.0344008
0.0195794
0.0118991
0.010016
0.00964787
0.00999858
0.0108867
0.0121014
0.0175093
0.278313
0.200319
0.164351
0.123148
0.138819
0.152178
0.15087
0.131105
0.110256
0.0867921
0.0635312
0.0432499
0.0278551
0.0184259
0.0139216
0.0117995
0.0110258
0.0112431
0.0121753
0.0159458
0.314741
0.230494
0.182768
0.130929
0.142342
0.154536
0.152175
0.1343
0.114694
0.0924993
0.0710474
0.0523519
0.0367755
0.0254234
0.0188456
0.0148067
0.0125682
0.0124389
0.0128782
0.0152204
0.418729
0.314069
0.232171
0.151861
0.151552
0.159572
0.155729
0.139588
0.121671
0.102966
0.0854432
0.0685422
0.0522723
0.0389835
0.0296626
0.022963
0.018906
0.0170483
0.0158399
0.0167393
1.58129
1.05386
0.588971
0.479748
0.582733
0.656068
0.654907
0.56778
0.452992
0.347932
0.265423
0.21882
0.193416
0.195823
0.208729
0.229552
0.254588
0.285237
0.322012
0.429232
1.06084
0.408618
0.305846
0.343924
0.553275
0.640139
0.637491
0.52797
0.34908
0.210906
0.133698
0.103399
0.103442
0.10691
0.119493
0.143314
0.17236
0.202644
0.233542
0.319432
0.591932
0.301176
0.269061
0.280809
0.530046
0.639499
0.635268
0.511303
0.266086
0.123579
0.0798964
0.0800951
0.0849589
0.0930955
0.104132
0.120555
0.141468
0.16434
0.183986
0.23248
0.456649
0.320226
0.261949
0.20674
0.431673
0.633045
0.665789
0.576397
0.258433
0.0560539
0.0608103
0.0695677
0.0799062
0.0896241
0.0987104
0.107403
0.114929
0.122679
0.129626
0.148695
0.550735
0.519229
0.496171
0.384127
0.0489487
0.110234
0.117003
0.122171
0.1266
0.129237
0.130943
0.132858
0.135753
0.139364
0.142707
0.150915
0.623824
0.6096
0.610382
0.60817
0.152682
0.159115
0.156659
0.154377
0.15254
0.151247
0.151321
0.151726
0.152581
0.154037
0.155965
0.16056
0.624468
0.609454
0.60796
0.638765
0.167624
0.160796
0.158753
0.156648
0.154898
0.153713
0.153155
0.152675
0.152487
0.152855
0.153794
0.156778
0.541897
0.506862
0.492335
0.552525
0.143107
0.109975
0.114824
0.118125
0.121252
0.124398
0.126247
0.127358
0.128868
0.131425
0.134337
0.139265
0.430872
0.33654
0.260945
0.249445
0.0478748
0.149297
0.163422
0.137702
0.0133126
0.0241798
0.0402849
0.056563
0.069887
0.0797001
0.0871482
0.0935412
0.100726
0.107998
0.11248
0.119086
0.329253
0.201497
0.119308
0.0532869
0.107596
0.155519
0.156156
0.105862
0.0245051
0.00759387
0.0112942
0.0192482
0.0295177
0.0402785
0.0511779
0.0631004
0.0741859
0.0824393
0.0880172
0.098127
0.249614
0.125209
0.0739574
0.0577809
0.114319
0.153059
0.154221
0.111021
0.0407831
0.0115727
0.00608677
0.00704338
0.010526
0.0174468
0.0277293
0.0393505
0.0493222
0.0578357
0.0649308
0.0789223
0.203684
0.0958287
0.0745796
0.066207
0.119102
0.15076
0.152288
0.114667
0.0570638
0.0199115
0.007201
0.00573185
0.0066116
0.00986111
0.0155356
0.02263
0.0300811
0.0379345
0.0461218
0.0619865
0.17983
0.0961642
0.0798885
0.0761254
0.123054
0.148874
0.150662
0.118215
0.0703764
0.0306056
0.0110625
0.00672168
0.00641712
0.00695662
0.00857842
0.0119812
0.0167957
0.0238
0.0320486
0.0467232
0.182277
0.100291
0.0885915
0.0856617
0.125694
0.147584
0.149716
0.121662
0.0800077
0.0416864
0.018471
0.0102512
0.00704632
0.00600975
0.00623876
0.00729904
0.0102634
0.0161212
0.0224216
0.0343517
0.195099
0.11239
0.0996141
0.0946891
0.127539
0.147655
0.149449
0.123651
0.0871609
0.052783
0.0292782
0.0163857
0.00891167
0.00629604
0.00629012
0.0069642
0.00886785
0.0122646
0.0162291
0.0255574
0.215872
0.135217
0.115325
0.103517
0.129478
0.148072
0.149236
0.124817
0.0934811
0.0649255
0.0414588
0.0240481
0.0126879
0.00756301
0.00701032
0.00753027
0.00860383
0.00999813
0.0123013
0.0191542
0.240723
0.163508
0.134997
0.111438
0.132321
0.148955
0.149203
0.126496
0.100871
0.0762912
0.0519094
0.032053
0.0180125
0.010859
0.00907361
0.0086516
0.00883171
0.00957692
0.0107852
0.0158232
0.2709
0.19308
0.157105
0.119483
0.135929
0.150514
0.149703
0.129483
0.10844
0.0847172
0.0607695
0.0405311
0.0256937
0.0171813
0.0127514
0.0102183
0.00965397
0.00997901
0.0109211
0.0146469
0.306231
0.222525
0.176395
0.126576
0.139373
0.1526
0.150917
0.13269
0.113148
0.0904458
0.0682138
0.0493052
0.0345235
0.023959
0.0170401
0.0128199
0.0110745
0.0111317
0.0116846
0.0141069
0.408088
0.30403
0.223198
0.145487
0.147777
0.157497
0.154413
0.138064
0.12011
0.100912
0.0827214
0.0658829
0.0501037
0.0368315
0.0272598
0.0205412
0.016914
0.0155658
0.0146175
0.0155352
1.57912
1.00714
0.554857
0.47956
0.580521
0.654872
0.653388
0.564508
0.448952
0.343378
0.260105
0.213142
0.188413
0.190041
0.20227
0.224118
0.25131
0.282986
0.319032
0.42506
1.01081
0.368181
0.300802
0.346386
0.546185
0.637988
0.636257
0.525328
0.345748
0.204786
0.128433
0.098655
0.0992822
0.103272
0.113759
0.136867
0.167712
0.199587
0.229848
0.313854
0.548345
0.294867
0.268414
0.275344
0.520191
0.637255
0.634304
0.509558
0.263364
0.117275
0.0751693
0.0765706
0.0825445
0.0904591
0.0992711
0.113615
0.13411
0.158988
0.180231
0.227901
0.446293
0.319669
0.263621
0.204708
0.411677
0.631704
0.665409
0.575196
0.238229
0.0531251
0.0575485
0.066373
0.0771221
0.0871734
0.0958609
0.10474
0.112971
0.121026
0.127749
0.145117
0.546502
0.518368
0.498484
0.399291
0.0595578
0.109083
0.116367
0.121308
0.125669
0.128966
0.130993
0.132484
0.134605
0.137712
0.140966
0.148621
0.621366
0.608401
0.609482
0.60451
0.152281
0.159067
0.156834
0.15481
0.152949
0.151236
0.151027
0.151318
0.152054
0.153297
0.154917
0.158994
0.622302
0.607049
0.605722
0.637043
0.167724
0.161123
0.15928
0.157331
0.155482
0.154086
0.153266
0.152718
0.152304
0.152523
0.153213
0.155701
0.538823
0.503506
0.488802
0.550107
0.143184
0.109023
0.113974
0.117673
0.120923
0.123992
0.125881
0.126961
0.128455
0.130954
0.133477
0.137877
0.428892
0.332881
0.255655
0.238042
0.0536352
0.149344
0.163722
0.137868
0.0125796
0.022491
0.0384109
0.0543261
0.0678393
0.0780734
0.0860152
0.0927882
0.0995884
0.106537
0.111158
0.118082
0.327745
0.197101
0.11343
0.0512937
0.10709
0.155389
0.156176
0.105589
0.0240231
0.00689254
0.0102372
0.0177155
0.027521
0.0383553
0.0494307
0.060964
0.0721099
0.0807926
0.0866367
0.0971699
0.248167
0.122859
0.0709463
0.0553396
0.114048
0.152981
0.154341
0.110724
0.0400744
0.010675
0.005374
0.00612057
0.00935498
0.0159539
0.0255361
0.0368439
0.0470425
0.0553612
0.0629271
0.077233
0.20073
0.0930355
0.0724654
0.0636234
0.118241
0.150779
0.152492
0.114438
0.0558589
0.0189667
0.00636902
0.00507672
0.00578709
0.00866101
0.0139548
0.0207598
0.0276406
0.0355027
0.0438991
0.0597967
0.175032
0.0933986
0.0785181
0.0740565
0.122023
0.148804
0.150785
0.117815
0.0693717
0.0295951
0.0101047
0.00590829
0.00591572
0.00643201
0.00787641
0.0107282
0.01525
0.0222006
0.0301888
0.0447839
0.176303
0.0971717
0.0866228
0.0840954
0.125131
0.147191
0.149727
0.121118
0.0793977
0.0407011
0.0172255
0.00904739
0.00652722
0.00559504
0.00569655
0.00668004
0.00952552
0.0150359
0.0210973
0.03259
0.187994
0.107075
0.0953174
0.0926484
0.127283
0.147217
0.149391
0.123365
0.0867773
0.0516325
0.0272003
0.0148034
0.00824802
0.00576661
0.00577305
0.00646159
0.00821314
0.0113528
0.0148645
0.0235114
0.208761
0.128466
0.108857
0.101267
0.128955
0.147647
0.149196
0.12477
0.0931083
0.0629019
0.0389082
0.0222743
0.011566
0.00698005
0.00651242
0.00697586
0.00791351
0.00899492
0.0107335
0.017272
0.234295
0.157243
0.127799
0.10939
0.131225
0.14855
0.149245
0.126564
0.099699
0.0740446
0.0496635
0.0298556
0.0166083
0.0101333
0.00840408
0.00796329
0.00807766
0.00847766
0.00967476
0.0146522
0.263995
0.186814
0.150682
0.117343
0.134507
0.149937
0.14958
0.129406
0.106875
0.0830764
0.0584219
0.0382114
0.02403
0.0159812
0.0118341
0.00923304
0.0085455
0.00889192
0.00999031
0.0138441
0.297447
0.214326
0.170138
0.123844
0.137805
0.151721
0.150473
0.132207
0.111916
0.088988
0.0660568
0.0468159
0.0323348
0.0224789
0.0157445
0.011196
0.00983887
0.0100979
0.0108991
0.0137
0.396644
0.291389
0.21361
0.140137
0.145327
0.15613
0.153497
0.137099
0.119148
0.0994673
0.0803285
0.0629691
0.047596
0.0348211
0.0251031
0.0182908
0.015275
0.014412
0.014007
0.0151052
1.58528
0.988018
0.537021
0.47552
0.580249
0.65619
0.653748
0.563148
0.445711
0.339605
0.256251
0.208263
0.185585
0.187535
0.200243
0.222299
0.251456
0.284732
0.320883
0.426617
0.991493
0.351777
0.296293
0.347684
0.547388
0.640046
0.636991
0.525086
0.343218
0.20008
0.124977
0.0948487
0.0960302
0.100915
0.111318
0.133461
0.165069
0.198689
0.229284
0.313401
0.53107
0.289498
0.264193
0.276751
0.523608
0.639222
0.63534
0.50984
0.261668
0.113335
0.0717922
0.0739019
0.0807297
0.0891133
0.0967639
0.109358
0.128825
0.154569
0.177351
0.22635
0.443026
0.316207
0.256121
0.20025
0.413453
0.630532
0.666389
0.576002
0.244932
0.0520718
0.056057
0.0643825
0.075079
0.085591
0.0942694
0.10299
0.111627
0.120055
0.126888
0.143708
0.542837
0.513214
0.491391
0.390638
0.0521465
0.108399
0.11645
0.121011
0.124873
0.128292
0.130864
0.132491
0.134372
0.137267
0.140539
0.148185
0.618648
0.606265
0.608875
0.602681
0.152265
0.158836
0.156598
0.154652
0.152847
0.151107
0.15071
0.151002
0.151791
0.153067
0.154669
0.158699
0.620741
0.606565
0.605712
0.635946
0.167663
0.161166
0.159374
0.15759
0.155909
0.154459
0.153432
0.152937
0.152711
0.152924
0.153468
0.155758
0.536224
0.501785
0.487294
0.549613
0.143492
0.108318
0.11339
0.117261
0.120624
0.123521
0.12556
0.127148
0.12886
0.131172
0.133322
0.13766
0.426729
0.3302
0.250936
0.233663
0.0510577
0.148732
0.163123
0.13699
0.01192
0.0218447
0.0375362
0.0529957
0.0662084
0.0769918
0.0855389
0.0926742
0.0991159
0.105478
0.110386
0.118122
0.325855
0.193738
0.110131
0.0505309
0.106369
0.154971
0.155895
0.105084
0.0237319
0.00660975
0.0095766
0.0167634
0.0268342
0.0377106
0.0487909
0.0599262
0.0704922
0.0798213
0.0864493
0.0972953
0.246805
0.120719
0.068903
0.05439
0.114038
0.152685
0.154207
0.110678
0.0397581
0.0100745
0.00519432
0.00618588
0.00943197
0.0156375
0.0245746
0.0352009
0.0457852
0.0553522
0.0629095
0.0766981
0.199113
0.0913276
0.0708184
0.0623749
0.118305
0.150752
0.152707
0.114506
0.0551343
0.0181239
0.00644138
0.00485346
0.00538168
0.00791067
0.0129331
0.0199064
0.0275998
0.0355247
0.0433796
0.058568
0.17377
0.0919278
0.0774611
0.0728875
0.121832
0.148968
0.151224
0.117625
0.0681113
0.0290382
0.0101842
0.00547567
0.00558883
0.00614789
0.00779937
0.0110131
0.0156149
0.0220626
0.0293821
0.0438697
0.174709
0.096206
0.0860934
0.0834222
0.124845
0.14721
0.149894
0.120461
0.0786149
0.0403129
0.0169192
0.00824669
0.00623933
0.00584386
0.00600117
0.00693877
0.0095152
0.0143824
0.02036
0.0323684
0.18558
0.105446
0.0940622
0.0919219
0.127247
0.146989
0.149166
0.122923
0.0867379
0.051258
0.026225
0.0136448
0.0080989
0.00606772
0.00598288
0.00640477
0.00775519
0.0107823
0.0147386
0.0236299
0.205484
0.125634
0.106102
0.10013
0.128948
0.147337
0.149232
0.12519
0.0933805
0.0620103
0.0371131
0.0211713
0.0116864
0.00718632
0.00644889
0.00675409
0.00767956
0.00915433
0.0111062
0.0174402
0.231188
0.154327
0.12388
0.108145
0.130919
0.148218
0.149491
0.127325
0.0994279
0.0722844
0.0481068
0.0294309
0.0167044
0.0100052
0.00792534
0.00772333
0.00804541
0.00877054
0.00984273
0.0144211
0.260456
0.184078
0.14686
0.116062
0.133878
0.149599
0.149946
0.129672
0.10567
0.081814
0.0579811
0.0377221
0.0235268
0.0151714
0.0112167
0.00941478
0.00885219
0.00907305
0.00997051
0.0135201
0.292516
0.210346
0.166692
0.122474
0.137032
0.151262
0.15059
0.131876
0.110773
0.0885229
0.0655183
0.0457545
0.0311474
0.0215153
0.0155291
0.0115693
0.00998849
0.0100508
0.0106823
0.0137182
0.389828
0.283418
0.208393
0.137516
0.144078
0.155356
0.153145
0.136528
0.118848
0.0991498
0.0791109
0.0611052
0.0460775
0.0341278
0.0249232
0.0182113
0.0147961
0.0138104
0.0139608
0.0153441
1.58204
0.982689
0.53288
0.474498
0.581618
0.65755
0.654225
0.563588
0.445716
0.339558
0.256538
0.207481
0.185592
0.187843
0.200588
0.222579
0.251857
0.285774
0.322666
0.429111
0.989342
0.348683
0.293814
0.350175
0.551154
0.642582
0.637581
0.525399
0.343597
0.200404
0.125193
0.0947787
0.0957155
0.101042
0.112175
0.134347
0.16554
0.199003
0.22979
0.315037
0.531924
0.287482
0.261221
0.280225
0.527881
0.641919
0.636093
0.510127
0.261863
0.113725
0.071743
0.0739072
0.0808033
0.0894872
0.0974729
0.110116
0.129702
0.155559
0.178211
0.227361
0.445578
0.3162
0.252882
0.199174
0.422196
0.631437
0.667662
0.577661
0.241918
0.0519918
0.0559883
0.0643318
0.0751076
0.0856939
0.0943726
0.102969
0.111412
0.119858
0.126901
0.144085
0.540738
0.508678
0.486312
0.377059
0.0465263
0.108205
0.116572
0.121051
0.124803
0.128048
0.130525
0.132217
0.134187
0.137039
0.140236
0.147833
0.615729
0.602595
0.605363
0.602261
0.152012
0.158807
0.156675
0.154786
0.152943
0.151195
0.150811
0.151106
0.15186
0.153115
0.15473
0.15866
0.620129
0.606172
0.605239
0.634989
0.16755
0.161042
0.159294
0.157445
0.155608
0.154184
0.153503
0.153166
0.152702
0.152801
0.153273
0.155584
0.535581
0.501485
0.487685
0.548707
0.142953
0.108686
0.11371
0.117291
0.120741
0.123806
0.125932
0.127449
0.129056
0.131366
0.133777
0.138082
0.426136
0.330541
0.252174
0.241662
0.0445245
0.148885
0.163373
0.137568
0.0116465
0.0225966
0.0384674
0.053846
0.0670505
0.0778324
0.086179
0.0929527
0.0994789
0.106087
0.111128
0.118594
0.325585
0.19402
0.11044
0.0498187
0.106035
0.155373
0.156488
0.105281
0.0231849
0.006587
0.00966642
0.0171331
0.0274834
0.0383897
0.0492187
0.0602501
0.0708068
0.0804766
0.0872572
0.0977878
0.246546
0.120631
0.0686075
0.0538074
0.113717
0.153206
0.154899
0.110454
0.0389722
0.00985816
0.0051946
0.00628213
0.00962857
0.015849
0.0247242
0.0352461
0.046018
0.0558806
0.0634186
0.0769059
0.198948
0.0912005
0.0705777
0.0619478
0.118161
0.151355
0.153295
0.114158
0.0541898
0.0176281
0.00637183
0.00482083
0.00533962
0.00785434
0.0128536
0.019922
0.0277585
0.0357424
0.0435188
0.0588155
0.173774
0.0918504
0.0772795
0.0725687
0.121919
0.149635
0.151689
0.117762
0.0673615
0.0283411
0.00996462
0.00539705
0.00553504
0.00611066
0.00780561
0.0110555
0.0156491
0.0220247
0.0293928
0.0439789
0.174712
0.0963079
0.0861424
0.0831067
0.125093
0.147905
0.150422
0.12116
0.0780212
0.0395188
0.0165455
0.00810217
0.00618686
0.00583753
0.00599345
0.00689809
0.00940648
0.0142563
0.0203031
0.0323284
0.185548
0.105599
0.0943329
0.091729
0.127536
0.147657
0.149906
0.123518
0.086146
0.0504416
0.0257877
0.0134137
0.00803716
0.00604502
0.00594043
0.00634078
0.00766202
0.0107432
0.0147208
0.023535
0.205264
0.125448
0.10601
0.100053
0.129246
0.147973
0.149677
0.12495
0.0926537
0.0614036
0.03668
0.0208657
0.0115597
0.00711693
0.00638466
0.00669067
0.00764265
0.00916046
0.0110439
0.0172551
0.230829
0.153665
0.123161
0.108169
0.131179
0.148814
0.149739
0.12656
0.0989763
0.0719354
0.0475889
0.02902
0.0164991
0.00988544
0.00786538
0.00768836
0.00802568
0.00870522
0.00972015
0.0142028
0.259907
0.183299
0.145722
0.115906
0.133993
0.15019
0.150023
0.129132
0.105559
0.0813083
0.0573643
0.0373319
0.0233088
0.0150744
0.011179
0.00936401
0.00877446
0.00897218
0.00982975
0.0133853
0.291588
0.209357
0.165514
0.122098
0.137078
0.151854
0.15072
0.13184
0.110557
0.0877944
0.0649595
0.0454052
0.0309913
0.0214191
0.0154405
0.0114683
0.00988127
0.00992607
0.0105519
0.0135851
0.388161
0.281258
0.20655
0.136724
0.14415
0.155925
0.153387
0.136662
0.11814
0.0983679
0.0786281
0.060926
0.0459056
0.0338879
0.0247336
0.0180741
0.0146553
0.0137644
0.0138681
0.0151654
1.57432
0.997108
0.546659
0.478887
0.584466
0.660027
0.655415
0.565585
0.44755
0.342002
0.25906
0.211605
0.188803
0.191024
0.20368
0.225236
0.252715
0.285766
0.323469
0.431672
1.00506
0.360848
0.294464
0.354169
0.555385
0.645052
0.638093
0.526214
0.344244
0.20276
0.12727
0.0975144
0.0985567
0.103529
0.115192
0.138418
0.169041
0.201159
0.232223
0.319019
0.547452
0.288445
0.260656
0.285549
0.531336
0.64436
0.63646
0.510271
0.26242
0.11588
0.0737483
0.0756076
0.0823241
0.0908124
0.0997099
0.114218
0.135285
0.160868
0.18261
0.231547
0.447602
0.315396
0.253678
0.200119
0.426517
0.632151
0.667937
0.578168
0.243047
0.0528235
0.0570258
0.0657034
0.076619
0.0870309
0.0958114
0.104768
0.113224
0.121678
0.12872
0.146577
0.540558
0.508658
0.487071
0.37876
0.0481853
0.108993
0.116925
0.121432
0.125386
0.128617
0.130784
0.132328
0.134498
0.137792
0.141278
0.149285
0.615947
0.602966
0.605128
0.603063
0.152004
0.158999
0.156701
0.154553
0.152528
0.150722
0.150658
0.151005
0.151835
0.153157
0.154872
0.159086
0.620176
0.606713
0.605901
0.635878
0.167662
0.161101
0.159186
0.157256
0.155443
0.154093
0.153427
0.153055
0.15276
0.152966
0.153649
0.15617
0.535691
0.501315
0.48713
0.550086
0.14299
0.109395
0.114247
0.117833
0.121053
0.124131
0.126245
0.127585
0.129245
0.131883
0.134434
0.138847
0.426075
0.32959
0.250857
0.231585
0.0467866
0.148787
0.163568
0.138108
0.0117603
0.0232237
0.0393117
0.0551972
0.0687552
0.0789593
0.0867015
0.0934508
0.100217
0.107386
0.11234
0.119327
0.325269
0.194619
0.112056
0.0513264
0.106268
0.154982
0.156281
0.105196
0.0226955
0.00669637
0.0102204
0.0180553
0.0281186
0.0389286
0.0499263
0.061272
0.0724951
0.08161
0.0875775
0.0980669
0.246629
0.12115
0.0700825
0.0553827
0.114085
0.152687
0.154513
0.11027
0.0384531
0.0102268
0.00524335
0.00608335
0.0093606
0.0159546
0.025458
0.03676
0.0472713
0.0557532
0.063311
0.0776569
0.200357
0.0924964
0.0716705
0.0637117
0.118525
0.150734
0.152742
0.114086
0.0541865
0.0180443
0.00612538
0.00486614
0.00555678
0.00838431
0.013698
0.0206651
0.0277254
0.0355245
0.0439088
0.0598438
0.175072
0.0931846
0.0781422
0.0742026
0.122069
0.148916
0.151105
0.117535
0.0676803
0.0281568
0.00953618
0.00560759
0.00573743
0.0062952
0.00779782
0.010694
0.0151672
0.0220092
0.0299208
0.0446167
0.176248
0.0973269
0.0872355
0.0844015
0.124986
0.147204
0.149922
0.120863
0.0778156
0.0390631
0.0163178
0.00859711
0.00636453
0.00549407
0.00558349
0.00651507
0.00924846
0.0146315
0.020765
0.0323156
0.187704
0.107037
0.096079
0.0927526
0.127196
0.147139
0.149403
0.123107
0.0855335
0.0501204
0.0261065
0.0141785
0.00803208
0.00563429
0.00562318
0.00626095
0.00793488
0.0110858
0.0146566
0.0232269
0.208335
0.127923
0.108876
0.101061
0.128875
0.147477
0.149146
0.124469
0.0921797
0.0616281
0.0376973
0.021453
0.0112066
0.00675104
0.00631181
0.00676279
0.0077268
0.00886697
0.0105242
0.0168764
0.233622
0.156648
0.126899
0.109157
0.131017
0.148323
0.149074
0.126153
0.0989532
0.07283
0.0482632
0.0288155
0.0160191
0.00976302
0.00816454
0.00778799
0.00793084
0.00829188
0.00942273
0.0143
0.262849
0.186413
0.149531
0.117183
0.134127
0.149681
0.14936
0.128841
0.10597
0.0816208
0.0568867
0.0370114
0.0232901
0.0155387
0.0116117
0.0091117
0.00837154
0.00867155
0.00972777
0.0137308
0.295409
0.213271
0.169141
0.123772
0.137364
0.151399
0.1502
0.131535
0.110752
0.0875699
0.0646103
0.0456959
0.0316079
0.0220107
0.0154885
0.0110197
0.00961234
0.0098551
0.0106933
0.0135549
0.39284
0.287678
0.211725
0.139719
0.144751
0.155715
0.153091
0.136354
0.118046
0.0983323
0.0792228
0.0620292
0.0467955
0.0341445
0.0246692
0.0179311
0.0149664
0.0142976
0.0138933
0.014911
1.57647
1.0395
0.580958
0.485652
0.589358
0.663788
0.658547
0.570257
0.451653
0.346392
0.263614
0.216967
0.193605
0.196735
0.209962
0.230405
0.255511
0.287489
0.326283
0.436921
1.05074
0.399029
0.302034
0.354591
0.561632
0.64861
0.640816
0.529925
0.34742
0.208295
0.131121
0.101544
0.101888
0.106184
0.12022
0.144976
0.173972
0.204615
0.23652
0.325855
0.584799
0.29598
0.264893
0.289191
0.537365
0.647716
0.638839
0.51297
0.265428
0.12132
0.0775581
0.0783859
0.0838669
0.092082
0.103485
0.120793
0.142886
0.166839
0.187152
0.237465
0.450867
0.315402
0.25815
0.204694
0.433186
0.635015
0.669795
0.579702
0.247788
0.0548366
0.0593645
0.0681689
0.0788369
0.0887901
0.0979758
0.106926
0.114809
0.122957
0.130206
0.149801
0.545031
0.513775
0.491106
0.380235
0.050504
0.109883
0.117252
0.122365
0.126732
0.12936
0.130937
0.132654
0.135421
0.139027
0.142415
0.150799
0.619245
0.605889
0.607408
0.604789
0.152465
0.158978
0.156657
0.154354
0.15237
0.150957
0.150995
0.15135
0.152069
0.153319
0.155087
0.159562
0.621739
0.608512
0.607641
0.636951
0.167931
0.160805
0.158885
0.156891
0.155201
0.154082
0.153554
0.153087
0.15257
0.152809
0.153619
0.156417
0.538364
0.504331
0.490006
0.550276
0.143112
0.109215
0.114258
0.117869
0.121374
0.124766
0.126706
0.127745
0.129177
0.131784
0.134751
0.139516
0.427624
0.332869
0.255614
0.243761
0.0468338
0.148667
0.163201
0.137737
0.0128357
0.0235533
0.039626
0.0560661
0.0697667
0.0798226
0.0873176
0.093754
0.101072
0.108675
0.113289
0.119665
0.326714
0.198542
0.116819
0.0523298
0.106951
0.155261
0.1563
0.106109
0.0242185
0.00732872
0.0110373
0.0189735
0.0292113
0.0399744
0.0508752
0.0629223
0.0744689
0.0830665
0.0886121
0.0985928
0.248482
0.123425
0.0722711
0.057005
0.11439
0.153005
0.154541
0.111211
0.0402089
0.011255
0.00585581
0.00674999
0.0101357
0.0169159
0.0271784
0.0391094
0.049433
0.0579715
0.0650414
0.0791337
0.20273
0.0946206
0.0731296
0.0657542
0.119392
0.150913
0.15275
0.114788
0.0563453
0.0194822
0.00686911
0.00547307
0.00629769
0.0095255
0.0152773
0.0224759
0.0299125
0.0377321
0.0459246
0.0620327
0.178475
0.0952118
0.0792473
0.0759379
0.123118
0.14913
0.151186
0.118301
0.0697086
0.0299482
0.0104938
0.00636857
0.0062932
0.00688879
0.00850474
0.0117862
0.0164819
0.023395
0.031693
0.046664
0.180831
0.0997374
0.0889658
0.0855305
0.125675
0.147814
0.150197
0.121747
0.0794377
0.0408029
0.0175859
0.00976453
0.00694596
0.00583597
0.00601343
0.00700399
0.00985295
0.0156678
0.0220854
0.034167
0.19356
0.111852
0.0999312
0.0942761
0.1276
0.147863
0.149853
0.1238
0.0866196
0.0517723
0.0281752
0.0157999
0.00874202
0.00606504
0.00604001
0.00669488
0.00856892
0.0119787
0.0159321
0.0252727
0.214324
0.134357
0.114893
0.103115
0.129601
0.148256
0.149584
0.124931
0.0929316
0.0638492
0.0403526
0.0233663
0.0123246
0.00724563
0.00673947
0.00727096
0.00840376
0.00979218
0.0120216
0.0188014
0.239172
0.162635
0.133787
0.111348
0.132466
0.149152
0.149468
0.126458
0.100239
0.0752773
0.0508703
0.0312439
0.0174339
0.0103829
0.0087818
0.0084661
0.00865153
0.00935575
0.010546
0.0155473
0.269
0.191838
0.155555
0.119635
0.136058
0.150726
0.149892
0.129248
0.107817
0.0838451
0.0596756
0.0395258
0.0248446
0.016584
0.012505
0.0100629
0.0094406
0.0097567
0.0106892
0.0145602
0.303601
0.220125
0.174502
0.126658
0.139463
0.152802
0.150986
0.132436
0.112574
0.0894888
0.0669742
0.0481513
0.0335949
0.023406
0.0167714
0.0125843
0.0108285
0.0108893
0.0115013
0.0140589
0.404283
0.29892
0.219247
0.14456
0.147534
0.157614
0.154307
0.137716
0.119379
0.0997585
0.0814171
0.0647242
0.049183
0.036163
0.026796
0.0201205
0.016562
0.0153976
0.0145273
0.0154252
1.56661
1.08919
0.625535
0.492211
0.594008
0.667115
0.662374
0.576272
0.458296
0.352133
0.269172
0.222669
0.199783
0.20341
0.216184
0.235517
0.259369
0.29133
0.330959
0.443085
1.10423
0.452095
0.315149
0.352232
0.566267
0.650721
0.643915
0.535477
0.354641
0.21614
0.136317
0.105807
0.10597
0.110851
0.126242
0.151331
0.178805
0.208743
0.241173
0.332138
0.631869
0.308041
0.274287
0.290154
0.543441
0.649634
0.641273
0.51822
0.274274
0.129252
0.0816119
0.0807011
0.0857073
0.0950579
0.108957