/*--------------------------------*- C++ -*----------------------------------*\
  =========                 |
  \\      /  F ield         | OpenFOAM: The Open Source CFD Toolbox
   \\    /   O peration     | Website:  https://openfoam.org
    \\  /    A nd           | Version:  9
     \\/     M anipulation  |
\*---------------------------------------------------------------------------*/
FoamFile
{
    format      ascii;
    class       volScalarField;
    location    "0.01";
    object      rho.C4;
}
// * * * * * * * * * * * * * * * * * * * * * * * * * * * * * * * * * * * * * //

dimensions      [1 -3 0 0 0 0 0];

internalField   nonuniform List<scalar> 
9720
(
1.58073
1.16362
0.672507
0.484778
0.58116
0.656155
0.655234
0.570612
0.459543
0.354359
0.274059
0.228612
0.205592
0.209471
0.223122
0.243101
0.267046
0.298288
0.337309
0.4484
1.173
0.5047
0.324387
0.338159
0.550539
0.638079
0.636776
0.530841
0.358878
0.222015
0.140952
0.110764
0.111385
0.117072
0.133409
0.159072
0.186645
0.216198
0.248696
0.339713
0.682629
0.323125
0.287335
0.283265
0.528125
0.63699
0.634232
0.515613
0.27998
0.136693
0.0851903
0.0846103
0.09039
0.101647
0.117213
0.137464
0.157969
0.177787
0.196245
0.250345
0.479072
0.331336
0.280419
0.224586
0.409954
0.635495
0.667558
0.57973
0.26612
0.0602273
0.0651677
0.0745099
0.085028
0.0950087
0.104483
0.113169
0.12145
0.130636
0.139208
0.161867
0.560409
0.528667
0.508566
0.409644
0.0528261
0.113817
0.121638
0.127868
0.131613
0.133653
0.135631
0.138443
0.142004
0.145997
0.149758
0.15966
0.631221
0.614862
0.61446
0.613673
0.158146
0.162555
0.160226
0.158012
0.156458
0.155716
0.15587
0.156461
0.157662
0.159567
0.16191
0.166958
0.629299
0.613543
0.612143
0.645463
0.172783
0.163985
0.16219
0.160523
0.159084
0.158054
0.157215
0.156923
0.157158
0.158025
0.159221
0.162471
0.54672
0.508723
0.494018
0.558676
0.147944
0.112651
0.118349
0.122058
0.125082
0.127389
0.12943
0.131646
0.133928
0.136633
0.139273
0.14434
0.438045
0.33942
0.261084
0.235402
0.0549821
0.151647
0.16607
0.139997
0.0137683
0.0254393
0.0423807
0.0586178
0.0722386
0.0832564
0.0915201
0.0989365
0.105752
0.111564
0.116222
0.124405
0.335661
0.207837
0.128208
0.0581185
0.110165
0.156857
0.157512
0.108381
0.0274713
0.00897946
0.0124717
0.021016
0.0325647
0.0447936
0.0570466
0.0683049
0.0777748
0.0865046
0.0932523
0.104982
0.259864
0.132044
0.0800777
0.0635431
0.118221
0.154039
0.155345
0.114065
0.0449004
0.0131551
0.00774172
0.00919432
0.0136828
0.0219443
0.032381
0.0432652
0.0538587
0.0639206
0.072461
0.0869303
0.217565
0.105605
0.0804296
0.0726022
0.123461
0.151595
0.153441
0.117644
0.0608837
0.0225904
0.00945574
0.00712443
0.00815795
0.0115161
0.0176288
0.0259809
0.0349912
0.0448687
0.0541015
0.0689884
0.196811
0.107159
0.0874828
0.0825808
0.125952
0.150106
0.152016
0.120587
0.0736109
0.0346879
0.0144508
0.00826873
0.00703168
0.0074641
0.00992102
0.0145848
0.021098
0.0298596
0.0378249
0.0520471
0.200651
0.114155
0.100613
0.0925731
0.127871
0.149353
0.151156
0.122933
0.0836332
0.0469375
0.0232945
0.0118869
0.00748503
0.00748088
0.007876
0.00948547
0.0135954
0.0198102
0.026152
0.0393867
0.21391
0.130531
0.11687
0.101816
0.130172
0.149529
0.150719
0.125068
0.0911977
0.059013
0.0341949
0.01832
0.00997157
0.00787419
0.00799745
0.00901651
0.0111461
0.0148401
0.0197522
0.0307053
0.233638
0.155157
0.135801
0.11037
0.133322
0.150218
0.150812
0.127421
0.0983221
0.0701917
0.0452592
0.0269667
0.0148116
0.00950052
0.00902733
0.00955289
0.0107546
0.0129018
0.0159788
0.0243726
0.257116
0.181404
0.154041
0.118744
0.137025
0.151696
0.151283
0.129949
0.105177
0.0796012
0.0559398
0.0363809
0.0216913
0.013695
0.0112331
0.0107971
0.0112745
0.0125504
0.0142613
0.0204153
0.287331
0.20969
0.172922
0.12804
0.141091
0.154019
0.152482
0.132972
0.111296
0.0882674
0.0662048
0.0467583
0.0309592
0.0202499
0.0151014
0.0131614
0.0126706
0.0131117
0.0142863
0.018014
0.325067
0.240777
0.191334
0.136825
0.14507
0.156738
0.153945
0.135824
0.11604
0.0950636
0.0750066
0.0564056
0.0395674
0.0270677
0.0203221
0.01664
0.0148068
0.0144655
0.0147657
0.0167809
0.43258
0.327896
0.244655
0.159824
0.155764
0.162436
0.157884
0.141456
0.124363
0.106845
0.0895965
0.0719123
0.0547054
0.0412145
0.0322188
0.0259807
0.0219126
0.0192498
0.0174824
0.0183434
1.56883
1.10474
0.631313
0.477557
0.584194
0.657571
0.656728
0.571063
0.455924
0.350642
0.268968
0.222945
0.198716
0.201818
0.21467
0.234832
0.259159
0.290143
0.32796
0.436392
1.11554
0.462451
0.314518
0.336348
0.556828
0.641537
0.639062
0.531911
0.353575
0.215972
0.136494
0.106281
0.106482
0.110787
0.125044
0.149673
0.177707
0.207489
0.239119
0.326866
0.641975
0.311969
0.277112
0.279971
0.535417
0.640928
0.636521
0.515551
0.273632
0.129737
0.0814838
0.0811355
0.0863732
0.0960231
0.10935
0.127684
0.148168
0.168939
0.187508
0.238302
0.468753
0.325554
0.269061
0.216076
0.435124
0.632698
0.665539
0.578037
0.268019
0.0578779
0.0624325
0.0711436
0.0813126
0.0911216
0.100421
0.108809
0.116351
0.124574
0.132265
0.153197
0.556279
0.523964
0.501071
0.390805
0.0530783
0.111836
0.118765
0.12433
0.128186
0.130136
0.131803
0.134195
0.137476
0.141174
0.144583
0.153393
0.62772
0.612924
0.613448
0.610389
0.15389
0.159812
0.157359
0.154954
0.153177
0.15203
0.152069
0.152411
0.153301
0.15488
0.156948
0.161615
0.626357
0.611917
0.610996
0.641165
0.168321
0.161325
0.159322
0.15731
0.155625
0.154416
0.153657
0.152912
0.152839
0.15337
0.154448
0.157549
0.544304
0.508381
0.493711
0.555749
0.144087
0.110325
0.115623
0.119001
0.122102
0.124722
0.126442
0.127852
0.129532
0.132149
0.135052
0.139942
0.433538
0.33571
0.25762
0.241583
0.0570109
0.149578
0.163811
0.13768
0.0140725
0.0244022
0.0407229
0.0570177
0.0703732
0.0806621
0.0881071
0.0948177
0.102084
0.108686
0.113034
0.119938
0.332078
0.203733
0.122812
0.0561386
0.10973
0.155824
0.156391
0.107237
0.0264927
0.00842487
0.0120426
0.0201044
0.0307557
0.0418401
0.0533511
0.065214
0.075436
0.0837038
0.0894743
0.0998394
0.254259
0.128348
0.0770149
0.0611957
0.11694
0.153365
0.154557
0.112689
0.0433317
0.0126353
0.00699134
0.00812651
0.0119057
0.0194999
0.0301013
0.0413434
0.0514551
0.0603803
0.0676817
0.0816829
0.210362
0.100686
0.0773576
0.0700238
0.121944
0.151048
0.152774
0.116328
0.0596484
0.0215651
0.0083501
0.00638731
0.00744638
0.0108887
0.0168074
0.0244415
0.0324219
0.0407648
0.0493661
0.0647652
0.188066
0.101429
0.083415
0.079758
0.125035
0.149479
0.151333
0.119824
0.0726465
0.0328862
0.012619
0.00755252
0.00681111
0.00734215
0.00938288
0.0132514
0.0185654
0.0262631
0.0345255
0.0490045
0.191167
0.106505
0.0942655
0.0895039
0.127102
0.148655
0.150572
0.122854
0.0822529
0.0442195
0.0208303
0.011308
0.00741563
0.00665797
0.0069206
0.00809465
0.0115366
0.0176515
0.0241035
0.0366999
0.203876
0.120536
0.107816
0.0987285
0.129133
0.148786
0.15025
0.12473
0.0891573
0.0558237
0.0321117
0.0177448
0.009624
0.00695486
0.00694748
0.00777698
0.00985039
0.0135007
0.0180611
0.0279382
0.224077
0.14424
0.12515
0.107148
0.131835
0.149291
0.150107
0.126213
0.0957646
0.0679735
0.0439904
0.0259369
0.0138253
0.00825509
0.00781465
0.0083796
0.00959344
0.0114863
0.0140803
0.021315
0.248114
0.171473
0.144233
0.114878
0.135249
0.150419
0.150228
0.128162
0.103343
0.0785476
0.0544933
0.0344422
0.0196036
0.0119148
0.0100304
0.00966212
0.0100133
0.0109026
0.0121193
0.0175369
0.278376
0.200429
0.164483
0.123263
0.138955
0.152333
0.151029
0.131249
0.110381
0.0868932
0.0636057
0.0433018
0.0278905
0.0184513
0.0139415
0.0118163
0.0110414
0.0112593
0.0121936
0.0159721
0.314823
0.230626
0.182917
0.13105
0.142482
0.154694
0.152336
0.134447
0.114823
0.0926052
0.0711307
0.0524161
0.0368237
0.0254584
0.0188717
0.0148269
0.0125857
0.012457
0.0128984
0.015246
0.418839
0.314245
0.232359
0.152001
0.1517
0.159735
0.155894
0.139741
0.121807
0.103084
0.0855452
0.0686283
0.0523409
0.0390354
0.0297021
0.0229941
0.0189327
0.0170741
0.0158652
0.0167673
1.5813
1.05386
0.588972
0.479748
0.582734
0.656069
0.654908
0.567781
0.452994
0.347936
0.265431
0.218833
0.193436
0.195855
0.208776
0.229616
0.254669
0.285339
0.322143
0.429413
1.06084
0.408618
0.305846
0.343924
0.553276
0.64014
0.637491
0.527971
0.349084
0.21092
0.133721
0.10343
0.103486
0.10697
0.119575
0.143426
0.172506
0.202823
0.233759
0.319724
0.591934
0.301177
0.269061
0.280809
0.530046
0.639499
0.635268
0.511303
0.266098
0.123615
0.0799407
0.0801558
0.0850359
0.0931915
0.104251
0.120703
0.141649
0.164556
0.184233
0.232793
0.45665
0.320226
0.261949
0.20674
0.431673
0.633045
0.665789
0.576397
0.258442
0.0561059
0.0608801
0.0696563
0.0800142
0.0897505
0.098854
0.107563
0.115102
0.122865
0.129823
0.148921
0.550735
0.51923
0.496171
0.384127
0.0490023
0.110405
0.117187
0.122364
0.126801
0.129443
0.131152
0.133072
0.135972
0.139588
0.142936
0.151158
0.623825
0.609601
0.610382
0.60817
0.152892
0.159374
0.156915
0.154631
0.152792
0.151498
0.151572
0.151979
0.152835
0.154295
0.156226
0.160829
0.624469
0.609454
0.60796
0.638765
0.167865
0.161069
0.159024
0.156916
0.155164
0.153978
0.15342
0.152939
0.152751
0.15312
0.154062
0.157052
0.541898
0.506862
0.492335
0.552525
0.143322
0.110169
0.115027
0.118334
0.121469
0.124623
0.126475
0.127586
0.129099
0.131661
0.134581
0.139518
0.430873
0.336543
0.260954
0.249452
0.0479239
0.149489
0.16364
0.137894
0.0133339
0.0242219
0.0403567
0.0566658
0.070014
0.0798442
0.0873059
0.0937119
0.100914
0.108202
0.112693
0.119308
0.329256
0.201507
0.119336
0.0533298
0.107747
0.155746
0.156394
0.106029
0.0245452
0.0076071
0.0113146
0.0192828
0.0295704
0.0403506
0.0512716
0.0632206
0.0743287
0.0825967
0.088183
0.0983124
0.249621
0.125227
0.073993
0.0578393
0.114479
0.153283
0.154455
0.111194
0.0408497
0.011593
0.00609748
0.00705554
0.0105443
0.0174785
0.0277824
0.0394265
0.0494167
0.0579446
0.065053
0.0790747
0.203695
0.0958541
0.0746294
0.0662816
0.11927
0.15098
0.152519
0.114846
0.0571572
0.0199457
0.00721313
0.00574161
0.00662343
0.0098799
0.0155655
0.022673
0.0301372
0.0380053
0.04621
0.0621113
0.179847
0.0962009
0.0799527
0.0762165
0.123227
0.149091
0.15089
0.118399
0.0704913
0.0306562
0.011081
0.00673345
0.0064292
0.00696986
0.00859447
0.0120031
0.0168265
0.0238452
0.0321134
0.0468197
0.182303
0.100341
0.0886724
0.0857684
0.12587
0.147799
0.149942
0.121852
0.0801363
0.0417544
0.0185023
0.0102699
0.0070595
0.00602075
0.00624985
0.00731216
0.0102827
0.0161539
0.022468
0.0344224
0.195137
0.112459
0.099714
0.0948103
0.127718
0.14787
0.149675
0.123843
0.087299
0.0528693
0.0293293
0.0164156
0.00892776
0.00630704
0.00630123
0.00697712
0.00888568
0.0122899
0.0162623
0.0256091
0.215925
0.13531
0.115449
0.103652
0.12966
0.148287
0.14946
0.125009
0.0936293
0.0650332
0.0415317
0.0240908
0.0127099
0.00757617
0.0070231
0.00754523
0.00862137
0.0100183
0.0123255
0.0191924
0.240791
0.163631
0.135148
0.111585
0.132506
0.149171
0.149426
0.126691
0.101032
0.0764185
0.051999
0.0321076
0.0180433
0.0108784
0.00909121
0.00866897
0.00884926
0.00959536
0.010806
0.0158552
0.270987
0.193232
0.157285
0.11964
0.136118
0.150731
0.149927
0.129684
0.108614
0.0848576
0.0608708
0.0405993
0.0257385
0.0172135
0.0127764
0.0102383
0.00967216
0.00999776
0.0109422
0.0146778
0.306341
0.222707
0.1766
0.126742
0.139567
0.152821
0.151143
0.132896
0.113328
0.0905927
0.0683265
0.049389
0.034586
0.0240047
0.0170727
0.0128436
0.0110949
0.0111528
0.0117082
0.0141377
0.408239
0.304273
0.223457
0.145678
0.147981
0.157724
0.154644
0.138277
0.1203
0.101075
0.0828594
0.0659979
0.0501955
0.0368999
0.0273099
0.0205789
0.0169456
0.0155967
0.0146481
0.015569
1.57912
1.00714
0.554857
0.47956
0.580521
0.654873
0.653388
0.564508
0.448953
0.343383
0.260115
0.21316
0.188439
0.190082
0.202333
0.224206
0.251424
0.283128
0.31921
0.425309
1.01081
0.368181
0.300802
0.346386
0.546185
0.637988
0.636257
0.525328
0.345752
0.204804
0.128464
0.0986968
0.099341
0.103351
0.113867
0.137016
0.16791
0.199833
0.230144
0.314253
0.548345
0.294867
0.268414
0.275344
0.520191
0.637255
0.634304
0.509558
0.263379
0.117319
0.0752259
0.076651
0.082648
0.0905873
0.0994259
0.113805
0.134345
0.159275
0.180565
0.228323
0.446293
0.319669
0.263621
0.204708
0.411677
0.631704
0.665409
0.575196
0.238248
0.0531924
0.0576385
0.0664891
0.077266
0.0873428
0.0960524
0.104953
0.113204
0.121278
0.128016
0.145419
0.546502
0.518368
0.498484
0.399291
0.0596596
0.109319
0.11662
0.121573
0.125944
0.129248
0.13128
0.132776
0.134902
0.138015
0.141275
0.148947
0.621366
0.608401
0.609482
0.60451
0.152586
0.159427
0.15719
0.155162
0.153297
0.15158
0.151371
0.151663
0.152401
0.153646
0.15527
0.159356
0.622302
0.607049
0.605722
0.637043
0.168073
0.161502
0.159655
0.157702
0.155849
0.15445
0.153629
0.153079
0.152663
0.152883
0.153575
0.15607
0.538823
0.503506
0.488802
0.550107
0.143493
0.109289
0.114252
0.117961
0.121221
0.124299
0.126192
0.127273
0.128769
0.131275
0.133805
0.138217
0.428893
0.332885
0.255666
0.238054
0.053712
0.149596
0.164009
0.13812
0.0126072
0.0225442
0.0385037
0.05446
0.0680076
0.0782667
0.0862282
0.093019
0.0998397
0.106809
0.111443
0.118382
0.327749
0.197115
0.113465
0.0513457
0.107278
0.155675
0.156474
0.105798
0.024074
0.00690824
0.0102619
0.0177588
0.0275881
0.0384489
0.0495529
0.0611191
0.0722971
0.0810021
0.0868596
0.0974197
0.248175
0.122883
0.0709902
0.0554101
0.114249
0.153263
0.154637
0.110943
0.0401577
0.0106992
0.00538672
0.00613491
0.00937694
0.0159924
0.0256006
0.0369395
0.0471644
0.0555035
0.0630885
0.0774339
0.200745
0.0930684
0.0725284
0.0637147
0.118451
0.151058
0.152785
0.114664
0.0559749
0.019009
0.00638334
0.00508818
0.00580066
0.0086825
0.0139906
0.0208131
0.0277108
0.0355926
0.0440117
0.0599564
0.175053
0.0934449
0.0785997
0.0741701
0.122242
0.14908
0.151075
0.118049
0.0695156
0.0296591
0.0101268
0.00592171
0.00593004
0.00644821
0.00789627
0.0107549
0.0152878
0.0222569
0.0302684
0.044907
0.176336
0.097234
0.0867243
0.0842297
0.125356
0.147465
0.150015
0.121359
0.0795613
0.040787
0.0172632
0.00906842
0.00654323
0.00560881
0.00571033
0.00669621
0.00954921
0.0150752
0.0211549
0.0326798
0.188043
0.10716
0.0954402
0.0928007
0.127512
0.147492
0.14968
0.12361
0.0869546
0.0517413
0.0272604
0.0148383
0.00826787
0.00578027
0.00578674
0.00647737
0.00823438
0.0113835
0.0149049
0.0235754
0.20883
0.128583
0.109008
0.101437
0.129188
0.147923
0.149485
0.125018
0.0932985
0.0630351
0.038995
0.0223263
0.0115929
0.0069963
0.00652802
0.00699362
0.00793461
0.00901901
0.010762
0.0173183
0.234386
0.157399
0.127985
0.109576
0.131463
0.148828
0.149534
0.126816
0.0999034
0.0742025
0.0497741
0.0299232
0.0166461
0.010157
0.00842494
0.00798411
0.00809891
0.00849966
0.00969981
0.0146916
0.264109
0.187009
0.150908
0.117544
0.134751
0.150218
0.14987
0.129664
0.107096
0.0832536
0.0585498
0.0382962
0.0240848
0.0160196
0.0118642
0.00925684
0.00856722
0.00891445
0.0100161
0.0138822
0.29759
0.214561
0.1704
0.124058
0.138055
0.152006
0.150765
0.132472
0.112147
0.0891766
0.0661998
0.04692
0.0324097
0.022534
0.0157842
0.011224
0.00986336
0.0101235
0.0109279
0.013739
0.396848
0.291705
0.21394
0.140379
0.14559
0.156423
0.153796
0.137374
0.119395
0.0996778
0.080503
0.0631108
0.0477079
0.034906
0.0251648
0.0183359
0.0153133
0.0144496
0.0140453
0.0151487
1.58528
0.988018
0.537021
0.47552
0.580249
0.65619
0.653748
0.563148
0.445713
0.339611
0.256263
0.208285
0.185618
0.187584
0.200317
0.222405
0.251594
0.284904
0.321098
0.426916
0.991493
0.351777
0.296293
0.347684
0.547388
0.640046
0.636991
0.525086
0.343224
0.200101
0.125014
0.0948982
0.0960996
0.101008
0.111445
0.133636
0.165305
0.198985
0.229637
0.313877
0.53107
0.289498
0.264193
0.276751
0.523608
0.639222
0.63534
0.50984
0.261685
0.113386
0.0718572
0.0739965
0.0808531
0.0892659
0.0969448
0.109577
0.129095
0.154904
0.177744
0.22685
0.443026
0.316207
0.256121
0.20025
0.413453
0.630532
0.666389
0.576002
0.244953
0.0521516
0.0561622
0.0645186
0.0752485
0.0857916
0.0944954
0.10324
0.111901
0.120352
0.127204
0.144065
0.542837
0.513214
0.491391
0.390638
0.0522585
0.108683
0.116756
0.121329
0.125201
0.12863
0.131208
0.13284
0.134725
0.137627
0.140907
0.148571
0.618648
0.606265
0.608875
0.602681
0.152656
0.159272
0.157028
0.155075
0.153264
0.15152
0.151121
0.151413
0.152203
0.153482
0.155087
0.159128
0.620741
0.606565
0.605712
0.635946
0.168112
0.161627
0.159829
0.158039
0.156353
0.154898
0.153867
0.15337
0.153142
0.153355
0.1539
0.156196
0.536224
0.501785
0.487294
0.549613
0.143891
0.108639
0.113726
0.117609
0.120982
0.123887
0.125932
0.127523
0.129239
0.131556
0.133712
0.138062
0.42673
0.330204
0.25095
0.233679
0.0511448
0.149032
0.163466
0.13729
0.0119512
0.0219079
0.0376465
0.053153
0.066406
0.0772225
0.0857957
0.0929531
0.0994155
0.105798
0.110721
0.118479
0.325859
0.193755
0.110172
0.0505934
0.106592
0.155309
0.156249
0.105331
0.0237921
0.00662794
0.00960421
0.0168127
0.0269137
0.0378231
0.0489375
0.0601084
0.0707098
0.0800688
0.0867171
0.0975961
0.246815
0.120749
0.0689539
0.0544725
0.114278
0.153019
0.154557
0.110937
0.0398566
0.0101014
0.00520894
0.00620366
0.00945945
0.0156837
0.0246487
0.0353088
0.045927
0.055524
0.0631052
0.0769386
0.19913
0.0913666
0.070892
0.0624813
0.118554
0.151082
0.153053
0.114774
0.0552694
0.0181713
0.00645896
0.00486705
0.00539714
0.00793406
0.0129722
0.0199674
0.0276848
0.0356347
0.0435149
0.0587546
0.173795
0.0919822
0.0775571
0.0730202
0.12209
0.149295
0.151567
0.1179
0.0682772
0.0291125
0.0102113
0.00549077
0.00560485
0.00616609
0.0078229
0.0110466
0.0156626
0.0221308
0.0294745
0.0440121
0.174747
0.0962788
0.0862129
0.0835799
0.125109
0.147532
0.150234
0.120743
0.0788052
0.0404143
0.0169635
0.00826928
0.00625719
0.00586106
0.00601902
0.00695959
0.00954421
0.0144272
0.0204251
0.0324749
0.185638
0.105544
0.0942048
0.0920999
0.127517
0.147311
0.149505
0.12321
0.0869466
0.0513856
0.0262931
0.013682
0.00812191
0.00608529
0.00600042
0.00642394
0.00777901
0.0108165
0.0147862
0.0237078
0.205566
0.125769
0.106274
0.100327
0.129222
0.147659
0.14957
0.125482
0.0936045
0.0621641
0.0372091
0.0212286
0.0117191
0.0072068
0.00646772
0.00677444
0.00770347
0.00918346
0.011142
0.0174976
0.231296
0.154509
0.124091
0.108361
0.131196
0.148543
0.149829
0.127622
0.0996664
0.0724636
0.0482309
0.0295095
0.0167502
0.0100335
0.00794853
0.00774682
0.00807052
0.00879831
0.00987424
0.0144686
0.260591
0.184305
0.147119
0.116295
0.134162
0.149927
0.150286
0.129974
0.105923
0.0820168
0.0581297
0.0378215
0.0235905
0.0152142
0.0112497
0.00944342
0.00887965
0.00910159
0.0100024
0.0135651
0.292685
0.210619
0.166993
0.122722
0.137323
0.151593
0.150931
0.132183
0.111039
0.0887418
0.0656848
0.0458742
0.0312318
0.021576
0.0155748
0.0116042
0.0100192
0.0100823
0.0107166
0.0137646
0.390071
0.283785
0.208772
0.137794
0.144383
0.155696
0.153492
0.136847
0.119134
0.0993947
0.0793118
0.0612653
0.0462027
0.0342241
0.0249959
0.0182657
0.0148414
0.013854
0.0140063
0.0153973
1.58204
0.982689
0.53288
0.474498
0.581618
0.65755
0.654225
0.563588
0.445717
0.339563
0.256551
0.207504
0.185626
0.187895
0.200665
0.222688
0.252001
0.285954
0.322891
0.429423
0.989342
0.348683
0.293814
0.350175
0.551154
0.642582
0.637581
0.525399
0.343603
0.200426
0.125232
0.0948306
0.0957881
0.101139
0.112308
0.134531
0.165787
0.199312
0.23016
0.315536
0.531924
0.287482
0.261221
0.280225
0.527881
0.641919
0.636093
0.510127
0.261881
0.113778
0.0718108
0.0740064
0.0809328
0.0896476
0.0976634
0.110346
0.129987
0.155911
0.178623
0.227886
0.445578
0.3162
0.252882
0.199174
0.422196
0.631437
0.667662
0.577661
0.241941
0.0520745
0.0560978
0.064474
0.0752852
0.0859041
0.0946091
0.103231
0.111699
0.120169
0.127232
0.144459
0.540738
0.508678
0.486312
0.377059
0.0466337
0.108501
0.116892
0.121383
0.125146
0.128401
0.130884
0.13258
0.134556
0.137414
0.140619
0.148235
0.615729
0.602595
0.605363
0.602261
0.15244
0.159262
0.157123
0.155228
0.153379
0.151626
0.15124
0.151536
0.152291
0.153548
0.155168
0.159108
0.620129
0.606172
0.605239
0.634989
0.168044
0.161524
0.15977
0.157915
0.156072
0.154642
0.153958
0.153619
0.153153
0.153251
0.153724
0.15604
0.535581
0.501485
0.487685
0.548707
0.143392
0.109024
0.114064
0.117657
0.121116
0.12419
0.126322
0.127842
0.129452
0.131768
0.134186
0.138503
0.426137
0.330545
0.252188
0.241674
0.0446029
0.149229
0.163765
0.137911
0.0116808
0.0226661
0.0385869
0.0540142
0.0672611
0.078078
0.0864515
0.093247
0.0997942
0.106424
0.11148
0.118969
0.325589
0.194038
0.110483
0.0498835
0.106273
0.155737
0.15687
0.105546
0.0232482
0.00660643
0.00969598
0.0171864
0.0275696
0.0385107
0.0493749
0.0604428
0.0710355
0.0807381
0.0875407
0.0981052
0.246556
0.120662
0.0686608
0.053894
0.113972
0.153564
0.155276
0.110731
0.0390757
0.00988628
0.00521013
0.00630138
0.00965848
0.0158988
0.0248027
0.0353595
0.0461678
0.0560637
0.0636269
0.07716
0.198966
0.0912416
0.0706553
0.0620601
0.118427
0.151709
0.153667
0.114443
0.0543316
0.0176771
0.0063904
0.00483531
0.00535601
0.0078789
0.0128945
0.0199862
0.0278489
0.0358596
0.0436625
0.0590126
0.1738
0.091908
0.077381
0.0727091
0.122194
0.149983
0.152055
0.118055
0.067536
0.0284182
0.00999298
0.00541297
0.00555186
0.00612972
0.00783041
0.0110911
0.0156999
0.0220969
0.0294904
0.0441286
0.174753
0.0963851
0.0862692
0.0832734
0.125374
0.148249
0.150784
0.12146
0.0782217
0.0396246
0.0165917
0.00812573
0.00620554
0.00585565
0.00601239
0.00692016
0.00943697
0.0143032
0.0203711
0.0324401
0.18561
0.105703
0.0944846
0.0919172
0.127823
0.147999
0.150266
0.123824
0.0863658
0.050575
0.0258588
0.0134523
0.00806122
0.00606361
0.00595904
0.00636098
0.0076869
0.0107789
0.0147708
0.023617
0.20535
0.125591
0.106192
0.100261
0.129536
0.148316
0.150035
0.125258
0.092889
0.0615648
0.0367802
0.0209252
0.0115939
0.00713853
0.00640449
0.00671198
0.00766764
0.00919115
0.0110815
0.0173153
0.230943
0.153856
0.123383
0.108397
0.131473
0.149159
0.150097
0.126872
0.0992269
0.0721235
0.0477181
0.0291018
0.0165471
0.00991507
0.0078897
0.00771292
0.00805203
0.00873439
0.0097532
0.0142524
0.260048
0.183538
0.145994
0.116153
0.134292
0.150536
0.150381
0.129449
0.105826
0.0815204
0.0575191
0.0374359
0.0233757
0.0151192
0.0112135
0.00939394
0.00880323
0.00900217
0.00986314
0.0134324
0.291766
0.209643
0.16583
0.122358
0.137383
0.152203
0.151078
0.132163
0.110836
0.0880227
0.0651333
0.0455304
0.0310797
0.0214826
0.0154881
0.0115048
0.00991348
0.00995914
0.0105879
0.0136335
0.388417
0.281642
0.206945
0.137015
0.14447
0.156283
0.153751
0.136997
0.118437
0.0986228
0.0788377
0.0610936
0.0460363
0.033988
0.0248093
0.018131
0.0147028
0.0138104
0.0139159
0.0152207
1.57432
0.997108
0.546659
0.478887
0.584466
0.660027
0.655415
0.565585
0.447551
0.342007
0.259072
0.211627
0.188835
0.191073
0.203752
0.225338
0.252846
0.285929
0.323675
0.431956
1.00506
0.360848
0.294464
0.354169
0.555385
0.645052
0.638093
0.526214
0.34425
0.202782
0.127307
0.097564
0.098626
0.103622
0.11532
0.138594
0.169274
0.201447
0.232568
0.319484
0.547452
0.288445
0.260656
0.285549
0.531336
0.64436
0.63646
0.510271
0.262438
0.115932
0.0738148
0.0757029
0.0824472
0.0909646
0.0998925
0.114441
0.135563
0.161208
0.183004
0.232046
0.447602
0.315396
0.253678
0.200119
0.426517
0.632151
0.667937
0.578168
0.243069
0.0529024
0.0571311
0.0658401
0.0767887
0.0872306
0.0960365
0.105018
0.113497
0.121974
0.129035
0.146934
0.540558
0.508658
0.487071
0.37876
0.0482935
0.109272
0.117225
0.121745
0.125709
0.128949
0.131121
0.132669
0.134844
0.138146
0.141641
0.149666
0.615947
0.602966
0.605128
0.603063
0.152425
0.159425
0.157121
0.154967
0.152936
0.151125
0.151061
0.151408
0.15224
0.153564
0.155284
0.159508
0.620176
0.606713
0.605901
0.635878
0.168147
0.161551
0.15963
0.157695
0.155877
0.154522
0.153854
0.15348
0.153183
0.153389
0.154074
0.156601
0.535691
0.501315
0.48713
0.550086
0.143421
0.109713
0.11458
0.118176
0.121406
0.124493
0.126612
0.127955
0.129618
0.132262
0.134821
0.139246
0.426076
0.329594
0.250871
0.231604
0.0468736
0.149125
0.163956
0.138448
0.011793
0.0232899
0.0394254
0.0553586
0.0689576
0.0791922
0.0869572
0.0937269
0.100515
0.107708
0.112676
0.119682
0.325273
0.194636
0.112097
0.0513901
0.106492
0.155322
0.156638
0.105445
0.0227531
0.00671468
0.0102497
0.0181078
0.0282007
0.0390426
0.0500739
0.0614562
0.0727167
0.0818597
0.0878444
0.0983647
0.246639
0.121179
0.0701341
0.0554668
0.114325
0.153022
0.154865
0.110529
0.0385484
0.0102542
0.00525804
0.00610051
0.00938722
0.0160009
0.025534
0.0368722
0.047416
0.0559236
0.0635044
0.0778963
0.200374
0.0925356
0.0717447
0.0638204
0.118775
0.151064
0.15309
0.114353
0.0543195
0.0180915
0.00614184
0.0048794
0.00557245
0.00840889
0.0137393
0.0207279
0.0278096
0.0356323
0.0440433
0.0600322
0.175097
0.0932397
0.0782388
0.0743375
0.122327
0.149242
0.151448
0.11781
0.0678454
0.0282285
0.00956106
0.00562282
0.00575379
0.0063138
0.00782113
0.0107259
0.0152125
0.0220759
0.0300139
0.0447608
0.176287
0.0974006
0.0873564
0.0845606
0.12525
0.147526
0.150262
0.121145
0.0780037
0.0391604
0.0163601
0.00862057
0.00638278
0.0055101
0.00559974
0.00653407
0.00927602
0.0146766
0.0208312
0.0324209
0.187762
0.107137
0.0962243
0.0929316
0.127465
0.14746
0.14974
0.123394
0.0857381
0.0502443
0.0261741
0.0142173
0.00805486
0.00565027
0.00563919
0.00627923
0.00795897
0.0111208
0.0147036
0.0233023
0.208417
0.12806
0.109052
0.101259
0.129148
0.147798
0.149482
0.124758
0.0923993
0.0617804
0.0377951
0.0215113
0.0112374
0.00676976
0.00632982
0.00678295
0.00775078
0.00889495
0.0105575
0.0169305
0.233729
0.15683
0.127114
0.109373
0.131293
0.148646
0.14941
0.126445
0.0991891
0.0730102
0.0483877
0.0288917
0.016062
0.00979003
0.00818821
0.00781163
0.00795537
0.00831754
0.00945192
0.0143458
0.262983
0.186641
0.149792
0.117417
0.134409
0.150007
0.149696
0.12914
0.106223
0.0818223
0.0570309
0.037107
0.0233523
0.0155821
0.0116458
0.00913921
0.00839681
0.00869774
0.00975768
0.0137755
0.295577
0.213544
0.169443
0.124019
0.137652
0.151727
0.150537
0.131839
0.111016
0.0877841
0.0647718
0.0458137
0.0316927
0.0220726
0.0155338
0.0110521
0.00964066
0.00988475
0.0107266
0.0136002
0.393079
0.288043
0.212104
0.139998
0.145053
0.156052
0.153434
0.136669
0.118326
0.0985715
0.079421
0.0621899
0.0469218
0.03424
0.0247396
0.0179828
0.0150105
0.0143414
0.0139377
0.0149614
1.57648
1.0395
0.58096
0.485653
0.58936
0.66379
0.658548
0.570258
0.451655
0.346397
0.263624
0.216984
0.19363
0.196775
0.21002
0.230483
0.25561
0.287613
0.326441
0.437136
1.05074
0.399029
0.302034
0.354591
0.561633
0.64861
0.640816
0.529926
0.347425
0.208313
0.131151
0.101584
0.101944
0.10626
0.120326
0.145119
0.174156
0.204842
0.236791
0.326221
0.584801
0.29598
0.264894
0.289191
0.537365
0.647716
0.638839
0.51297
0.265442
0.121365
0.0776148
0.0784643
0.0839663
0.0922054
0.103637
0.120983
0.143121
0.16712
0.187472
0.237868
0.450868
0.315402
0.25815
0.204694
0.433186
0.635015
0.669795
0.579702
0.247808
0.0549028
0.0594536
0.0682829
0.0789767
0.0889537
0.098161
0.107132
0.115032
0.123197
0.13046
0.150093
0.545031
0.513776
0.491106
0.380235
0.0506005
0.110108
0.117493
0.122618
0.126995
0.129629
0.131209
0.13293
0.135702
0.139315
0.142709
0.15111
0.619246
0.60589
0.607408
0.604789
0.152821
0.159319
0.156994
0.154687
0.152699
0.151283
0.151321
0.151676
0.152397
0.153649
0.155421
0.159904
0.62174
0.608513
0.607641
0.636951
0.16834
0.161165
0.159242
0.157244
0.15555
0.154429
0.1539
0.153431
0.152912
0.153151
0.153962
0.156767
0.538365
0.504332
0.490006
0.550276
0.143475
0.109469
0.114524
0.118145
0.121661
0.125061
0.127005
0.128043
0.129477
0.132091
0.135066
0.139841
0.427625
0.332872
0.255625
0.243771
0.0469036
0.14895
0.163526
0.138022
0.0128636
0.0236066
0.0397179
0.0561988
0.0699321
0.0800114
0.087524
0.0939771
0.101317
0.108941
0.113565
0.119952
0.326718
0.198556
0.116854
0.0523814
0.107131
0.155534
0.156586
0.106309
0.0242673
0.00734484
0.0110629
0.0190177
0.0292791
0.0400674
0.0509963
0.0630774
0.0746541
0.0832715
0.0888277
0.0988326
0.24849
0.123448
0.0723139
0.0570748
0.114583
0.153275
0.154824
0.11142
0.0402889
0.0112796
0.00586888
0.00676485
0.0101583
0.0169554
0.0272453
0.0392068
0.0495553
0.0581126
0.0651996
0.0793302
0.202744
0.0946524
0.0731901
0.0658443
0.119594
0.151179
0.153029
0.115004
0.0564573
0.0195235
0.00688351
0.00548474
0.00631195
0.0095486
0.0153151
0.022531
0.0299844
0.0378228
0.0460375
0.0621927
0.178496
0.0952573
0.0793259
0.0760486
0.123328
0.149393
0.151462
0.118524
0.0698462
0.0300086
0.0105154
0.00638245
0.00630809
0.00690545
0.00852508
0.0118138
0.0165206
0.0234519
0.0317747
0.0467872
0.180863
0.0997988
0.0890653
0.0856601
0.12589
0.148075
0.150471
0.121977
0.0795918
0.0408837
0.0176225
0.00978659
0.0069623
0.00584948
0.00602698
0.00701995
0.00987645
0.0157079
0.0221437
0.0342568
0.193608
0.111936
0.100053
0.0944227
0.127818
0.148123
0.150126
0.124032
0.0867855
0.051875
0.0282351
0.0158357
0.00876175
0.00607833
0.00605339
0.00671048
0.00859053
0.0120099
0.0159735
0.0253378
0.214391
0.134472
0.115043
0.103279
0.129822
0.148517
0.149856
0.125164
0.0931097
0.0639774
0.0404389
0.0234174
0.012351
0.00726126
0.00675475
0.00728892
0.00842525
0.00981712
0.0120517
0.0188489
0.239258
0.162786
0.13397
0.111526
0.132691
0.149414
0.149739
0.126694
0.100432
0.0754293
0.0509772
0.0313089
0.0174705
0.0104057
0.00880278
0.00848722
0.00867304
0.00937835
0.0105713
0.0155867
0.26911
0.192025
0.155773
0.119827
0.136288
0.150991
0.150164
0.12949
0.108026
0.084013
0.0597961
0.0396065
0.0248973
0.016622
0.0125353
0.0100872
0.00946272
0.00977943
0.0107149
0.0145985
0.30374
0.220348
0.174751
0.126861
0.139699
0.153069
0.15126
0.132684
0.112791
0.0896643
0.0671077
0.0482504
0.0336686
0.0234604
0.0168107
0.012613
0.010853
0.0109147
0.01153
0.014097
0.404475
0.299219
0.219558
0.144791
0.147782
0.15789
0.154587
0.137973
0.119608
0.0999535
0.0815809
0.0648605
0.049292
0.0362447
0.0268559
0.0201654
0.0165999
0.015435
0.0145647
0.0154666
1.56664
1.08921
0.625545
0.492218
0.594017
0.667124
0.662383
0.57628
0.458303
0.35214
0.269182
0.222683
0.199802
0.203439
0.216225
0.23557
0.259437
0.291415
0.331069
0.443234
1.10425
0.452101
0.315153
0.352236
0.566274
0.650728
0.643922
0.535483
0.354648
0.216153
0.136337
0.105834
0.10601
0.110906
0.126317
0.151431
0.178933
0.208899
0.241361
0.332391
0.631878
0.308045
0.27429
0.290157
0.543445
0.649639
0.641278
0.518224
0.274286
0.129286
0.0816517
0.0807547
0.0857758