/*--------------------------------*- C++ -*----------------------------------*\
  =========                 |
  \\      /  F ield         | OpenFOAM: The Open Source CFD Toolbox
   \\    /   O peration     | Website:  https://openfoam.org
    \\  /    A nd           | Version:  9
     \\/     M anipulation  |
\*---------------------------------------------------------------------------*/
FoamFile
{
    format      ascii;
    class       volScalarField;
    location    "0.01";
    object      rho.Air;
}
// * * * * * * * * * * * * * * * * * * * * * * * * * * * * * * * * * * * * * //

dimensions      [1 -3 0 0 0 0 0];

internalField   nonuniform List<scalar> 
9720
(
0.00160312
0.00125358
0.000756527
0.000546726
0.000630409
0.000709801
0.000704175
0.00060851
0.000495901
0.000346286
0.000209707
0.00012327
7.56738e-05
5.07132e-05
4.16379e-05
3.8234e-05
3.43756e-05
3.14113e-05
3.1765e-05
3.6206e-05
0.00125269
0.000598819
0.000387834
0.000385581
0.000601464
0.000688091
0.000682361
0.000567858
0.000373609
0.000163101
6.56068e-05
3.20913e-05
1.93833e-05
1.2655e-05
1.05888e-05
1.08066e-05
1.08061e-05
1.08639e-05
1.12217e-05
1.34917e-05
0.000761905
0.000389701
0.000330315
0.000308389
0.000544374
0.000665202
0.000647967
0.000529897
0.000240512
4.65265e-05
1.37405e-05
6.58116e-06
4.57096e-06
3.72059e-06
3.31845e-06
3.33364e-06
3.39148e-06
3.47621e-06
3.60676e-06
4.23871e-06
0.000544128
0.000390155
0.000313908
0.000189529
0.000344962
0.000538153
0.000574047
0.00050153
0.000192562
3.84011e-06
2.36275e-06
2.02528e-06
1.87501e-06
1.77684e-06
1.70549e-06
1.65615e-06
1.6532e-06
1.66828e-06
1.70005e-06
1.85511e-06
0.000628964
0.000617575
0.000554881
0.000345152
4.88238e-06
1.75666e-06
1.70336e-06
1.65734e-06
1.60794e-06
1.55782e-06
1.50731e-06
1.50173e-06
1.51038e-06
1.53511e-06
1.56888e-06
1.67946e-06
0.000703395
0.000695305
0.000664049
0.000517177
3.20404e-06
2.32951e-06
2.16937e-06
2.03045e-06
1.92006e-06
1.83621e-06
1.77658e-06
1.73761e-06
1.70867e-06
1.70834e-06
1.71723e-06
1.76366e-06
0.000696656
0.000691665
0.00065367
0.000550061
3.43114e-06
2.33758e-06
2.19262e-06
2.06669e-06
1.96102e-06
1.87601e-06
1.81281e-06
1.76747e-06
1.73262e-06
1.70881e-06
1.70841e-06
1.72833e-06
0.00060415
0.000572929
0.000536845
0.000479739
2.88428e-06
1.58355e-06
1.57729e-06
1.55411e-06
1.52747e-06
1.50397e-06
1.48982e-06
1.47963e-06
1.47805e-06
1.48266e-06
1.49508e-06
1.53571e-06
0.00048937
0.00036847
0.000229096
0.00015358
4.6325e-07
3.41391e-06
3.69554e-06
3.04557e-06
2.7419e-07
3.75524e-07
5.68815e-07
7.4255e-07
8.81344e-07
9.8624e-07
1.053e-06
1.10456e-06
1.15287e-06
1.19898e-06
1.2414e-06
1.32093e-06
0.000339293
0.000159767
4.43934e-05
2.64992e-06
1.57826e-06
2.26518e-06
2.26435e-06
1.54606e-06
3.94955e-07
1.19137e-07
1.65151e-07
2.71265e-07
4.0467e-07
5.32914e-07
6.49399e-07
7.50634e-07
8.38679e-07
9.27192e-07
9.96129e-07
1.1111e-06
0.000202911
6.32151e-05
1.22354e-05
1.81011e-06
1.54362e-06
2.06314e-06
2.08361e-06
1.52033e-06
5.87284e-07
1.67955e-07
9.50697e-08
1.15137e-07
1.67151e-07
2.54722e-07
3.60934e-07
4.72586e-07
5.84703e-07
6.90998e-07
7.75022e-07
9.12117e-07
0.000115947
2.93235e-05
5.38857e-06
1.6231e-06
1.49801e-06
1.90252e-06
1.93855e-06
1.48072e-06
7.51499e-07
2.77714e-07
1.1509e-07
7.92463e-08
9.12041e-08
1.29288e-07
1.97887e-07
2.90894e-07
3.88113e-07
4.88213e-07
5.73966e-07
7.13612e-07
7.03772e-05
1.71581e-05
3.68694e-06
1.54595e-06
1.43962e-06
1.7793e-06
1.82062e-06
1.44067e-06
8.7588e-07
4.13961e-07
1.67838e-07
9.03245e-08
7.53757e-08
8.21743e-08
1.13092e-07
1.6696e-07
2.35422e-07
3.20298e-07
3.92872e-07
5.32514e-07
4.84405e-05
1.16825e-05
3.20228e-06
1.51137e-06
1.39178e-06
1.69043e-06
1.7319e-06
1.41033e-06
9.67334e-07
5.40215e-07
2.56287e-07
1.26611e-07
8.06257e-08
7.92721e-08
8.37071e-08
1.01865e-07
1.43665e-07
2.04296e-07
2.66605e-07
4.05681e-07
4.00299e-05
9.85839e-06
2.94345e-06
1.48222e-06
1.36017e-06
1.62893e-06
1.66933e-06
1.39334e-06
1.02201e-06
6.50237e-07
3.6196e-07
1.93073e-07
1.07715e-07
8.27756e-08
8.36817e-08
9.20506e-08
1.12319e-07
1.50543e-07
2.02978e-07
3.22483e-07
3.63322e-05
9.9497e-06
2.95785e-06
1.47767e-06
1.36231e-06
1.58905e-06
1.62526e-06
1.37987e-06
1.06365e-06
7.44979e-07
4.72109e-07
2.85359e-07
1.59086e-07
9.78557e-08
9.15593e-08
9.62975e-08
1.08342e-07
1.32319e-07
1.66635e-07
2.58519e-07
3.21965e-05
9.84034e-06
2.99686e-06
1.48494e-06
1.37404e-06
1.56148e-06
1.59226e-06
1.37271e-06
1.1045e-06
8.2823e-07
5.8452e-07
3.85894e-07
2.28193e-07
1.35489e-07
1.09625e-07
1.08277e-07
1.13816e-07
1.28227e-07
1.47181e-07
2.13548e-07
2.87545e-05
9.72931e-06
3.07406e-06
1.50977e-06
1.39993e-06
1.56171e-06
1.56728e-06
1.37656e-06
1.14778e-06
9.12987e-07
6.9184e-07
4.88955e-07
3.13717e-07
1.93407e-07
1.44434e-07
1.31292e-07
1.28763e-07
1.33827e-07
1.45595e-07
1.84348e-07
2.89775e-05
1.00113e-05
3.20248e-06
1.5469e-06
1.43408e-06
1.57103e-06
1.56587e-06
1.38775e-06
1.18653e-06
9.77801e-07
7.73546e-07
5.73715e-07
3.88304e-07
2.56249e-07
1.9506e-07
1.65419e-07
1.49705e-07
1.46981e-07
1.49958e-07
1.72402e-07
3.28794e-05
1.20198e-05
3.7942e-06
1.70657e-06
1.54484e-06
1.61791e-06
1.58675e-06
1.4269e-06
1.2572e-06
1.07982e-06
8.9764e-07
7.08014e-07
5.28643e-07
3.96829e-07
3.1465e-07
2.56609e-07
2.1641e-07
1.89503e-07
1.75587e-07
1.88381e-07
0.00187083
0.0016996
0.0011348
0.000836947
0.000867563
0.000968819
0.00093991
0.000807154
0.000610712
0.00034706
0.000157164
7.49181e-05
4.24035e-05
2.80218e-05
2.43477e-05
2.31087e-05
2.14509e-05
2.07483e-05
2.13422e-05
2.5243e-05
0.00167533
0.00107355
0.000924689
0.00110959
0.00140864
0.00152898
0.00148081
0.00119749
0.000558772
0.000125699
3.44517e-05
1.5566e-05
9.65491e-06
6.3053e-06
5.94151e-06
6.23443e-06
6.56738e-06
6.84282e-06
7.27738e-06
9.18186e-06
0.0011069
0.000880926
0.00129249
0.00167166
0.00239823
0.00258893
0.00276123
0.00217865
0.000334972
2.11444e-05
4.75327e-06
2.61845e-06
2.08761e-06
1.84714e-06
1.84241e-06
1.91167e-06
2.04553e-06
2.21335e-06
2.38554e-06
2.94173e-06
0.000784798
0.000995096
0.00168915
0.00139359
0.00253939
0.00349481
0.00346502
0.00293577
0.000416857
7.51624e-07
8.04978e-07
8.83337e-07
9.59531e-07
1.02132e-06
1.07309e-06
1.11797e-06
1.16274e-06
1.21955e-06
1.27645e-06
1.44218e-06
0.000849137
0.00144825
0.00266394
0.00275226
5.06917e-06
7.63248e-07
8.27557e-07
8.87665e-07
9.44815e-07
9.93202e-07
1.03388e-06
1.07746e-06
1.12863e-06
1.18675e-06
1.24083e-06
1.36702e-06
0.000951493
0.00162433
0.00306548
0.00439468
9.61391e-07
9.82553e-07
1.05234e-06
1.10881e-06
1.15651e-06
1.20071e-06
1.24124e-06
1.27914e-06
1.31535e-06
1.35432e-06
1.39255e-06
1.47207e-06
0.000930581
0.00157555
0.00314358
0.00439832
1.07732e-06
1.01309e-06
1.08852e-06
1.15092e-06
1.20144e-06
1.24457e-06
1.28345e-06
1.31747e-06
1.34455e-06
1.37355e-06
1.40179e-06
1.46095e-06
0.00080506
0.00127003
0.0024701
0.00391734
9.34218e-07
7.02309e-07
7.93244e-07
8.68391e-07
9.36089e-07
9.99336e-07
1.05431e-06
1.09994e-06
1.13999e-06
1.18507e-06
1.23014e-06
1.30755e-06
0.000605404
0.000564637
0.000336096
0.000417317
7.9148e-07
7.50865e-07
8.49676e-07
7.20051e-07
8.64194e-08
1.6107e-07
2.8465e-07
4.19663e-07
5.44532e-07
6.52805e-07
7.37626e-07
8.11918e-07
8.89941e-07
9.6723e-07
1.02615e-06
1.12085e-06
0.000337917
0.000121031
1.93375e-05
2.29484e-07
5.60643e-07
7.99193e-07
8.16312e-07
5.69678e-07
1.52057e-07
5.8409e-08
8.76065e-08
1.56168e-07
2.49079e-07
3.46116e-07
4.47048e-07
5.54682e-07
6.55833e-07
7.47344e-07
8.15317e-07
9.33978e-07
0.000147349
3.14282e-05
3.75924e-06
3.95718e-07
6.5414e-07
8.66928e-07
8.87599e-07
6.52716e-07
2.58387e-07
8.4655e-08
5.66503e-08
6.65778e-08
9.77457e-08
1.60631e-07
2.52016e-07
3.5498e-07
4.54552e-07
5.46829e-07
6.20506e-07
7.63255e-07
6.59329e-05
1.28407e-05
1.86493e-06
5.34554e-07
7.29103e-07
9.23337e-07
9.49124e-07
7.23673e-07
3.74335e-07
1.46594e-07
6.51769e-08
5.3877e-08
6.20126e-08
9.15481e-08
1.45329e-07
2.1797e-07
2.95158e-07
3.73926e-07
4.52843e-07
6.03334e-07
3.65603e-05
7.64241e-06
1.40893e-06
6.51131e-07
7.88425e-07
9.72927e-07
1.00197e-06
7.90784e-07
4.84258e-07
2.31336e-07
9.34054e-08
6.11143e-08
5.99475e-08
6.53381e-08
8.60602e-08
1.23741e-07
1.7207e-07
2.40872e-07
3.16247e-07
4.58077e-07
2.48302e-05
5.24215e-06
1.41283e-06
7.53274e-07
8.35256e-07
1.0161e-06
1.04729e-06
8.53565e-07
5.79641e-07
3.19403e-07
1.51042e-07
8.74893e-08
6.43468e-08
6.07731e-08
6.36085e-08
7.47599e-08
1.06081e-07
1.62532e-07
2.23066e-07
3.48135e-07
2.16802e-05
4.96779e-06
1.44113e-06
8.43517e-07
8.72555e-07
1.05306e-06
1.088e-06
9.06445e-07
6.53847e-07
4.09676e-07
2.33955e-07
1.35994e-07
8.19619e-08
6.31384e-08
6.32892e-08
7.11653e-08
9.10766e-08
1.26466e-07
1.70813e-07
2.70969e-07
2.03891e-05
5.20766e-06
1.5285e-06
9.15746e-07
9.11652e-07
1.0868e-06
1.12337e-06
9.48479e-07
7.19511e-07
5.06285e-07
3.28897e-07
2.03463e-07
1.15727e-07
7.2478e-08
7.06527e-08
7.66073e-08
8.94366e-08
1.09457e-07
1.35992e-07
2.11597e-07
1.86527e-05
5.45265e-06
1.65681e-06
9.7246e-07
9.58168e-07
1.12072e-06
1.15196e-06
9.85842e-07
7.90194e-07
5.99249e-07
4.23622e-07
2.77721e-07
1.61224e-07
9.97293e-08
8.85822e-08
8.92521e-08
9.3644e-08
1.04251e-07
1.18088e-07
1.77648e-07
1.77449e-05
5.66028e-06
1.81531e-06
1.03219e-06
1.01136e-06
1.15847e-06
1.18144e-06
1.02902e-06
8.627e-07
6.85506e-07
5.12271e-07
3.53759e-07
2.26108e-07
1.50192e-07
1.19853e-07
1.08196e-07
1.04585e-07
1.07974e-07
1.1908e-07
1.61964e-07
1.82571e-05
6.0207e-06
1.97482e-06
1.08744e-06
1.06164e-06
1.1955e-06
1.20886e-06
1.07176e-06
9.17909e-07
7.48622e-07
5.81022e-07
4.27718e-07
2.9732e-07
2.06879e-07
1.60447e-07
1.33384e-07
1.1924e-07
1.20184e-07
1.26809e-07
1.56264e-07
2.17086e-05
7.66367e-06
2.46635e-06
1.24071e-06
1.17858e-06
1.27029e-06
1.26562e-06
1.14586e-06
1.00405e-06
8.54082e-07
7.08602e-07
5.66439e-07
4.31757e-07
3.26312e-07
2.55396e-07
2.04269e-07
1.76019e-07
1.63098e-07
1.57941e-07
1.72048e-07
0.00251205
0.00286039
0.00193286
0.00134804
0.00132752
0.00147018
0.00141202
0.00129537
0.000630511
0.000171126
4.49158e-05
1.6506e-05
8.70635e-06
6.25499e-06
6.31783e-06
6.47462e-06
6.6761e-06
7.03908e-06
7.71121e-06
1.01214e-05
0.00280328
0.00209361
0.00212199
0.00280396
0.00325167
0.00339168
0.00327818
0.00268634
0.000300974
2.93939e-05
5.9148e-06
2.73492e-06
1.82309e-06
1.55925e-06
1.66009e-06
1.94317e-06
2.3082e-06
2.65302e-06
3.01329e-06
4.16117e-06
0.00187704
0.0018389
0.0036719
0.00506751
0.00592587
0.0057962
0.0061248
0.0037392
6.41598e-05
2.33206e-06
5.91455e-07
6.06329e-07
6.65621e-07
7.42864e-07
8.40766e-07
9.78685e-07
1.15004e-06
1.33712e-06
1.50424e-06
1.93011e-06
0.0012252
0.00226836
0.00448289
0.0199999
0.0104001
0.0110252
0.0238551
0.000851207
1.20956e-05
2.68611e-07
3.74924e-07
4.823e-07
5.8967e-07
6.86498e-07
7.74684e-07
8.55886e-07
9.23041e-07
9.90181e-07
1.0498e-06
1.21246e-06
0.00132285
0.00305529
0.00466932
0.000542936
2.77751e-07
7.94021e-07
8.59957e-07
9.12652e-07
9.60787e-07
9.9874e-07
1.02834e-06
1.05792e-06
1.09531e-06
1.13995e-06
1.1818e-06
1.28045e-06
0.00141705
0.00350374
0.00658444
0.0258317
9.15808e-07
1.17334e-06
1.17308e-06
1.17649e-06
1.18495e-06
1.20026e-06
1.22103e-06
1.24568e-06
1.27305e-06
1.30455e-06
1.33727e-06
1.40524e-06
0.00138665
0.00341477
0.00658283
0.0267384
1.04293e-06
1.20492e-06
1.2085e-06
1.21399e-06
1.22393e-06
1.23903e-06
1.2582e-06
1.27926e-06
1.29812e-06
1.32052e-06
1.34577e-06
1.40044e-06
0.00128965
0.00281489
0.00399147
0.000617651
9.042e-07
8.33891e-07
8.80782e-07
9.20441e-07
9.61976e-07
1.0062e-06
1.04112e-06
1.06869e-06
1.0991e-06
1.14095e-06
1.18472e-06
1.2595e-06
0.000628805
0.000309716
7.13115e-05
1.10459e-05
2.52221e-07
7.8878e-07
8.91042e-07
7.63186e-07
9.03065e-08
1.86666e-07
3.15664e-07
4.5007e-07
5.63316e-07
6.51212e-07
7.23199e-07
7.8955e-07
8.6566e-07
9.44625e-07
9.97381e-07
1.08076e-06
0.000165323
2.78184e-05
2.14304e-06
2.04497e-07
6.68348e-07
9.85073e-07
1.00705e-06
6.94145e-07
1.68494e-07
5.81903e-08
8.97975e-08
1.56743e-07
2.42501e-07
3.33684e-07
4.30647e-07
5.42212e-07
6.48881e-07
7.29796e-07
7.85711e-07
8.95253e-07
3.99872e-05
5.0124e-06
4.35997e-07
2.89983e-07
7.1549e-07
9.76369e-07
1.00019e-06
7.29761e-07
2.75099e-07
8.47502e-08
4.85477e-08
5.53382e-08
8.44834e-08
1.45752e-07
2.39636e-07
3.46956e-07
4.38407e-07
5.16413e-07
5.83326e-07
7.28952e-07
1.31335e-05
1.97643e-06
4.43897e-07
3.73401e-07
7.51401e-07
9.72179e-07
1.00056e-06
7.60363e-07
3.8633e-07
1.4084e-07
5.35728e-08
4.9441e-08
5.70116e-08
8.61092e-08
1.37669e-07
2.01954e-07
2.68679e-07
3.40168e-07
4.1881e-07
5.83501e-07
6.72881e-06
1.26716e-06
4.85238e-07
4.55752e-07
7.85005e-07
9.74876e-07
1.00482e-06
7.9465e-07
4.80703e-07
2.13985e-07
7.84163e-08
5.62672e-08
5.75018e-08
6.24517e-08
7.68008e-08
1.06586e-07
1.49287e-07
2.16058e-07
2.9915e-07
4.49935e-07
4.95361e-06
1.16519e-06
5.54863e-07
5.32433e-07
8.11973e-07
9.81442e-07
1.01278e-06
8.29235e-07
5.51937e-07
2.92003e-07
1.32312e-07
8.18147e-08
6.15828e-08
5.40931e-08
5.63613e-08
6.64165e-08
9.54563e-08
1.54852e-07
2.18263e-07
3.37219e-07
5.03241e-06
1.24336e-06
6.40124e-07
6.04354e-07
8.32797e-07
9.92803e-07
1.02439e-06
8.53825e-07
6.07801e-07
3.73892e-07
2.13727e-07
1.25936e-07
7.31826e-08
5.61655e-08
5.68848e-08
6.54282e-08
8.72145e-08
1.23054e-07
1.61596e-07
2.53188e-07
5.1518e-06
1.46086e-06
7.52513e-07
6.72199e-07
8.53261e-07
1.00808e-06
1.03831e-06
8.72222e-07
6.59677e-07
4.67189e-07
3.05238e-07
1.81035e-07
9.78567e-08
6.50783e-08
6.48848e-08
7.23767e-08
8.53247e-08
1.002e-07
1.21836e-07
1.92954e-07
5.27498e-06
1.739e-06
8.86781e-07
7.29781e-07
8.80126e-07
1.02684e-06
1.05101e-06
8.94582e-07
7.21656e-07
5.55991e-07
3.83937e-07
2.3944e-07
1.35223e-07
9.02988e-08
8.48214e-08
8.47942e-08
8.69324e-08
9.4526e-08
1.08418e-07
1.68807e-07
5.52417e-06
2.01066e-06
1.03558e-06
7.865e-07
9.14188e-07
1.05071e-06
1.06827e-06
9.28757e-07
7.86987e-07
6.23808e-07
4.52357e-07
3.04202e-07
1.96077e-07
1.42016e-07
1.14981e-07
9.69109e-08
9.40275e-08
9.83476e-08
1.10734e-07
1.60179e-07
6.04771e-06
2.29245e-06
1.16963e-06
8.36648e-07
9.47967e-07
1.07727e-06
1.08958e-06
9.64758e-07
8.31059e-07
6.71968e-07
5.12326e-07
3.75661e-07
2.70538e-07
1.97166e-07
1.46577e-07
1.14843e-07
1.07698e-07
1.10718e-07
1.20589e-07
1.57164e-07
8.0305e-06
3.20339e-06
1.50742e-06
9.70003e-07
1.02947e-06
1.13429e-06
1.13698e-06
1.02886e-06
9.01852e-07
7.65376e-07
6.37483e-07
5.18806e-07
4.03655e-07
3.02401e-07
2.26028e-07
1.76486e-07
1.6149e-07
1.56951e-07
1.56989e-07
1.73697e-07
0.0027735
0.00403286
0.00411027
0.00278344
0.00233026
0.00226668
0.0020982
0.00194737
0.000182483
1.98134e-05
3.31664e-06
1.13347e-06
7.93612e-07
8.38344e-07
1.01229e-06
1.27577e-06
1.60131e-06
1.96089e-06
2.35244e-06
3.42716e-06
0.00406309
0.00942255
0.0130057
0.00955937
0.00798637
0.00785974
0.00705651
0.00552735
4.24394e-05
1.92244e-06
3.89827e-07
3.98255e-07
4.36675e-07
5.13867e-07
6.56203e-07
9.04675e-07
1.21318e-06
1.5212e-06
1.79763e-06
2.48756e-06
0.00424451
0.0133347
0.0142826
0.00868237
0.00848493
0.00928432
0.00972843
0.00601532
7.03039e-06
2.47587e-07
2.84524e-07
3.63087e-07
4.82968e-07
6.17981e-07
7.54442e-07
9.33887e-07
1.17307e-06
1.42611e-06
1.62167e-06
2.02268e-06
0.00286572
0.0102206
0.00915882
0.000358161
0.000893213
0.00248188
0.0281522
0.00036591
1.75964e-07
3.51947e-07
5.0213e-07
6.55133e-07
8.00775e-07
9.23651e-07
1.02213e-06
1.10948e-06
1.15839e-06
1.20147e-06
1.24163e-06
1.37839e-06
0.00234911
0.00847343
0.00927836
0.000721411
5.07704e-07
1.10624e-06
1.17867e-06
1.22246e-06
1.26034e-06
1.28803e-06
1.30176e-06
1.31238e-06
1.33117e-06
1.36245e-06
1.39754e-06
1.48435e-06
0.00216719
0.00785451
0.00976089
0.0132682
1.38523e-06
1.64661e-06
1.62487e-06
1.60127e-06
1.57765e-06
1.55773e-06
1.54808e-06
1.55033e-06
1.55853e-06
1.57319e-06
1.59229e-06
1.63962e-06
0.00198784
0.00682305
0.00960175
0.0292916
1.56842e-06
1.6916e-06
1.67397e-06
1.65164e-06
1.629e-06
1.61133e-06
1.60105e-06
1.59426e-06
1.59412e-06
1.59789e-06
1.60788e-06
1.6396e-06
0.00182828
0.00525096
0.00652703
0.000486584
1.35491e-06
1.15761e-06
1.20581e-06
1.24166e-06
1.27527e-06
1.30662e-06
1.32247e-06
1.33085e-06
1.34643e-06
1.37758e-06
1.41136e-06
1.47028e-06
0.000167137
3.5382e-05
3.52366e-06
1.31015e-07
4.3527e-07
1.12567e-06
1.27153e-06
1.08468e-06
1.15661e-07
2.39763e-07
4.12703e-07
5.84973e-07
7.27687e-07
8.29755e-07
9.08016e-07
9.79597e-07
1.05682e-06
1.13631e-06
1.18675e-06
1.26511e-06
1.85449e-05
1.70674e-06
2.21081e-07
2.82356e-07
8.79732e-07
1.29765e-06
1.32565e-06
9.09571e-07
2.12872e-07
6.83935e-08
1.07693e-07
1.90914e-07
2.95349e-07
4.08862e-07
5.28218e-07
6.58369e-07
7.84496e-07
8.75797e-07
9.32712e-07
1.0469e-06
2.95438e-06
3.31696e-07
2.427e-07
3.93498e-07
9.36222e-07
1.27898e-06
1.31164e-06
9.52099e-07
3.49664e-07
1.00607e-07
5.40092e-08
6.12673e-08
9.59848e-08
1.70055e-07
2.80449e-07
4.10533e-07
5.21608e-07
6.04474e-07
6.81376e-07
8.44894e-07
9.49527e-07
3.31642e-07
2.97955e-07
5.07882e-07
9.6612e-07
1.25926e-06
1.29545e-06
9.82119e-07
4.87787e-07
1.70941e-07
5.95199e-08
5.32687e-08
6.14843e-08
9.46978e-08
1.56326e-07
2.33098e-07
3.05706e-07
3.87615e-07
4.81043e-07
6.71455e-07
6.47124e-07
3.60365e-07
3.84402e-07
6.20426e-07
9.9227e-07
1.23956e-06
1.27818e-06
1.00959e-06
6.04044e-07
2.60713e-07
8.88356e-08
6.06263e-08
6.36509e-08
7.07426e-08
8.69851e-08
1.17391e-07
1.65365e-07
2.44129e-07
3.40221e-07
5.17048e-07
6.84088e-07
4.23157e-07
4.85885e-07
7.19512e-07
1.01251e-06
1.22252e-06
1.2673e-06
1.03636e-06
6.87035e-07
3.54599e-07
1.51864e-07
8.89e-08
6.95687e-08
5.99908e-08
6.10675e-08
7.20253e-08
1.05304e-07
1.7301e-07
2.47717e-07
3.84201e-07
8.22542e-07
5.33654e-07
5.89104e-07
7.99023e-07
1.02508e-06
1.2207e-06
1.26212e-06
1.05264e-06
7.47286e-07
4.50431e-07
2.44558e-07
1.40463e-07
8.26327e-08
6.09498e-08
6.16367e-08
7.15449e-08
9.5728e-08
1.36803e-07
1.79249e-07
2.7952e-07
1.02741e-06
7.17816e-07
7.24043e-07
8.69003e-07
1.03504e-06
1.22394e-06
1.26294e-06
1.06297e-06
8.01961e-07
5.53847e-07
3.52815e-07
2.05738e-07
1.0771e-07
7.06804e-08
7.09203e-08
7.91263e-08
9.33253e-08
1.08451e-07
1.28607e-07
2.06934e-07
1.27779e-06
9.43616e-07
9.05346e-07
9.08419e-07
1.05164e-06
1.23219e-06
1.26498e-06
1.07848e-06
8.62582e-07
6.5656e-07
4.48242e-07
2.70038e-07
1.48742e-07
9.87215e-08
9.27789e-08
9.27291e-08
9.47422e-08
9.97129e-08
1.15144e-07
1.82918e-07
1.55014e-06
1.17394e-06
1.09384e-06
9.43008e-07
1.0786e-06
1.24606e-06
1.27048e-06
1.10576e-06
9.29001e-07
7.35609e-07
5.22104e-07
3.41952e-07
2.16631e-07
1.55311e-07
1.26872e-07
1.0537e-07
9.90696e-08
1.03898e-07
1.19242e-07
1.76198e-07
1.84062e-06
1.3804e-06
1.23806e-06
9.74748e-07
1.10768e-06
1.26382e-06
1.28119e-06
1.13442e-06
9.74054e-07
7.84838e-07
5.87901e-07
4.21326e-07
2.98565e-07
2.18497e-07
1.61168e-07
1.21034e-07
1.13203e-07
1.18119e-07
1.31306e-07
1.77513e-07
2.66007e-06
1.90119e-06
1.53551e-06
1.07849e-06
1.17696e-06
1.30667e-06
1.31272e-06
1.18614e-06
1.04119e-06
8.78551e-07
7.21017e-07
5.78827e-07
4.49533e-07
3.35961e-07
2.43677e-07
1.8376e-07
1.69628e-07
1.7029e-07
1.73111e-07
1.9723e-07
0.00175751
0.00174138
0.00148317
0.00116356
0.00100393
0.000880282
0.000795307
0.000730387
1.40814e-05
8.72536e-07
2.10188e-07
2.29146e-07
2.86775e-07
3.9452e-07
5.81103e-07
8.45071e-07
1.16668e-06
1.49427e-06
1.78962e-06
2.4791e-06
0.00176219
0.00268737
0.00263666
0.00252928
0.00246693
0.00259809
0.00247777
0.00188855
2.32422e-06
1.42354e-07
1.59531e-07
2.06961e-07
2.856e-07
4.00256e-07
5.69168e-07
8.28569e-07
1.17788e-06
1.52658e-06
1.80125e-06
2.40344e-06
0.00152535
0.00266904
0.00467689
0.00507389
0.00675346
0.00695343
0.00731288
0.00497966
3.95635e-08
1.32714e-07
2.52561e-07
3.9933e-07
5.66461e-07
7.35488e-07
8.89151e-07
1.08466e-06
1.33799e-06
1.62795e-06
1.86123e-06
2.31417e-06
0.00121583
0.00240309
0.00488254
0.00148991
0.00224804
4.31855e-09
0.0218189
0.00041277
8.99382e-07
4.50696e-07
6.30246e-07
8.07281e-07
9.76731e-07
1.12563e-06
1.23928e-06
1.34441e-06
1.41074e-06
1.4543e-06
1.49045e-06
1.62484e-06
0.00103091
0.00249195
0.00572042
9.59307e-05
6.52475e-07
1.33314e-06
1.42643e-06
1.47278e-06
1.51082e-06
1.54618e-06
1.56704e-06
1.57539e-06
1.58866e-06
1.6163e-06
1.65247e-06
1.7428e-06
0.000877687
0.00266016
0.00704005
0.00031629
1.78483e-06
1.98172e-06
1.95149e-06
1.92361e-06
1.89577e-06
1.87344e-06
1.85712e-06
1.85699e-06
1.86161e-06
1.87305e-06
1.88912e-06
1.93132e-06
0.000785082
0.00248785
0.00744179
0.0241588
2.02081e-06
2.04549e-06
2.01958e-06
1.99328e-06
1.96805e-06
1.9461e-06
1.92914e-06
1.91914e-06
1.91216e-06
1.91348e-06
1.9179e-06
1.9397e-06
0.000717117
0.00186221
0.00499782
0.000303138
1.75118e-06
1.39154e-06
1.45085e-06
1.49495e-06
1.53398e-06
1.56751e-06
1.58903e-06
1.6048e-06
1.62295e-06
1.65038e-06
1.6782e-06
1.73499e-06
1.36896e-05
2.35185e-06
1.75476e-07
2.9806e-07
5.00974e-07
1.3828e-06
1.55875e-06
1.32513e-06
1.32165e-07
2.81629e-07
4.88721e-07
6.89255e-07
8.57914e-07
9.92161e-07
1.09644e-06
1.1841e-06
1.2651e-06
1.3457e-06
1.40628e-06
1.50187e-06
9.55e-07
1.68642e-07
1.70745e-07
3.55158e-07
1.05121e-06
1.5508e-06
1.58526e-06
1.08264e-06
2.49438e-07
7.80311e-08
1.20032e-07
2.18024e-07
3.51273e-07
4.92523e-07
6.35962e-07
7.81082e-07
9.18948e-07
1.03687e-06
1.11667e-06
1.25118e-06
2.48378e-07
1.77456e-07
2.22018e-07
4.92916e-07
1.1232e-06
1.5271e-06
1.56731e-06
1.13823e-06
4.11747e-07
1.11898e-07
6.21232e-08
7.53108e-08
1.19435e-07
2.04149e-07
3.25534e-07
4.69104e-07
6.08817e-07
7.29146e-07
8.23164e-07
1.00318e-06
2.66641e-07
2.1631e-07
3.2177e-07
6.30284e-07
1.15849e-06
1.50586e-06
1.55081e-06
1.17534e-06
5.7078e-07
1.93271e-07
7.27895e-08
5.98343e-08
6.72155e-08
1.01809e-07
1.7119e-07
2.66567e-07
3.68207e-07
4.71103e-07
5.75122e-07
7.83317e-07
3.17781e-07
2.84607e-07
4.47666e-07
7.65153e-07
1.18706e-06
1.48518e-06
1.53426e-06
1.2055e-06
7.05422e-07
3.04943e-07
1.09027e-07
6.60613e-08
6.94041e-08
7.86064e-08
1.01434e-07
1.44656e-07
2.06113e-07
2.93819e-07
3.95754e-07
6.00231e-07
4.03218e-07
3.78669e-07
5.79133e-07
8.85072e-07
1.21188e-06
1.46755e-06
1.51892e-06
1.23248e-06
8.13062e-07
4.20865e-07
1.78647e-07
9.40975e-08
7.69755e-08
7.40892e-08
7.64095e-08
8.92789e-08
1.25173e-07
1.94754e-07
2.80423e-07
4.50693e-07
5.40368e-07
5.04788e-07
6.99537e-07
9.73749e-07
1.22782e-06
1.45689e-06
1.50934e-06
1.2546e-06
8.94711e-07
5.34238e-07
2.77776e-07
1.5085e-07
9.53408e-08
7.60205e-08
7.59188e-08
8.29483e-08
1.03998e-07
1.49183e-07
2.05867e-07
3.31598e-07
7.27787e-07
6.91324e-07
8.48645e-07
1.05299e-06
1.23646e-06
1.45798e-06
1.50612e-06
1.27403e-06
9.61156e-07
6.47317e-07
3.94992e-07
2.30267e-07
1.3028e-07
8.57177e-08
8.28099e-08
8.82195e-08
1.02913e-07
1.2585e-07
1.53517e-07
2.44465e-07
9.58011e-07
9.37266e-07
1.03876e-06
1.10253e-06
1.24895e-06
1.46367e-06
1.50746e-06
1.29276e-06
1.02253e-06
7.562e-07
5.12117e-07
3.16235e-07
1.80439e-07
1.13886e-07
1.00941e-07
1.02542e-07
1.07954e-07
1.18695e-07
1.35194e-07
2.07609e-07
1.20092e-06
1.18412e-06
1.25151e-06
1.13495e-06
1.27235e-06
1.47484e-06
1.51096e-06
1.31462e-06
1.08641e-06
8.55251e-07
6.14147e-07
4.02396e-07
2.52489e-07
1.70401e-07
1.38041e-07
1.23179e-07
1.18382e-07
1.22401e-07
1.37172e-07
1.99316e-07
1.4182e-06
1.38396e-06
1.41769e-06
1.16179e-06
1.30011e-06
1.48905e-06
1.51596e-06
1.33673e-06
1.13768e-06
9.22142e-07
6.91108e-07
4.87871e-07
3.37032e-07
2.42005e-07
1.83634e-07
1.43709e-07
1.32961e-07
1.35717e-07
1.48047e-07
2.0371e-07
1.96217e-06
1.84739e-06
1.73281e-06
1.25424e-06
1.36604e-06
1.52472e-06
1.53712e-06
1.38432e-06
1.21766e-06
1.02881e-06
8.33696e-07
6.5602e-07
5.05766e-07
3.83457e-07
2.82008e-07
2.10306e-07
1.88126e-07
1.89252e-07
1.96419e-07
2.31547e-07
0.00173125
0.00174078
0.00149288
0.00116308
0.000997309
0.000872334
0.000788494
0.000724022
1.2163e-05
7.75674e-07
2.43132e-07
2.59189e-07
3.14552e-07
4.20693e-07
6.05388e-07
8.68378e-07
1.18624e-06
1.51447e-06
1.81608e-06
2.51437e-06
0.00173116
0.00266565
0.0026374
0.00257488
0.00244029
0.00255287
0.00244503
0.00187997
2.25619e-06
1.98939e-07
2.06813e-07
2.42082e-07
3.12426e-07
4.26838e-07
5.99755e-07
8.62217e-07
1.21844e-06
1.57278e-06
1.85446e-06
2.46804e-06
0.00151378
0.00266033
0.00468779
0.00506212
0.00695526
0.00691529
0.00720647
0.00495081
2.95595e-07
2.42772e-07
3.04236e-07
4.27633e-07
5.90746e-07
7.67683e-07
9.33475e-07
1.14003e-06
1.40724e-06
1.70877e-06
1.94919e-06
2.42981e-06
0.00121742
0.00240913
0.00493911
0.00158038
0.00615337
0.000144916
0.0170858
0.00021764
6.55963e-07
4.62708e-07
6.49025e-07
8.34471e-07
1.01249e-06
1.16894e-06
1.28884e-06
1.398e-06
1.4647e-06
1.51391e-06
1.55635e-06
1.7044e-06
0.00103749
0.00256784
0.00581063
1.50448e-06
6.55266e-07
1.38239e-06
1.48319e-06
1.53219e-06
1.57225e-06
1.60803e-06
1.62997e-06
1.64097e-06
1.65728e-06
1.68712e-06
1.72502e-06
1.82002e-06
0.000884218
0.00272423
0.00717798
0.00302006
1.94203e-06
2.05879e-06
2.02967e-06
2.00268e-06
1.97482e-06
1.95287e-06
1.9391e-06
1.94004e-06
1.94598e-06
1.95876e-06
1.97654e-06
2.02108e-06
0.000789751
0.00251472
0.00750022
0.0272447
2.20895e-06
2.12639e-06
2.10112e-06
2.0741e-06
2.04709e-06
2.02601e-06
2.01468e-06
2.00812e-06
1.99957e-06
1.99985e-06
2.00388e-06
2.02814e-06
0.000719712
0.00188503
0.00503267
0.000737824
1.9113e-06
1.45428e-06
1.51538e-06
1.55826e-06
1.60081e-06
1.63902e-06
1.66464e-06
1.68217e-06
1.70106e-06
1.73025e-06
1.76319e-06
1.82275e-06
1.19475e-05
2.05105e-06
1.30413e-07
2.3641e-07
4.70496e-07
1.54864e-06
1.74789e-06
1.49006e-06
1.46714e-07
3.03726e-07
5.2056e-07
7.27596e-07
9.03678e-07
1.04611e-06
1.15496e-06
1.24308e-06
1.32874e-06
1.41591e-06
1.48233e-06
1.58101e-06
8.05711e-07
1.56355e-07
1.51477e-07
3.61811e-07
1.10387e-06
1.6367e-06
1.67542e-06
1.14208e-06
2.571e-07
8.18351e-08
1.26329e-07
2.31541e-07
3.75325e-07
5.24636e-07
6.71556e-07
8.20807e-07
9.63345e-07
1.0932e-06
1.18256e-06
1.32181e-06
2.305e-07
1.71826e-07
2.2357e-07
5.13285e-07
1.17793e-06
1.61197e-06
1.65635e-06
1.19449e-06
4.24232e-07
1.14903e-07
6.54278e-08
8.09553e-08
1.28929e-07
2.1722e-07
3.4189e-07
4.88712e-07
6.37971e-07
7.72556e-07
8.73953e-07
1.05821e-06
2.56283e-07
2.17055e-07
3.36292e-07
6.61711e-07
1.21544e-06
1.58914e-06
1.63625e-06
1.23093e-06
5.8805e-07
1.96904e-07
7.62637e-08
6.2428e-08
6.98976e-08
1.05346e-07
1.76716e-07
2.77845e-07
3.88724e-07
5.00415e-07
6.0894e-07
8.26168e-07
3.17022e-07
2.90057e-07
4.70757e-07
8.04024e-07
1.24615e-06
1.56604e-06
1.61576e-06
1.26688e-06
7.3111e-07
3.1218e-07
1.12871e-07
6.83138e-08
7.18879e-08
8.15967e-08
1.06403e-07
1.53274e-07
2.19223e-07
3.10667e-07
4.16865e-07
6.30666e-07
4.09525e-07
3.89888e-07
6.11322e-07
9.26845e-07
1.27359e-06
1.5473e-06
1.59874e-06
1.30052e-06
8.46192e-07
4.33154e-07
1.83747e-07
9.65054e-08
7.97043e-08
7.8354e-08
8.09347e-08
9.43686e-08
1.31121e-07
2.02811e-07
2.92432e-07
4.72145e-07
5.50865e-07
5.22227e-07
7.40413e-07
1.01806e-06
1.28977e-06
1.53355e-06
1.58886e-06
1.32111e-06
9.31591e-07
5.5124e-07
2.8585e-07
1.5445e-07
9.9221e-08
8.02326e-08
7.99324e-08
8.65185e-08
1.07286e-07
1.54679e-07
2.14781e-07
3.48038e-07
7.40851e-07
7.14559e-07
8.94485e-07
1.10056e-06
1.29729e-06
1.53352e-06
1.58319e-06
1.3313e-06
9.98488e-07
6.70435e-07
4.07281e-07
2.36695e-07
1.35771e-07
8.99781e-08
8.63842e-08
9.16606e-08
1.07058e-07
1.3186e-07
1.60874e-07
2.56235e-07
9.74503e-07
9.66277e-07
1.08705e-06
1.1534e-06
1.30831e-06
1.5374e-06
1.57822e-06
1.34378e-06
1.06423e-06
7.85638e-07
5.28203e-07
3.26207e-07
1.88153e-07
1.18618e-07
1.04618e-07
1.066e-07
1.12897e-07
1.24228e-07
1.41094e-07
2.15837e-07
1.22182e-06
1.22e-06
1.30516e-06
1.18572e-06
1.32968e-06
1.54719e-06
1.57937e-06
1.36793e-06
1.13345e-06
8.86847e-07
6.34672e-07
4.17433e-07
2.6329e-07
1.77123e-07
1.42995e-07
1.28117e-07
1.23706e-07
1.27791e-07
1.42729e-07
2.07504e-07
1.44289e-06
1.42372e-06
1.47854e-06
1.21203e-06
1.35703e-06
1.56058e-06
1.58426e-06
1.39606e-06
1.18519e-06
9.54693e-07
7.16369e-07
5.07194e-07
3.51423e-07
2.51281e-07
1.90161e-07
1.49519e-07
1.38877e-07
1.41396e-07
1.53998e-07
2.12096e-07
1.98874e-06
1.89073e-06
1.8073e-06
1.30534e-06
1.42451e-06
1.59525e-06
1.60572e-06
1.44624e-06
1.26235e-06
1.06501e-06
8.65272e-07
6.82868e-07
5.25342e-07
3.96594e-07
2.91986e-07
2.18684e-07
1.95977e-07
1.9734e-07
2.04721e-07
2.40908e-07
0.00273624
0.00404666
0.00414584
0.00279223
0.00228273
0.00224243
0.00208689
0.00193562
0.000141594
1.37786e-05
2.52678e-06
8.37303e-07
7.48311e-07
8.19227e-07
1.00667e-06
1.27244e-06
1.59734e-06
1.94574e-06
2.32765e-06
3.36583e-06
0.00401139
0.00945622
0.013243
0.00969101
0.00790811
0.00756915
0.00682945
0.00538026
3.0284e-05
1.40421e-06
4.08686e-07
4.23587e-07
4.68387e-07
5.62741e-07
7.24588e-07
9.83954e-07
1.31174e-06
1.63271e-06
1.92293e-06
2.64441e-06
0.00419816
0.013124
0.0141401
0.00881609
0.00980449
0.00933759
0.00950073
0.00634759
3.93253e-06
2.91968e-07
3.34195e-07
4.20605e-07
5.56074e-07
7.09844e-07
8.64686e-07
1.07197e-06
1.33818e-06
1.62008e-06
1.83622e-06
2.27547e-06
0.00284992
0.0102286
0.00906266
0.00108249
0.0056672
2.63403e-09
0.0187994
0.000173246
2.29221e-07
4.32761e-07
5.94683e-07
7.60588e-07
9.22384e-07
1.06376e-06
1.17636e-06
1.27638e-06
1.33175e-06
1.38156e-06
1.42716e-06
1.58001e-06
0.00236893
0.00890038
0.00877228
1.31637e-06
6.54227e-07
1.30052e-06
1.38891e-06
1.43423e-06
1.47344e-06
1.50594e-06
1.52224e-06
1.53216e-06
1.551e-06
1.58468e-06
1.62351e-06
1.71797e-06
0.00215899
0.00822886
0.0101332
0.0067927
1.90323e-06
1.92965e-06
1.89853e-06
1.86828e-06
1.83835e-06
1.81582e-06
1.80446e-06
1.80629e-06
1.81356e-06
1.82763e-06
1.8467e-06
1.89393e-06
0.00197661
0.00703887
0.00981902
0.0309569
2.16666e-06
1.98994e-06
1.96326e-06
1.93537e-06
1.90885e-06
1.8885e-06
1.87683e-06
1.86993e-06
1.86411e-06
1.86602e-06
1.87339e-06
1.90087e-06
0.00183599
0.00538113
0.00655461
0.00019298
1.87512e-06
1.36947e-06
1.42279e-06
1.46148e-06
1.49774e-06
1.53298e-06
1.55495e-06
1.56749e-06
1.58513e-06
1.61741e-06
1.65111e-06
1.71017e-06
0.000128815
2.54741e-05
1.9761e-06
1.59305e-07
5.2079e-07
1.50908e-06
1.70718e-06
1.45879e-06
1.47683e-07
2.93992e-07
4.9848e-07
6.98359e-07
8.65918e-07
9.87889e-07
1.07873e-06
1.16028e-06
1.24537e-06
1.33558e-06
1.3955e-06
1.48103e-06
1.25576e-05
1.23219e-06
2.23197e-07
3.43918e-07
1.01821e-06
1.51059e-06
1.54866e-06
1.05607e-06
2.34643e-07
7.86053e-08
1.26412e-07
2.29221e-07
3.57408e-07
4.92292e-07
6.30613e-07
7.76385e-07
9.20298e-07
1.03184e-06
1.10084e-06