/*--------------------------------*- C++ -*----------------------------------*\
  =========                 |
  \\      /  F ield         | OpenFOAM: The Open Source CFD Toolbox
   \\    /   O peration     | Website:  https://openfoam.org
    \\  /    A nd           | Version:  9
     \\/     M anipulation  |
\*---------------------------------------------------------------------------*/
FoamFile
{
    format      ascii;
    class       volScalarField;
    location    "0.01";
    object      rhoE;
}
// * * * * * * * * * * * * * * * * * * * * * * * * * * * * * * * * * * * * * //

dimensions      [1 -1 -2 0 0 0 0];

internalField   nonuniform List<scalar> 
9720
(
2.2646e+06
1.6113e+06
1.01647e+06
778321
933683
1.03719e+06
1.02271e+06
915876
761290
580771
454883
376759
338703
352306
379240
421465
481925
562997
664891
901455
1.61844e+06
764630
542243
557961
876465
1.0099e+06
997290
858336
599787
360331
241453
195815
204915
235504
290343
357681
441191
535935
642285
867709
1.02076e+06
537339
471552
462047
853923
1.00099e+06
992188
825664
449042
214264
149236
174621
217125
272033
338391
409964
488118
559776
635149
803236
763125
542687
453968
386559
664135
1.00699e+06
1.03412e+06
908241
430851
149858
188756
231788
278127
320423
359153
387714
417685
447409
480713
554812
898536
841698
819803
658982
153742
397938
430835
456980
474149
483528
493572
504738
519392
532509
547962
581055
997130
972704
966726
966710
546706
568955
561419
554180
548639
545475
545018
546043
548675
554002
560644
576500
978705
957401
954300
999059
593894
571679
565986
560771
555879
552614
550236
549170
550029
553472
558719
571000
876294
821451
789061
871432
512928
399222
422467
436908
448700
457100
465128
473394
481228
488924
497730
514699
724062
566501
419140
383412
166682
503947
547992
467421
46646.5
87002.1
147608
207816
259659
301300
332999
360700
385939
407426
426322
455552
548704
337168
199798
144901
373106
530685
530367
370531
93008.7
29985.9
42888
71741
114308
159204
204924
246159
281970
316763
345100
388673
428563
223885
140570
180788
406127
522431
524162
392612
153471
43326
25399.8
29638.7
46489.9
76179.4
113641
152751
195034
234731
267221
321146
357533
186747
167923
221924
428060
514920
518900
406656
210571
74676.5
29647.2
21363.8
25959.7
37286.8
58933
88916.5
123578
159468
192535
249086
324204
198443
212266
266008
440040
510111
514593
417898
257012
118691
48016.9
25805.3
22104.6
24126.7
33287.1
49721.3
73611.6
103575
132021
186922
336607
229196
264894
303446
448747
507132
512440
425999
293556
162958
79304.5
38101.9
23911.1
24810
26635.5
31825.3
46134.3
66957.3
91370.2
142436
361953
280842
328494
338051
459639
506901
511549
433752
322312
206964
117399
60585.9
33492.9
26769.3
27419.9
29999.5
36766.8
49770.1
69329.8
110270
402503
344546
395578
365909
471503
508380
511965
441820
347739
246017
156108
91490.9
51040.5
32657.6
30631.9
30960.4
34484.8
42938.5
54697.3
85174.7
461291
423716
465972
396433
485921
512049
513843
450303
371152
279783
197248
126906
75987.4
47320.2
38234.8
35367.4
36989
41831.6
47476.7
69363.6
539657
513321
531452
426252
499015
518547
518654
458938
392019
312607
236015
163581
107234
69562.3
51984.4
45062.9
43018.8
43717.4
46547.3
59986.7
637813
613522
603113
458696
514583
526132
524915
469030
409337
338720
266900
196220
137146
95246.4
72650.2
58541.6
50674.5
47840.9
48260.5
56761.1
864929
826689
764031
530845
548844
543305
539155
488759
438160
379774
318197
251901
192641
147914
116327
92067.8
75535.9
64617.9
58949.8
63633.1
2.25629e+06
1.53348e+06
971783
780132
951852
1.05578e+06
1.03881e+06
930077
765602
581671
451720
370794
329587
342149
367420
408951
469032
549416
648953
880451
1.54122e+06
713695
534388
567865
901701
1.03283e+06
1.01745e+06
874467
600851
355699
237182
191256
198667
226428
277662
341409
424424
519415
624410
844252
973321
527011
459348
471793
883343
1.02757e+06
1.01628e+06
842659
447498
208198
145777
170528
210791
262326
324128
388988
465975
540539
616906
777908
757076
543655
447206
382354
718851
1.01959e+06
1.05393e+06
922868
443893
148333
186544
227253
272091
314636
353990
382270
409074
435237
465355
534985
902794
846869
824367
643661
159270
402730
432315
455925
473141
481760
490028
499572
513345
525501
539577
569292
1.00301e+06
982248
980790
983998
548383
576916
567400
557971
550589
545343
543982
543850
545040
548890
554539
568954
985689
968885
969716
1.01225e+06
596047
580277
572077
564345
557650
552952
550233
547075
546312
548307
552849
564584
882807
832147
802448
883109
514202
402498
424752
437931
449062
458006
464620
470194
476213
483381
492728
509479
724780
567880
419546
398649
192847
521942
566970
482162
49911.5
87631.7
146367
206583
257975
298789
328635
353655
379509
403647
422771
448213
548424
334611
194878
144069
389787
554232
553850
385521
95576.3
29443.4
42020.8
70200.9
111123
153064
196020
238852
277389
311903
338263
376511
424043
220216
137980
180945
419308
544332
545639
406035
155701
43017.3
23620.7
27763.4
42085.7
69250.2
107348
148088
189520
227443
255124
306710
348800
181430
164014
221675
440191
534813
538285
419805
214392
73754.6
27958.8
20576.3
24564.4
35961
57117.2
85706
118003
149165
178631
237385
311585
190199
205317
264835
453681
527860
532640
431787
262220
116728
43952.4
24550.8
21753.2
23994.6
32414.7
46804.2
66624.6
92636.2
121899
178335
322850
216852
255072
304059
462200
523515
529617
441380
298966
159685
73261.8
37123.3
24031.6
22528.5
24289.8
28017.8
39683.2
60293
84845
134737
347457
265588
314161
340807
471408
522307
527913
447672
326683
202733
113187
59887
33139.5
24432.6
24551.5
26324.3
32888.1
45733.2
64568.6
102295
387887
326925
375659
368933
481410
522603
526671
452930
350917
245149
155305
90252.2
49072.2
28992
26827.3
27451.2
31200.7
38889.6
49397.8
75717.1
446579
407404
447827
396396
494889
524465
526667
459831
376106
283174
196927
124057
70581.4
41604.7
34363.2
32016.4
33402.7
37152.7
41054.1
60060.3
524626
498584
517805
422763
506685
529061
529775
468213
399930
316360
234378
156724
98567
63918.9
48279.9
40939
38210
38327
39987.5
53351.5
620536
597948
590857
451955
520603
535399
534944
478686
417858
340872
261664
187051
129643
90274.1
68432.5
53199.7
43728.3
41520.3
42160.2
51618.5
841180
805362
743953
519249
550637
550207
547788
497290
442727
377659
312436
246267
187864
142464
109227
82735.5
65827
57604.6
53623
58314.8
2.31111e+06
1.49102e+06
933299
804270
965786
1.07364e+06
1.05378e+06
941478
775371
587442
454340
371504
326038
337863
366130
409398
469568
549252
649516
884702
1.4909e+06
653736
527182
592861
913870
1.05035e+06
1.03242e+06
883801
604635
355697
237396
193378
198637
223878
277945
343105
427793
524682
632283
858668
924440
517316
445192
481868
889331
1.04482e+06
1.03117e+06
850711
442859
205248
149680
175431
213911
262893
324584
388648
467203
549364
633248
797137
753987
546600
446986
370843
722808
1.0396e+06
1.07447e+06
938791
438208
149968
191892
234250
279375
323592
366824
400243
427354
451864
479414
546399
907831
852651
828437
644943
155777
414954
446268
470005
490642
502759
511208
519356
532924
545692
560027
589368
1.01152e+06
990094
987184
991381
560074
600673
591923
583795
576468
570839
569927
570342
571579
575116
580426
594921
998498
980793
979740
1.02432e+06
611970
604932
597764
590096
583598
579296
577538
575406
574196
575612
579576
591349
891989
841739
811956
893479
526847
418770
441080
456336
469233
480531
487449
492817
499862
508243
517008
534645
732940
577785
429839
417836
149452
543377
591271
503617
50255.1
91665.6
154152
215600
267262
308101
341520
368334
395108
420611
440856
468110
551615
336424
193109
139037
399846
579523
579752
397855
91993.4
27966.2
40546.9
69232.3
110992
155232
199040
243675
285185
319341
348726
389046
422984
217352
136477
178638
430061
570725
572525
420626
154997
41068.1
20615.1
25449.4
39775.2
65830.9
104020
146945
187594
227748
258321
312006
343520
177310
161868
219557
451969
562389
565329
436757
215834
70516.2
25768.6
21022.9
24045.1
34590.3
55129.2
82471.8
114962
148288
177622
239114
301570
183818
200481
263333
470386
554754
559681
450813
265814
113203
41311.9
24186.9
21832
23383.3
30440.1
44494.2
64124.1
89893.4
118927
177366
312351
208230
248115
305431
482213
549146
556560
462307
304678
158882
69193.2
35674.4
23492.9
20546.5
22826
26911.8
37623.3
57962.8
81545
130773
340203
259515
306782
347207
491008
548192
555373
468835
336805
203543
108908
57561.6
31252.1
22890.1
23420.3
25114.2
31050.7
42982
59871.9
97840.4
382578
322968
367928
380917
498737
548533
553972
473960
363467
248175
153135
86579.5
46756.8
27815.8
25333.9
25845.1
29078.7
34868.1
45356.6
71694.9
441867
406472
442543
409510
511657
549907
553624
481657
390007
289081
194639
120935
68472.3
39892.9
32040.5
29486.8
30300.6
34255.3
38826
57151.1
519780
500645
520154
434530
524234
553633
555942
491430
414685
322644
235493
156810
96812.5
61801.9
44960.9
36024.7
34839.8
36185.9
38060.7
51075.8
617175
603802
600752
461896
538658
559310
560649
500901
434802
352037
267264
188044
127357
86940.1
63042.7
47888.7
40566.3
39317.6
39593.5
48923.9
841001
819060
757169
527035
568343
574499
573831
520161
462829
392751
321415
250345
187883
139022
104266
77566.6
61905.6
55053.9
50886.7
55267.7
2.34153e+06
1.44574e+06
895807
817931
970967
1.0816e+06
1.06173e+06
945553
777528
584474
448878
367621
320825
330048
360343
408146
471703
553127
655621
896645
1.43961e+06
605602
521291
602506
912087
1.05541e+06
1.0401e+06
887421
603407
349595
228177
190225
194825
218626
271429
343644
433620
534385
644283
877153
875100
509623
441456
476155
882861
1.04888e+06
1.03882e+06
854709
440015
197457
145543
173700
215248
263190
321356
388553
467149
555744
648705
819947
750105
554613
456736
366971
701931
1.04815e+06
1.08458e+06
944852
409751
147776
190166
236450
283332
329753
374153
414089
446054
471827
497336
561172
909500
858675
836989
670548
222295
435902
469832
493076
513625
528731
538349
544149
555501
567259
581569
610447
1.01811e+06
998048
995276
992361
596247
636409
626890
618123
609745
601812
599413
599298
600125
602775
606923
619650
1.00545e+06
986539
985096
1.0293e+06
652946
643472
635207
626561
618975
613478
610112
607221
604877
605801
608573
618603
896439
844725
813779
896910
562283
440756
462755
480783
495695
507065
512646
516870
525189
535688
543339
558505
737163
575209
423432
404119
198949
572872
624553
530735
50353.4
88464.7
156852
220491
273444
315248
352354
384985
414290
438471
457525
487565
553864
332950
186983
139622
419939
610539
611817
418523
93736.3
27101.9
38979.9
66155.5
106491
154096
203395
251053
293143
326425
357181
404107
423994
215458
135541
179474
451980
601131
604084
440236
162118
40673.8
18332.8
22088.4
36923.3
64413
102489
145213
184924
223595
261746
321723
342751
176358
163515
223295
472362
592167
596316
458381
224828
70474.1
22955.5
19848.4
23448.8
33261.2
52390.8
78104.3
108003
145686
180816
244690
296072
181920
203789
268549
490779
583641
589859
473986
275899
112939
39504.4
23804.3
22532
22829.8
28341
40565.6
60856.6
90363.9
119614
178584
304258
204633
250225
313572
505136
576414
586150
485685
315069
161417
69127.3
34566.1
23074.3
19277.3
20968
25850.2
37667
57978.7
80470.5
128361
332883
254134
304948
356455
515430
575236
584686
491723
349407
210311
108487
55062
29377.9
21094.6
22305.1
25157.6
30891.8
41636.7
56114.6
92987.4
377950
321728
368156
395278
521809
575843
583127
497067
380658
256359
151849
82786.7
43255.1
26778.3
25246.4
25801.3
28026.1
32110.7
40824.8
67742.1
437771
406942
441818
426864
533541
577572
583005
506884
408503
296788
192690
115133
65680.6
39765.1
31436
28189.3
28193.1
31194
36796
56144.4
514902
502005
523194
452035
546046
580884
584974
518733
431923
330135
232530
155102
97130
61053
43116.5
32999.4
31518.9
34090.4
37523.7
51330.5
612689
605181
607999
476509
560451
585660
588858
527097
451445
360951
271472
191086
126858
84666.4
59018.1
42705.6
37719.8
38145.3
39071.8
49371
840788
823499
764577
535987
588788
599595
600465
543983
482517
407402
330251
254321
187255
135465
98750
72053.1
59030.2
54053.3
50872.2
55376.5
2.36417e+06
1.42487e+06
874702
818020
973609
1.08552e+06
1.06589e+06
946437
775122
579285
442699
362262
317386
324148
356813
407558
474608
558898
663677
908619
1.41686e+06
584206
514223
609411
917321
1.06026e+06
1.0448e+06
889975
600198
343525
220074
186035
192099
215147
265335
341366
435596
540168
652127
889959
852225
501978
433696
483005
889751
1.0535e+06
1.04412e+06
857930
436946
191096
141752
170157
214285
263187
317461
384488
461490
552587
651817
832442
749554
552187
447415
360708
707043
1.0489e+06
1.09149e+06
951195
422774
147665
188316
235387
282296
330746
375623
418148
453780
481770
506520
569312
908102
855136
831863
665447
194506
443652
481167
503506
522613
538478
550692
556542
567181
578732
593296
622912
1.01877e+06
999070
999170
997440
619933
650658
641223
632366
623919
615603
612293
612132
613295
616208
620297
632874
1.00714e+06
990223
989842
1.03715e+06
679795
661578
653197
644717
637505
631522
626936
623946
622217
623325
625595
634625
896029
845870
815234
902759
587136
450371
472752
492102
508681
519741
524672
530075
539803
550811
557540
571997
736620
572025
416718
400440
188221
596653
650777
551846
49760.3
86450.7
158234
222901
274716
317768
357323
394179
424719
447432
465795
499497
552807
329642
183461
142373
430235
627630
630308
430195
94037
26905.7
38229.8
63903.6
104589
153536
206700
256297
296663
330183
362985
414226
422768
212585
134771
181429
465710
617914
622254
452721
166366
40539.9
17904
21746.4
37417.3
65783.2
103564
143996
183006
224525
266314
328329
342168
175305
163713
226088
486402
609127
614844
471455
230843
69822.1
22856.8
18835.5
23063.3
32758.5
50488.3
75686.4
107410
147407
185580
248087
294825
181172
205652
271708
503886
600751
608610
486996
280432
113095
40245.5
23341.3
23311.7
22977.7
28058.4
41118
62899.6
93772.7
122154
179873
301639
204537
253630
318941
517773
592407
603348
497537
320159
162550
70572
33975.4
23314.2
20196.2
21605.1
27231.9
39431
58785.8
79790.4
128992
330310
252566
305994
362084
529184
589807
599950
503495
356554
214613
109833
53179.2
29156.7
21830.3
23230.7
26213.9
31012.6
40867.5
55725.2
93640.9
375721
321666
369242
401966
535177
589766
599082
511414
390935
262292
151115
80369.5
43494.9
28023.8
26239.9
26751.2
28206.7
32980.4
41869.8
69813.3
435864
407693
441086
434928
545792
591296
599585
522867
419392
300854
191188
113970
66725.6
41000.1
31403.8
28269.4
28147.8
31917.8
38302
57326.1
512424
503757
523193
460830
557430
594586
601842
533739
440901
334064
233094
154968
98896.1
61373.4
42199.9
33853.7
32173.3
35188.2
39305.6
52350.6
609319
605666
609923
484044
571286
598901
604846
540454
458783
366464
274295
193578
128200
83477.2
58267.2
43425.7
38914.6
39699.7
40434.4
50707.6
838298
820723
765964
540149
598381
611488
614587
556025
493241
415966
334256
255793
187016
134744
98161.2
72928.6
59128.3
53876.7
51992
57295
2.35996e+06
1.41869e+06
870222
818457
976583
1.08696e+06
1.06675e+06
947284
775184
579575
442531
361398
317811
324116
356674
407304
474992
560673
667013
913706
1.41492e+06
580950
512000
616360
924341
1.06298e+06
1.04579e+06
890668
600438
345294
219777
186223
192555
215448
265368
342043
437243
541851
654249
894658
853839
500132
430956
490806
897882
1.05607e+06
1.04538e+06
858660
436989
191827
142592
170494
214542
264009
319424
387480
465225
556845
655840
836936
755083
553006
443429
361007
721297
1.05009e+06
1.09367e+06
954962
418365
147887
188468
235554
282719
331311
376076
418459
453491
481631
507164
571535
905288
848374
824026
647509
169826
442824
481744
503934
522805
538039
549901
556190
567505
578959
593106
622531
1.01323e+06
991474
991347
993608
622256
650958
642014
633562
624995
616723
613551
613578
614825
617684
621817
634115
1.00601e+06
989397
988838
1.03591e+06
684611
661558
653506
644933
637158
631192
628238
626183
623487
624131
626186
635352
894821
845335
816081
902954
589382
452353
474302
492603
509708
521499
526676
531953
541368
552362
560278
574754
736338
573629
419482
413329
148076
603336
658557
560142
48961.9
89851
162782
227505
279034
321730
360310
395979
427077
450827
469511
502260
552789
330793
183719
139815
429431
630270
633916
431709
91964
26946.7
38844.3
65669.9
107373
156531
209022
258490
298909
333444
366646
417044
422352
212006
134313
179516
465193
621119
626457
453160
163650
39780.8
17929.5
22099.4
38278.4
66978.6
104767
144912
184534
226845
268889
330030
342130
174901
163406
225098
486817
612818
618853
471295
227112
67766.1
22523
18699.7
22995
32779
50469.3
76034.2
108154
148375
186853
249984
295075
181289
205513
270991
505270
604751
612019
488685
277520
110358
39434.3
23111.3
23273.3
22972.6
28147.9
41298.4
63075.6
93975.2
122816
180824
301727
205008
254149
318286
519946
596617
606937
501812
318570
159700
69197.6
33558.2
23217.7
20183.1
21544.3
27099.9
39120.5
58674.1
79712.7
128906
330519
253086
307024
361933
531735
593931
604686
507919
355329
211691
108230
52391.5
28940.8
21723.8
23080.6
26048.2
30818.5
40865.8
55605.7
93359
375913
322101
369849
402582
537759
593926
602971
512400
388872
260122
149513
79249.6
43024.4
27798.7
26059.6
26632
28146.6
32975.6
41648.8
69301.6
436158
407551
440331
436443
548229
595397
602689
521224
418099
299781
189401
112527
66039.6
40614.6
31273.3
28201.2
28072.7
31609.9
38025.4
56694.4
512651
503541
520987
461921
559535
598578
604080
532672
441158
333035
231290
153713
98107.2
61058.8
42093.5
33629.3
31872.2
34926.4
39014.4
51995
609238
605107
607366
484133
573119
602804
607096
541732
459850
364909
272465
192215
127640
83254.6
58013
43209.5
38691.7
39431.5
40054.7
50471.7
837156
817861
761436
538624
600406
615380
617384
558619
492113
413687
332695
255462
186767
134172
97756.9
72605.9
58717.1
53763.9
51837.9
56931.2
2.33683e+06
1.43465e+06
887767
821411
977740
1.08718e+06
1.06434e+06
947088
774813
581285
445617
365678
321193
329981
360742
408625
473097
557152
662719
907975
1.43286e+06
596442
513171
621149
927979
1.06286e+06
1.04217e+06
888640
598675
346211
224147
189222
194466
218504
271358
345213
437260
539430
651560
890887
873752
501372
431419
497180
901616
1.0552e+06
1.04156e+06
855446
435596
194257
143943
171506
214915
264511
323807
393526
474499
566120
661975
838345
754027
549058
442553
364849
729526
1.04837e+06
1.09142e+06
953043
419057
148151
189622
236122
284062
332027
377032
418556
451984
479493
506000
572200
902475
845620
822178
647412
173131
439436
476075
498163
517607
532812
543318
549514
561329
573973
589329
619955
1.01121e+06
990038
989107
994286
617559
641514
632303
623221
614297
606089
604409
604642
606002
609133
613696
627096
1.00236e+06
986039
985351
1.03435e+06
677872
649340
641180
632842
625593
620321
617560
615410
613613
614733
617660
627779
891883
841661
811536
902229
583166
446376
467869
486171
501507
512834
518826
524055
533676
545385
553325
568435
733353
570236
416386
396203
167122
595779
651635
555243
48326.2
92545.3
163016
227552
280559
321972
358644
392254
421952
446653
466558
497477
550408
330147
184879
143024
421890
615773
619712
422248
89071.1
26666.4
39520.2
68441.5
110060
158386
208426
255963
298149
332702
364112
412071
421041
212255
135372
181967
457579
606840
612235
444235
157264
39436
18053.8
22189.2
37568.4
65756.3
104143
146983
187725
226795
266319
327537
342544
175323
163880
226756
479048
598844
604632
462736
220233
67709.6
22241.9
19301.6
23048.8
32968.7
52215.2
78584.2
109140
147433
183693
248101
296666
182299
205301
272400
496598
590925
598143
478534
272104
108770
37781
23052.1
22383.9
22710
28324.1
40791.1
61250.2
91141.2
120297
179733
304299
206066
254392
318221
510318
583305
593721
490742
312563
156746
66216.8
33361.1
22811.1
19088.3
20695.9
25532.7
37141.3
57263.4
79796.1
128148
332913
255239
309052
360155
521123
581749
591744
497336
348573
206215
105175
53322.6
28883.4
20790.7
21981.7
24752.4
30255
41038.2
55609.2
92677.8
378675
323653
372762
398925
527571
582019
590161
502570
380935
253571
148612
80536.6
42291.1
26160.7
24767.3
25324.8
27619.4
31862.9
40423.5
67015.5
439118
410166
445241
431424
538883
583568
589438
511638
409880
295240
189412
112284
63933.5
38681.2
30855.9
27813.3
27878
30713
36375
55516.2
516061
506768
525897
457477
550861
586787
590834
522889
433645
328410
229009
151585
94942.7
59958.2
42684.8
32734.9
31040.4
33618.9
37116.3
51570.5
613236
609501
611305
482032
564976
591258
594362
531203
452829
359387
267974
188142
125288
83739.4
58511.8
42402.6
37257
37726.4
38745.2
49419.4
839478
824445
767582
540857
592972
604733
605579
548016
483993
406877
328869
253199
186133
134148
97904.9
71165.7
58240.9
54002.8
50874
55197.5
2.30566e+06
1.47468e+06
925291
817866
975425
1.08348e+06
1.05872e+06
945181
772311
583614
450133
368429
325666
337469
365534
409066
469830
551591
654257
894490
1.47781e+06
642268
522926
613859
927718
1.06056e+06
1.03669e+06
886369
599316
350149
231218
190510
195624
221948
276627
344998
431315
529925
639726
872732
915317
510696
440182
497563
903418
1.053e+06
1.03615e+06
852400
438698
200522
145293
171254
211485
261743
326488
394409
476499
563318
650965
821762
746921
541280
443887
371654
734672
1.04755e+06
1.08633e+06
947388
422721
148536
190226
233698
280756
326693
371141
406587
435104
460814
489290
558856
901810
845906
822047
642895
179180
425315
458423
481909
502346
514417
522282
529622
542555
555093
569546
599702
1.00902e+06
988512
987036
991014
600072
615562
606847
597470
588998
582430
581098
581051
581581
584262
588778
602631
995493
980606
980879
1.02952e+06
656641
621242
613200
605028
598202
593728
591338
588832
586100
586849
590029
600932
887863
839060
809442
896453
564723
426860
449929
466482
480755
492434
499022
503801
510923
519907
528666
545272
728621
572000
422359
412378
151045
575046
627146
533793
50557.3
91229.2
155818
219025
272613
314711
349056
376955
404541
430653
451321
478212
548185
333066
189711
141036
407823
592137
593855
407801
93443.2
27788.5
40381.4
69520.8
112000
157538
202621
248447
291502
326645
356600
397345
420452
214080
135698
180948
440702
583599
586437
430208
156699
41105.3
20105.6
24853.6
39376
65793.2
104629
149084
190933
231813
263566
318416
342089
175380
162414
223360
463230
575192
579072
445994
217705
70596.3
25070.2
20678.9
23771.2
34454.3
55365.2
83159.3
116073
150567
180557
243320
300143
183494
203072
268735
480617
567527
572980
459941
268632
112987
40080.4
23694.8
22090.3
23612.2
30566.3
44510.9
64260.1
90359.6
119553
179698
309988
209149
253090
310996
492091
561430
569272
471575
308216
158386
67210.6
34747.6
23600.8
20172.5
22323.7
26406.5
36899.5
57202.7
81343.3
131736
338153
260966
312188
351941
501199
560087
567682
478458
340783
203250
106671
56418.7
31065.1
22378.4
22943.6
24708.5
30543.9
42604.2
59549.4
98211.6
381534
325863
374610
387164
509126
560266
565911
483434
367812
248387
151506
85306.8
46041.3
27083.6
24815.1
25387.8
28860.4
34659.2
45109.6
71534.1
441879
410896
448262
417730
522269
561628
564788
490574
394688
290362
193806
119569
67229.2
38630.1
31384
29219.9
30076.9
33998.9
38662.3
56983.8
520234
505759
524996
443856
534767
565254
566407
499847
420227
324945
234900
155190
94917.2
60313.5
44560.4
35825.1
34477.6
35901
37785.1
51370.5
618213
608287
605276
470927
548937
570849
570534
509507
440766
354067
266489
186359
125607
85862.9
62657.8
47507.5
40110.2
38855.4
39227.5
49156.3
842870
822379
758885
533783
577742
585512
583259
528354
468299
394547
321385
249650
187016
138149
103590
76647.3
61030.7
54762.8
50864.2
55278.7
2.25424e+06
1.51527e+06
966817
806268
966768
1.07101e+06
1.04825e+06
939154
770522
585254
452558
370935
331412
344106
368531
409342
468588
549677
650044
885793
1.52512e+06
701107
535640
594589
917300
1.04762e+06
1.02564e+06
880816
603541
357017
237223
190878
198042
227049
277862
342951
424871
519879
625198
848682
959160
521289
454252
488301
897371
1.04139e+06
1.02476e+06
847701
448989
208738
146085
169117
208757
261347
325321
392479
472086
550220
628531
794984
739614
532276
443633
383972
741163
1.04738e+06
1.07937e+06
941807
443068
148084
186225
227064
271585
314140
353757
382677
410077
437018
468646
541547
896481
841945
820645
642614
156737
402433
433089
457392
474865
482877
490931
500771
514891
527375
541849
572972
1.00096e+06
981852
982493
990870
566514
580092
570420
560524
552518
547166
545814
545624
546600
550246
555945
570484
982709
968467
970152
1.02403e+06
618753
583946
575477
567347
560320
555899
553696
550791
549415
551061
555519
567274
878918
831066
802410
891428
531192
405898
427595
441308
452856
461930
468006
473106
479572
487690
497348
513721
719748
566794
422743
398156
178615
550926
599406
510254
48752.6
90072.1
149966
210358
261406
301311
330776
356399
383394
408459
427597
452224
542848
332569
193625
143548
393316
564885
564990
390946
93447
29619.2
42178
70628.3
111387
153402
196950
241180
281023
315345
341460
379230
418576
215345
135754
180323
425281
555387
556799
411975
154796
43060.3
23022.3
26970.8
41132.9
68520
107700
149862
191343
229081
256586
308740
343403
177394
162354
221245
447260
546106
549285
426286
214403
73067.6
27203.8
20416.5
24495.8
36184.6
57684.6
86348.1
118391
149633
178813
238804
306397
187391
204587
265428
461001
538964
543181
438972
263189
115379
42609.5
24345.6
21887.7
24184.1
32481.3
46497.5
65896
91695.4
121431
179145
316744
214700
255953
304954
469905
533721
539808
448861
300782
158475
71609.9
36761.3
24123.5
21928.5
23702.4
27344.5
38584.1
59319.4
84435
134887
341980
264208
316803
342850
479338
532328
538184
454880
329096
202176
111597
59186.3
32834.7
23802.8
23981.7
25865.1
32462.6
45458.2
64410
102135
383287
326891
378524
372920
489167
532428
536275
459696
353858
245153
153871
88977.2
48104.7
28117.5
26268.4
27002.3
30991.6
38817.7
49232.5
75220.9
443242
408336
449968
401624
502650
534074
535687
466156
379361
283520
195465
122399
69085.1
40313.9
33701.5
31631.8
33178.8
36992.1
40765.7
59443.7
522541
499901
519094
428306
514215
538363
538046
474571
403416
316901
233340
155108
96649.9
62355.8
47530.9
40481.2
37886
38033.8
39485.9
52874.1
620391
599973
591849
457195
527620
544256
542904
485015
421573
341708
260846
185219
127519
88620.5
67537.1
52504.4
43058.2
40932.4
41537
51139.4
844353
809731
741536
522279
556061
558368
555133
503085
446237
378605
311921
244655
185909
140734
107903
81472.6
64672.8
56801.9
53028.5
57680.5
2.26392e+06
1.59321e+06
1.0129e+06
801580
952605
1.05568e+06
1.03643e+06
929235
770588
588438
458326
378745
341399
355035
380157
420391
479010
560189
662439
903149
1.60541e+06
753457
548658
580019
899005
1.02801e+06
1.0097e+06
868563
605440
364400
243519
196448
205526
237246
290817
357602
438031
530748
635998
863540
1.00765e+06
531725
469266
477862
877802
1.01794e+06
1.00518e+06
834561
452609
216306
150654
173552
214934
270051
337030
410501
489473
561411
636235
808407
746480
528584
442583
386407
730015
1.02182e+06
1.05411e+06
923343
442935
149323
186805
229054
273560
314452
351259
378397
408659
439576
475184
553210
888800
831714
810732
636112
156695
386581
418867
445239
462253
470643
480471
492109
507326
521351
537543
572542
993126
970265
964628
979317
533360
554109
547166
539943
535038
532169
531885
532952
535642
541124
548048
564412
974682
955320
952361
1.00242e+06
581290
557406
552288
547262
542536
539607
537674
536970
537966
541462
546921
559429
871738
818530
786135
874933
502318
389431
412695
427598
439358
447241
454974
463122
471189
479206
488048
504885
717599
560191
411383
390258
170583
521234
566364
481237
50029.2
85520.6
145352
204482
255279
295462
326286
353841
378848
399893
418569
447269
542945
333427
196129
145337
377666
536446
536454
373891
93161.4
30076.4
42247.4
70591.3
112307
156438
201613
242182
277197
311419
339179
382190
422243
219162
139362
182139
409371
527527
529733
395663
153738
43380.5
24916.6
28986.9
45736
75141.4
112245
150811
192247
231225
262855
316034
351507
183292
167013
223877
431798
519758
524188
409976
210861
74176.6
29153.8
21173.5
25867
37216.6
58549.1
87919.6
121848
157131
189189
244910
318599
195264
211065
267995
444493
514984
519547
421507
257442
117713
47196.4
25580.5
21791
23771.5
32785.8
48820.7
72180.5
101452
129329
183659
329897
225680
264233
305057
453447
511834
517330
429656
294282
162293
78403
37737.6
23561.9
24225.5
26016.3
31121.4
44984.2
65304.1
89549
140036
355007
276933
328209
340161
464194
511696
516586
437171
323415
206802
116501
59888.5
32795.6
26128.2
26837.5
29517.1
36143.1
49005.8
68309.1
108652
395662
341289
394668
368664
475595
513262
517059
445161
349479
246206
155051
90233
49839.7
31819.5
30095.3
30466
34093.1
42516.6
54015.7
83993.9
455000
420516
464596
399328
490110
516980
518737
453865
373175
279863
196048
125371
74494.3
46304.2
37646.9
34841.3
36603.5
41506
47001.1
68371.2
534350
509646
528580
428975
503191
523635
523419
462877
394010
312780
235308
162255
105634
68327.3
51207.1
44364.8
42533.7
43299.9
45939
59207.9
634345
609679
598385
460919
518611
531436
529851
472970
411650
339313
266481
194882
135391
93762.6
71604.2
57572.3
49953.2
47189
47482
55989.2
865706
824794
753089
529933
551302
548583
544070
492484
440490
380759
318069
250588
190721
146110
114755
90688
74315.1
63373.1
57965
62728.3
924734
558653
931675
703807
939641
645146
941723
1.03301e+06
999638
1.03531e+06
1.01288e+06
1.04209e+06
1.00802e+06
1.04445e+06
981468
1.03191e+06
977879
1.04204e+06
988819
1.04071e+06
985067
673467
911097
581919
914066
684945
920659
590062
570426
894002
899776
651155
560669
899952
906063
249284
505649
492543
160964
251755
503944
492142
961488
1.00489e+06
1.00581e+06
974940
973068
1.00573e+06
1.01013e+06
551402
595336
596366
545027
550534
593705
596382
998295
946384
937461
1.00326e+06
1.0023e+06
950183
944570
594309
554450
556151
592229
594311
553755
555468
882970
633000
504676
876595
883118
650978
570890
507439
168132
244349
511107
507090
174239
245728
464972
236444
454320
150905
475718
236917
462429
550230
510620
551034
514945
561062
520215
561370
507137
549094
509746
558929
516852
559255
518625
171829
460019
228478
475232
179384
467548
237679
954014
672787
948882
731793
970451
664565
965133
1.05397e+06
1.01474e+06
1.05105e+06
1.03607e+06
1.06931e+06
1.03218e+06
1.0681e+06
997037
1.04735e+06
990677
1.07072e+06
1.01227e+06
1.06525e+06
1.00663e+06
690949
926580
601126
934514
691823
940628
580068
551940
909213
911466
644698
543753
920028
922456