/*--------------------------------*- C++ -*----------------------------------*\
  =========                 |
  \\      /  F ield         | OpenFOAM: The Open Source CFD Toolbox
   \\    /   O peration     | Website:  https://openfoam.org
    \\  /    A nd           | Version:  9
     \\/     M anipulation  |
\*---------------------------------------------------------------------------*/
FoamFile
{
    format      ascii;
    class       volVectorField;
    location    "0.01";
    object      rhoU;
}
// * * * * * * * * * * * * * * * * * * * * * * * * * * * * * * * * * * * * * //

dimensions      [1 -2 -1 0 0 0 0];

internalField   nonuniform List<vector> 
9720
(
(-594.144 -600.186 57.331)
(-337.179 -565.052 31.3998)
(-341.894 -558.662 -1.64814)
(-288.847 -507.011 -6.83031)
(-196.997 -660.294 -4.04815)
(-60.5508 -744.223 -7.87728)
(62.0495 -731.278 -5.09019)
(197.798 -648.496 -1.85237)
(284.229 -508.892 -2.27287)
(291.203 -352.268 -2.23305)
(273.345 -240.75 1.80274)
(248.253 -170.598 0.30312)
(236.072 -130.516 2.95059)
(253.264 -114.772 3.72189)
(276.462 -104.126 4.31319)
(308.853 -96.6513 2.28625)
(351.459 -97.0645 3.9776)
(406.242 -102.476 7.7722)
(475.088 -105.07 11.9594)
(625.689 -118.515 16.5114)
(-550.69 -340.769 39.2528)
(-378.864 -375.95 1.16672)
(-281.129 -323.426 -4.99655)
(-228.759 -377.083 -9.22439)
(-206.896 -616.957 -3.6218)
(-62.5891 -727.078 -7.45087)
(64.6369 -716.161 -5.79748)
(204.729 -609.051 -1.04344)
(268.424 -389.69 1.09591)
(222.054 -195.617 -5.11149)
(171.671 -101.816 0.540471)
(146.703 -66.0559 1.55606)
(157.544 -54.0632 2.39507)
(178.697 -55.0185 1.67689)
(216.087 -59.8794 0.883593)
(263.679 -61.6941 2.00828)
(319.744 -67.6788 3.55258)
(382.282 -73.6488 4.53128)
(452.837 -71.7409 5.31948)
(604.5 -64.834 8.39845)
(-555.988 -333.322 12.568)
(-321.796 -278.008 2.36966)
(-268.34 -266.107 -3.56666)
(-220.903 -297.779 -10.2495)
(-213.886 -601.681 -5.46576)
(-70.6894 -718.367 -6.51229)
(70.8787 -711.799 -5.61803)
(213.477 -581.345 -2.46518)
(231.624 -278.378 2.02253)
(150.492 -97.0312 -4.83877)
(112.904 -47.6909 -1.46705)
(131.419 -44.0801 0.190541)
(157.716 -49.5561 1.93843)
(192.057 -55.9815 2.06372)
(233.744 -63.0835 -0.862952)
(281.054 -66.8707 -2.65438)
(331.186 -72.2107 -2.17432)
(378.329 -75.2705 0.441105)
(426.292 -76.1731 1.22423)
(539.441 -74.0205 1.72618)
(-497.985 -281.293 6.21034)
(-368.5 -221.725 6.47229)
(-294.045 -216.292 7.83781)
(-227.978 -217.911 -9.25451)
(-239.21 -456.799 -8.13181)
(-125.384 -717.016 -4.48823)
(28.4695 -735.83 -4.48457)
(178.494 -640.519 -2.86641)
(218.454 -273.091 -3.683)
(106.207 -43.8432 -0.361075)
(129.998 -45.7539 -0.919646)
(157.631 -49.0485 -0.846509)
(186.288 -55.6362 -0.960438)
(212.627 -61.5969 -0.632489)
(237.262 -65.8281 -0.303212)
(257.052 -68.4326 -0.30363)
(277.234 -70.1697 -0.305753)
(298.123 -71.2899 0.0110527)
(319.884 -72.4168 0.0258602)
(370.892 -72.6231 0.128097)
(-639.215 -190.299 -6.11008)
(-596.252 -200.113 -5.33341)
(-581.021 -205.571 -1.00637)
(-457.382 -229.526 1.37223)
(106.348 -37.5987 -1.06478)
(267.278 -50.0982 0.199187)
(287.77 -53.4537 0.444499)
(304.241 -54.8595 0.26002)
(315.103 -54.37 0.223789)
(321.342 -52.489 0.117906)
(327.708 -50.6719 -0.38294)
(335.205 -49.1198 -0.672769)
(344.684 -47.9236 -0.295169)
(353.815 -46.7483 0.248983)
(363.645 -45.4243 -0.0375116)
(385.938 -44.1504 -0.44132)
(-720.509 -59.2074 -4.87643)
(-705.002 -60.7737 -5.20424)
(-697.916 -68.1842 -5.78139)
(-692.037 -120.809 -5.04888)
(371.127 -31.5059 -0.602685)
(385.008 -17.5832 0.175244)
(379.991 -16.9671 -0.0542313)
(375.19 -16.6936 -0.258059)
(371.665 -16.3559 -0.540388)
(369.807 -16.0302 -0.663234)
(369.872 -15.7363 -0.669316)
(370.858 -15.2635 -0.588574)
(373.025 -15.0301 -0.773709)
(376.912 -14.5289 -1.07027)
(381.66 -14.5803 -1.06098)
(392.442 -14.2341 -0.803685)
(-704.693 59.689 -5.88642)
(-691.878 61.7843 -6.47255)
(-688.015 68.0853 -5.96745)
(-715.235 27.1255 -5.77315)
(404.265 4.48274 -0.426105)
(387.314 17.5049 0.364129)
(383.533 16.6273 0.393105)
(380.064 15.9452 0.344068)
(376.907 15.367 -0.0644753)
(374.769 14.785 -0.460513)
(373.12 14.3501 -0.422397)
(372.507 13.9821 -0.192034)
(373.106 13.5854 -0.0947157)
(375.319 13.4278 -0.291797)
(378.551 13.4636 -0.458878)
(386.414 14.0502 -0.441059)
(-624.816 190.57 -1.98098)
(-586.53 197.673 -1.55782)
(-558.878 205.992 -3.17145)
(-618.606 170.945 -4.30226)
(347.423 40.246 -0.508907)
(267.262 49.3312 1.05762)
(282.221 50.4395 1.21242)
(291.787 50.4642 -0.529001)
(299.713 49.4455 -1.82014)
(305.475 48.7257 -0.862226)
(310.887 47.3489 1.1519)
(316.471 46.2904 1.45981)
(321.872 45.5125 -0.115714)
(327.658 44.055 -1.80348)
(333.715 43.5645 -1.13819)
(345.325 42.6867 -0.367808)
(-486.588 272.547 -3.78285)
(-368.684 256.392 -0.607308)
(-259.318 218.949 -0.218219)
(-240.363 199.229 -6.41849)
(-36.899 115.941 0.0296223)
(-30.3409 347.593 -2.83735)
(4.89169 379.181 -2.53853)
(39.5754 321.427 -2.0175)
(21.2615 24.2357 -1.34221)
(54.5387 25.9981 0.296513)
(95.1508 36.5793 -2.21558)
(134.593 47.2038 -1.24522)
(168.654 54.2545 1.4949)
(196.303 58.6304 2.85048)
(217.359 61.1662 1.27671)
(236.179 61.8573 -2.1399)
(253.246 62.2922 -3.45319)
(267.655 62.7611 -1.37411)
(280.046 62.1516 1.27452)
(299.809 62.0113 0.826407)
(-333.64 277.341 -4.47835)
(-182.144 209.676 -6.60824)
(-89.5003 141.492 -6.27623)
(-42.3391 103.165 -1.80252)
(-48.8002 253.815 -1.8942)
(-16.6035 364.129 -2.17417)
(17.6815 364.436 -2.35232)
(48.9798 251.584 -0.78286)
(26.5218 59.376 0.406448)
(14.4332 15.1261 -1.38618)
(24.509 16.8142 -0.415378)
(43.7405 24.0794 1.66847)
(70.7955 34.7854 2.03419)
(99.9007 44.6007 -0.0379306)
(129.841 52.7338 -3.0318)
(157.214 59.3001 -3.64191)
(180.869 64.1273 -0.884005)
(203.807 66.7043 3.06062)
(221.722 69.6534 2.45606)
(250.846 72.485 0.260163)
(-227.655 258.9 -1.16177)
(-94.3306 160.865 -0.690544)
(-44.6279 107.497 -2.1745)
(-43.4028 125.941 -2.31709)
(-51.9926 274.527 -1.48086)
(-15.9592 358.405 -2.43841)
(16.6995 360.144 -2.21461)
(49.4748 266.111 -0.419481)
(37.7486 100.131 -2.4959)
(16.4701 25.7603 -0.618705)
(12.4838 12.8451 1.11908)
(16.6233 13.0045 0.929007)
(27.0419 18.0525 -0.529627)
(45.3448 27.0526 -2.13472)
(68.8238 37.6944 -2.38553)
(94.0269 47.3685 -0.0625168)
(120.658 55.9347 3.22035)
(145.944 63.3479 3.42147)
(167.181 68.6626 -0.425438)
(203.145 75.0226 -1.8264)
(-162.473 236.824 -3.47447)
(-63.1907 140.802 -1.4129)
(-44.5443 126.295 -0.587135)
(-47.8864 152.062 -1.55771)
(-52.75 288.623 -1.95409)
(-15.4938 353.313 -2.44921)
(15.8879 356.469 -1.90858)
(49.1344 275.423 -1.99625)
(48.0957 138.009 -2.30086)
(24.6844 46.5941 1.20232)
(12.7798 17.1207 0.866783)
(10.9768 11.199 -0.425807)
(14.2749 11.93 -1.22495)
(21.3073 15.899 -0.99768)
(34.2909 23.4244 0.261913)
(52.6087 32.9192 2.06662)
(73.6394 42.8904 2.3514)
(96.6964 51.7936 -0.340678)
(118.396 58.9989 -2.78305)
(154.82 69.9253 -1.58903)
(-125.676 227.019 -0.542476)
(-53.4536 152.814 -0.854862)
(-50.4208 153.867 -0.218928)
(-54.8624 179.158 -1.83795)
(-51.4971 296.336 -2.02377)
(-15.0339 350.159 -2.50523)
(15.2457 353.571 -2.19366)
(47.9669 283.048 -3.08735)
(54.4697 169.1 0.260099)
(35.9172 74.6711 1.74598)
(18.4672 28.4435 -0.53614)
(11.7295 14.4915 -1.20851)
(11.1926 11.3806 -0.706356)
(13.018 11.3203 0.342904)
(18.3434 14.57 1.10737)
(27.8734 20.8337 1.12118)
(41.9328 29.1198 -0.313502)
(60.8195 38.3443 -2.41819)
(78.3075 47.2561 -1.95874)
(112.617 60.6662 0.237946)
(-110.37 243.173 0.381648)
(-54.0948 174.499 -1.2558)
(-53.7371 188.713 -0.442002)
(-59.7446 203.64 -2.18624)
(-49.6518 302.173 -1.83991)
(-14.7078 348.362 -2.54409)
(14.6392 352.029 -2.70137)
(47.0976 288.722 -2.02831)
(57.8471 193.878 2.02153)
(45.6798 103.542 -0.0955601)
(28.0051 47.847 -2.31357)
(16.0737 22.0541 -1.06069)
(11.0886 13.1298 0.3334)
(12.3536 12.4934 1.08435)
(13.914 12.5463 0.767295)
(17.3159 14.2892 -0.213123)
(25.5176 19.8082 -1.33883)
(37.8408 27.7841 -1.5874)
(51.7222 36.4413 0.195239)
(82.3366 51.6041 1.43082)
(-100.293 265.303 0.818663)
(-58.5008 210.181 -2.13032)
(-60.1031 229.51 -3.0761)
(-63.5322 226.392 -2.2408)
(-48.0496 309.163 -2.04063)
(-14.4945 348.519 -2.58315)
(14.1605 351.352 -2.72155)
(45.5756 294.127 -0.0651732)
(59.9364 213.082 0.673688)
(53.4327 132.693 -3.30172)
(38.8676 72.0294 -2.8228)
(23.9349 35.6273 0.117661)
(14.5074 18.5975 1.13159)
(12.4385 14.0899 0.833711)
(13.4853 13.6617 -0.176908)
(15.6414 14.3071 -1.06654)
(19.7442 16.9453 -1.04884)
(27.1428 22.0759 0.0231208)
(37.6156 29.5682 1.22411)
(61.4077 43.6917 1.09762)
(-93.3893 296.559 -1.03877)
(-60.2714 255.534 -1.10337)
(-64.7416 273.761 -4.41477)
(-65.7867 245.847 -2.15285)
(-46.6683 317.218 -2.00871)
(-14.1412 349.762 -2.68987)
(13.8066 351.683 -2.37035)
(44.5237 299.751 0.0980403)
(60.5208 230.622 -2.76261)
(59.5885 159.143 -4.23018)
(48.5086 97.2931 -0.565026)
(33.7367 54.5875 2.01498)
(21.1055 28.6837 1.27057)
(14.37 17.7412 -0.095479)
(14.2819 16.0544 -1.00986)
(15.466 15.756 -0.989128)
(17.975 16.9116 -0.0691544)
(22.7609 19.8944 1.03066)
(28.9604 24.7294 0.930744)
(46.403 36.0803 0.0454649)
(-94.2199 338.194 -0.657995)
(-66.047 308.962 -0.34259)
(-70.556 318.922 -3.70986)
(-67.5328 266.361 -1.94368)
(-45.4526 326.716 -1.52312)
(-13.9685 352.575 -3.03516)
(13.2887 352.914 -2.02462)
(43.6751 305.645 -1.59505)
(60.734 246.941 -4.26081)
(64.1346 181.913 -1.65665)
(56.6798 123.727 2.82907)
(43.9126 76.3306 2.43133)
(29.7963 43.4447 -0.0699408)
(20.0187 26.1594 -1.27153)
(17.2657 20.4269 -1.03786)
(17.0073 18.4615 -0.0734917)
(18.4751 18.5844 0.88975)
(21.4946 20.1064 0.989746)
(24.8519 22.3342 0.0636612)
(37.0399 31.0774 -0.520432)
(-99.9041 391.464 2.11802)
(-71.9933 368.48 0.184001)
(-73.2483 362.719 -1.28302)
(-68.7645 287.33 -1.52777)
(-44.2354 335.876 -1.13532)
(-13.5459 357.282 -3.28809)
(13.1328 355.99 -2.15178)
(42.2158 312.082 -3.11287)
(61.0284 261.356 -2.23143)
(66.3444 204.036 2.19679)
(63.8625 148.919 3.04565)
(53.253 100.085 -0.250809)
(39.5538 63.2085 -2.39903)
(28.5487 39.2018 -1.69885)
(22.6864 28.1839 -0.0679726)
(20.5404 23.695 1.1564)
(20.3313 22.107 1.11267)
(21.5612 21.9248 0.292248)
(23.8037 22.8704 -0.56283)
(31.2334 28.2892 -0.291654)
(-102.535 458.235 5.99206)
(-70.8288 435.419 1.12285)
(-74.001 409.091 -0.610569)
(-69.8507 308.915 -1.58488)
(-42.913 345.945 -1.77558)
(-13.7154 362.718 -3.26283)
(13.2797 359.875 -2.37105)
(41.8355 318.851 -2.38854)
(60.2705 273.174 0.153619)
(68.9754 221.126 1.55119)
(69.0984 169.728 -0.757402)
(60.5306 121.998 -2.91294)
(49.0175 81.7785 -2.18106)
(37.6282 53.9822 -0.0089645)
(30.4556 39.3687 1.37386)
(25.9912 30.7861 1.24233)
(23.3754 26.3865 0.318151)
(23.1159 24.5434 -0.482552)
(24.1493 24.1843 -0.399809)
(28.8729 27.1527 0.436229)
(-115.648 603.743 10.1469)
(-65.5841 579.828 3.66882)
(-71.508 518.586 -0.365253)
(-69.6202 359.326 -1.63276)
(-42.0086 369.331 -2.37092)
(-13.4034 374.562 -3.07983)
(13.8679 369.134 -2.42122)
(41.0934 332.083 -1.63117)
(60.0611 292.86 -0.454548)
(71.4881 249.237 -0.662958)
(75.0854 204.724 -2.35789)
(71.3545 158.697 -2.0452)
(62.7497 117.193 -0.182244)
(53.3439 86.0644 1.37374)
(45.7207 64.8295 1.46456)
(38.545 50.0226 0.546477)
(33.3528 40.2854 -0.265206)
(30.2352 33.5926 -0.225151)
(28.2172 29.987 0.543126)
(31.0564 31.0586 0.993573)
(-585.683 -594.099 71.6325)
(-321.907 -556.846 70.9211)
(-339.071 -548.119 16.5166)
(-287.461 -512.721 -2.0752)
(-196.319 -674.803 -6.74096)
(-59.7313 -759.553 -6.91008)
(63.2626 -744.492 -4.55518)
(199.647 -659.965 -2.45649)
(284.878 -512.982 0.349593)
(290.156 -353.922 -0.878711)
(270.567 -239.816 4.14074)
(243.891 -168.443 2.88153)
(229.564 -127.413 5.78443)
(246.047 -111.672 7.37619)
(268.005 -101.018 8.93243)
(299.88 -93.8377 6.43321)
(342.294 -94.2048 8.14292)
(396.644 -99.7074 11.6001)
(463.91 -101.981 17.3223)
(611.482 -114.703 23.3357)
(-536.965 -327.43 77.0343)
(-359.765 -360.777 20.823)
(-273.209 -322.646 -1.67272)
(-228.972 -385.734 -3.91499)
(-205.023 -637.362 -5.33448)
(-62.1831 -745.392 -6.76672)
(66.2953 -732.345 -5.30613)
(206.425 -621.854 -2.26005)
(266.975 -391.597 5.2225)
(217.822 -193.968 -2.41434)
(168.01 -100.136 1.77293)
(142.734 -64.6053 2.97791)
(152.439 -52.3247 4.61095)
(171.483 -52.7143 4.87845)
(206.127 -56.9405 5.94098)
(251.408 -58.456 7.23135)
(307.399 -64.1434 8.12311)
(370.064 -70.6191 8.72992)
(439.444 -69.1992 10.6841)
(587.32 -62.0919 16.3256)
(-540.145 -331.602 30.6141)
(-315.585 -273.323 4.72134)
(-258.805 -262.654 2.13365)
(-218.152 -308.53 -0.933918)
(-211.167 -625.603 -4.89468)
(-69.9114 -739.377 -6.28243)
(71.6001 -731.423 -4.65789)
(214.375 -595.656 -2.80983)
(228.33 -278.906 6.17869)
(145.58 -94.6679 -1.07324)
(109.87 -46.1812 0.640855)
(127.962 -42.0784 1.79576)
(152.612 -47.551 3.40922)
(184.089 -54.4281 4.18413)
(222.224 -61.2107 3.29239)
(265.313 -64.5572 2.7897)
(314.886 -69.1061 3.00355)
(363.882 -72.189 4.41466)
(412.232 -73.5462 5.22384)
(520.217 -71.7252 8.13881)
(-496.575 -280.47 10.8273)
(-368.911 -222.792 7.07649)
(-288.467 -215.006 9.23912)
(-216.173 -223.593 -6.19658)
(-238.831 -499.46 -4.93611)
(-124.163 -729.103 -3.21554)
(28.6568 -754.068 -3.94798)
(177.239 -654.34 -1.74758)
(218.934 -284.559 2.80822)
(104.339 -42.3271 1.13203)
(127.232 -44.4568 1.20302)
(153.313 -47.2962 1.77487)
(181.113 -53.1964 1.41407)
(207.344 -59.2111 1.213)
(232.037 -63.4982 1.58842)
(251.381 -66.3592 1.92343)
(269.584 -67.8849 2.31844)
(288.177 -68.7613 3.12582)
(307.852 -69.7085 3.46127)
(355.599 -70.3731 4.54278)
(-643.794 -191.318 -4.49204)
(-601.925 -200.914 -3.20116)
(-587.122 -205.221 0.0924418)
(-448.77 -227.213 2.98533)
(108.909 -38.0393 0.677187)
(267.705 -49.1978 1.36517)
(286.082 -52.2451 1.87812)
(300.9 -53.5145 1.96393)
(311.792 -53.2111 1.92673)
(317.592 -51.3881 2.01296)
(322.939 -49.4566 1.82027)
(329.392 -47.8243 1.60262)
(338.254 -46.6433 2.00321)
(346.737 -45.5827 2.7292)
(355.693 -44.3609 2.65527)
(375.721 -42.9938 2.86453)
(-726.795 -59.0726 -2.70108)
(-713.859 -60.9112 -3.38874)
(-710.352 -67.4042 -3.9482)
(-708.65 -119.235 -3.18623)
(368.334 -30.6507 1.24234)
(386.065 -17.3571 1.45546)
(380.114 -16.6452 1.32341)
(374.235 -16.2305 1.39269)
(369.745 -15.9234 1.47476)
(366.654 -15.6385 1.58923)
(366.242 -15.394 1.67774)
(366.553 -14.8043 1.84133)
(367.858 -14.5431 1.77298)
(370.865 -14.036 1.56618)
(374.989 -14.066 1.69197)
(384.88 -13.8112 2.18987)
(-711.95 59.1963 -3.66561)
(-702.457 61.6664 -4.20186)
(-701.709 68.0759 -3.25575)
(-728.841 26.9134 -3.27393)
(401.521 4.44885 1.48976)
(388.734 17.2963 1.62856)
(383.733 16.5074 1.86283)
(378.914 15.7609 2.19222)
(374.783 15.106 2.12858)
(371.881 14.482 1.8943)
(370.153 14.0453 1.92565)
(368.244 13.7678 2.15857)
(367.926 13.4062 2.48054)
(369.238 13.1303 2.50479)
(372.072 13.1412 2.40354)
(379.591 13.5977 2.44731)
(-631.261 189.933 -1.29156)
(-595.726 197.198 -1.98991)
(-570.585 205.232 -2.3011)
(-630.548 168.669 -1.90792)
(344.773 39.1946 1.37082)
(266.713 48.3561 1.86552)
(280.917 49.3843 2.82573)
(289.637 49.4878 1.70658)
(297.361 48.4178 0.141882)
(303.624 47.6497 0.570704)
(308.096 46.5524 2.55756)
(311.882 45.0867 3.69511)
(316.002 44.2909 2.80758)
(321.511 42.9274 0.983546)
(328.05 42.3211 1.10004)
(339.403 41.615 2.07534)
(-488.918 271.137 -0.844418)
(-371.546 254.49 2.54351)
(-261.756 216.472 2.73523)
(-253.54 201.667 0.965603)
(-44.3679 126.951 -0.0432605)
(-29.8644 353.656 -1.92173)
(4.96841 385.546 -1.55529)
(39.3289 325.817 -1.42725)
(21.683 25.8052 -0.477173)
(53.8199 25.5474 1.26941)
(93.2518 35.3566 -1.42621)
(132.852 45.6271 -1.1384)
(166.466 52.7929 1.43842)
(193.155 56.8881 3.83353)
(212.719 59.2151 3.51473)
(229.78 60.025 0.909739)
(247.649 60.098 -1.39004)
(263.787 60.883 -0.301873)
(275.822 60.7427 2.59368)
(292.933 60.1862 3.25888)
(-335.328 275.389 -3.60389)
(-182.492 206.522 -5.053)
(-88.2313 137.533 -3.41823)
(-40.7643 101.788 -0.565182)
(-48.3712 260.594 -1.26014)
(-16.4623 373.268 -1.60172)
(17.7013 373.507 -1.71564)
(48.8333 256.926 -0.73992)
(26.0113 59.6126 1.23122)
(13.8307 14.6022 -1.04944)
(23.8443 16.2831 -0.861744)
(42.4684 23.1752 1.51888)
(68.1979 33.0605 2.80889)
(95.0925 42.1641 1.91171)
(123.31 49.7265 -0.79554)
(152.001 56.2382 -2.3326)
(177.273 61.8716 -0.651215)
(199.439 64.9721 3.63385)
(215.795 67.0942 4.56258)
(241.544 69.5929 3.28597)
(-226.779 255.368 1.00499)
(-93.2753 157.448 -0.346452)
(-43.5502 104.8 -0.319793)
(-42.5018 124.381 -0.794295)
(-51.3551 279.174 -0.784483)
(-15.7448 367.134 -1.78733)
(16.8166 368.632 -1.50202)
(49.1083 270.628 0.185813)
(36.8785 99.664 -1.59358)
(15.9567 25.2472 -0.907298)
(11.4174 11.831 0.865034)
(15.2145 11.8592 1.37155)
(24.1551 16.0434 0.500512)
(41.0235 24.1523 -1.07221)
(64.8716 34.8391 -1.8882)
(90.8361 45.1616 -0.315558)
(116.571 53.794 3.27999)
(140.253 60.2381 5.02144)
(158.371 65.0481 2.631)
(193.097 71.0325 0.962599)
(-159.704 230.695 -0.200833)
(-61.8227 136.023 -0.253349)
(-42.1452 122.984 0.734614)
(-46.185 150.271 0.331986)
(-52.3932 292.413 -1.14976)
(-15.3146 361.282 -1.77063)
(15.9295 364.162 -1.1608)
(48.963 279.824 -1.02817)
(47.0635 138.6 -2.1497)
(23.7282 45.51 1.11666)
(11.6413 15.7805 1.29378)
(10.2838 10.5178 0.319729)
(13.3734 11.081 -0.818646)
(20.4287 15.1092 -0.952103)
(33.0218 22.4744 0.0232415)
(50.2454 31.3341 2.24132)
(69.6102 40.2638 3.45362)
(89.4417 47.9738 2.28797)
(109.321 54.2876 -0.516345)
(147.006 65.6751 0.120116)
(-121.719 218.084 3.12251)
(-51.3427 146.16 1.50535)
(-48.0803 148.32 1.07005)
(-52.6657 176.778 -0.00175185)
(-51.6505 301.162 -1.54549)
(-14.9441 357.143 -1.76402)
(15.2927 360.667 -1.33039)
(47.9324 288.213 -2.59655)
(53.8723 170.399 -0.126731)
(34.3213 72.5673 2.38885)
(16.4838 25.638 0.435588)
(10.9023 13.6403 -0.812484)
(10.9127 11.1099 -0.767057)
(12.8183 11.2387 0.116142)
(17.6281 14.0068 1.16622)
(25.918 19.2472 1.68014)
(37.5724 26.0697 1.08453)
(54.1607 34.0565 -0.730547)
(72.2989 42.9779 -1.00709)
(107.067 57.254 1.0063)
(-106.576 233.32 4.83069)
(-51.1449 164.894 2.4922)
(-52.5643 180.105 2.0034)
(-58.0196 201.675 -0.902584)
(-49.9094 307.02 -1.43986)
(-14.6963 354.701 -1.85024)
(14.6909 358.832 -1.87385)
(47.1852 295.1 -2.18438)
(57.2573 194.894 2.35934)
(43.6783 100.017 1.60886)
(25.2579 43.8104 -1.26364)
(15.3678 21.3334 -1.03844)
(11.0815 13.0649 0.10862)
(11.0831 11.2441 1.00849)
(12.4973 11.2479 1.03609)
(15.0743 12.4255 0.531557)
(21.9205 16.9362 -0.441144)
(34.1169 24.7084 -0.870831)
(47.9825 33.6192 0.3188)
(77.5178 48.3873 2.19593)
(-96.8616 254.746 6.4455)
(-55.6172 198.031 3.47802)
(-59.0641 217.068 1.60114)
(-62.1327 225.23 -0.970772)
(-48.1115 313.077 -1.46178)
(-14.5221 354.42 -2.03036)
(14.1796 357.9 -2.10565)
(45.9154 299.623 -0.212224)
(59.1412 213.127 2.1314)
(51.2751 128.326 -1.31822)
(36.4558 68.9607 -2.38346)
(23.3297 34.9281 -0.216736)
(14.1644 18.1968 1.11301)
(11.1825 12.6823 1.05601)
(11.9418 12.0807 0.419747)
(13.6657 12.4892 -0.403768)
(17.6363 15.0535 -0.571061)
(24.8749 20.1713 0.181614)
(34.7978 27.3094 1.66049)
(56.5214 40.2649 2.3174)
(-90.4662 285.834 4.27221)
(-57.6516 241.721 4.70948)
(-62.9787 257.855 1.13329)
(-64.8671 244.568 -0.638238)
(-46.5389 319.99 -1.63381)
(-14.0401 355.026 -2.13645)
(13.9116 357.321 -1.87863)
(44.3847 303.368 0.776131)
(59.9862 229.691 -0.661981)
(57.7071 157.103 -3.38694)
(47.2412 96.0228 -1.06709)
(32.8063 53.2973 1.97501)
(19.9499 27.2835 1.669)
(12.6531 15.6173 0.539505)
(12.4786 14.0112 -0.397108)
(13.6748 13.9141 -0.555893)
(16.1879 15.2025 0.12995)
(20.4855 17.8913 1.37225)
(25.9285 22.0931 1.73142)
(41.0136 31.9106 1.49039)
(-91.2699 327.474 4.83605)
(-63.7708 296.139 4.96513)
(-68.2697 304.29 1.30376)
(-66.4452 263.219 -0.0483808)
(-45.3119 328.858 -1.2554)
(-13.826 356.804 -2.38099)
(13.4947 357.464 -1.45917)
(43.5395 308.095 -0.2985)
(60.0573 247.501 -3.37767)
(63.3467 182.48 -2.0219)
(55.857 122.315 2.56881)
(42.104 73.7743 3.29868)
(27.3566 39.9291 1.10556)
(17.5227 22.9552 -0.491662)
(15.4488 18.349 -0.625326)
(15.3234 16.6361 0.0806616)
(16.5825 16.6666 1.17451)
(18.9535 17.6735 1.60539)
(21.3797 19.1922 1.12853)
(32.1434 26.7177 0.684047)
(-97.0208 380.558 7.05988)
(-70.4468 356.597 5.32447)
(-71.2963 350.897 2.65196)
(-67.4483 281.995 0.881829)
(-44.22 337.188 -0.62771)
(-13.3553 360.391 -2.50121)
(13.148 359.485 -1.2545)
(42.151 314.494 -2.10483)
(60.7691 263.883 -2.42172)
(66.2078 204.243 2.16624)
(62 146.132 4.32929)
(50.2806 94.6256 2.05046)
(36.057 57.7056 -0.945049)
(25.945 36.05 -1.10758)
(21.0066 26.1099 0.00798794)
(18.5789 21.4224 1.40564)
(17.9376 19.4738 1.68792)
(18.772 19.072 1.29614)
(20.4718 19.6073 0.395287)
(27.8505 25.0568 0.504001)
(-99.5672 445.805 12.2879)
(-69.7993 422.621 7.41831)
(-72.5415 397.757 3.52207)
(-68.2875 301.382 1.23366)
(-43.0006 346.178 -0.951407)
(-13.48 365.035 -2.23383)
(13.1268 362.781 -1.22877)
(41.6946 321.731 -1.93248)
(60.4603 275.552 0.507096)
(67.8969 219.891 3.14743)
(66.8038 164.291 1.88551)
(56.9746 115.242 -1.00759)
(45.6053 77.0813 -1.44087)
(35.4841 51.0292 -0.0055671)
(28.5145 36.863 1.69436)
(23.4204 27.7682 1.98049)
(20.074 22.6548 1.33838)
(19.9866 21.3283 0.499939)
(21.1132 21.1659 0.276443)
(26.2754 24.6681 0.948041)
(-111.937 587.519 18.499)
(-64.1223 563.216 12.5826)
(-70.4585 501.456 6.35832)
(-68.7151 348.129 2.29572)
(-41.859 366.642 -0.696404)
(-13.2688 375.381 -1.57717)
(13.5856 371.148 -1.16289)
(41.0667 334.192 -0.791219)
(59.6997 292.505 1.0788)
(70.1134 245.131 1.70033)
(72.6974 199.032 -0.129771)
(68.4659 153.909 -0.722426)
(60.4214 113.524 0.387548)
(50.9252 82.3788 1.97486)
(42.6203 60.4275 2.54925)
(34.5234 44.6545 1.93405)
(28.9062 35.1198 0.996358)
(26.8126 30.0083 0.678556)
(25.6373 27.2661 1.12535)
(28.4331 28.4347 1.55725)
(-594.332 -600.868 62.8484)
(-324.335 -573.917 77.4411)
(-346.299 -539.739 18.9315)
(-291.769 -532.431 2.83898)
(-195.152 -687.157 -3.46169)
(-59.0668 -775.029 -2.7354)
(64.2011 -757.87 -3.70887)
(200.732 -670.212 -1.01917)
(286.395 -520.924 3.20763)
(290.678 -358.825 -0.656448)
(270.028 -242.072 4.58271)
(242.813 -169.317 2.6639)
(225.907 -126.412 5.38731)
(241.776 -110.666 7.39759)
(265.489 -101.108 9.62758)
(298.261 -94.7005 6.7517)
(340.893 -93.7561 8.23754)
(394.62 -98.9342 10.9766)
(461.953 -101.58 16.5393)
(611.378 -113.737 22.285)
(-554.654 -320.352 80.6905)
(-343.71 -340.658 19.959)
(-267.3 -320.683 0.645686)
(-238.647 -400.571 3.64168)
(-204.558 -648.885 -1.23766)
(-61.7216 -760.512 -3.49374)
(66.4996 -745.536 -4.64748)
(207.312 -630.376 -2.1495)
(266.463 -394.641 7.68008)
(216.193 -194.191 -1.90786)
(166.952 -100.104 1.53535)
(142.78 -65.043 2.05917)
(151.259 -51.4904 4.31363)
(168.536 -50.8195 5.0277)
(203.673 -56.2732 6.97083)
(249.248 -58.6851 7.93097)
(306.595 -62.8606 8.19537)
(370.057 -69.6944 8.12842)
(439.955 -69.527 9.72726)
(590.509 -62.8202 14.92)
(-530.723 -331.948 24.1847)
(-313.846 -264.286 0.517049)
(-251.749 -254.624 7.01555)
(-221.831 -314.225 7.50641)
(-209.762 -632.328 -0.641245)
(-69.027 -754.308 -4.75407)
(71.7718 -744.284 -4.79365)
(215.186 -603.299 -3.23543)
(224.638 -276.001 5.71549)
(142.781 -92.6538 -0.22785)
(111.466 -46.881 1.02191)
(130.06 -41.06 1.64214)
(153.715 -45.0133 3.07342)
(182.51 -53.1521 3.95444)
(218.578 -61.4159 4.22668)
(259.959 -65.6663 4.39921)
(310.625 -69.1577 4.76729)
(364.423 -71.0041 5.13038)
(416.565 -72.8006 4.64684)
(524.423 -71.6789 6.66772)
(-498.934 -278.848 5.98882)
(-371.539 -223.049 0.802656)
(-289.23 -213.537 0.689578)
(-208.304 -218.279 -4.57968)
(-238.074 -503.671 0.627573)
(-122.083 -745.746 -4.12116)
(29.3478 -771.122 -6.02183)
(178.036 -668.065 -1.62709)
(214.394 -281.09 2.94359)
(104.539 -40.7217 1.20979)
(128.271 -44.7306 1.60221)
(154.729 -48.3253 2.77242)
(183.294 -52.3158 2.40832)
(210.234 -57.8402 1.54425)
(236.232 -62.4063 1.53805)
(257.874 -65.9299 1.95108)
(276.046 -67.9966 2.38342)
(293.526 -68.9862 3.24701)
(311.457 -69.826 3.31699)
(356.59 -70.899 4.01703)
(-649.649 -190.805 -3.42124)
(-608.449 -199.734 -2.75268)
(-592.068 -203.608 -1.14216)
(-451.391 -226.006 1.10069)
(104.082 -38.2351 0.313844)
(271.367 -49.2126 1.62098)
(290.367 -52.0174 1.72863)
(304.935 -53.0761 1.57026)
(317.56 -53.214 1.51697)
(325.292 -51.8476 1.87469)
(330.716 -49.9067 1.55639)
(336.177 -47.9986 0.942969)
(344.602 -46.6648 1.0554)
(353.279 -45.7485 1.91524)
(362.272 -44.7133 2.09397)
(381.71 -43.3643 2.27895)
(-734.989 -59.0073 -0.998718)
(-721.334 -60.5713 -2.19165)
(-716.519 -66.9261 -3.77265)
(-715.431 -118.454 -3.00669)
(372.364 -30.7295 1.70758)
(395.373 -17.5007 1.45404)
(389.717 -16.7677 1.48184)
(384.477 -16.2902 1.41851)
(379.949 -15.9217 1.25668)
(376.559 -15.6741 1.20038)
(376.358 -15.5107 1.19393)
(376.964 -15.0075 1.37926)
(378.287 -14.6557 1.52276)
(381.086 -14.1525 1.39883)
(384.988 -14.1107 1.38731)
(394.915 -13.9555 1.75912)
(-723.308 58.421 0.538107)
(-713.002 61.7469 0.213823)
(-711.077 68.5083 -0.349344)
(-739.718 28.513 -0.0256817)
(407.819 4.51183 1.93867)
(398.609 17.3196 1.99662)
(393.999 16.4664 1.90827)
(389.114 15.8014 2.24176)
(384.987 15.1621 2.28017)
(382.241 14.6098 1.93299)
(381.083 14.0375 1.66061)
(379.825 13.788 1.71527)
(379.221 13.5505 2.06221)
(380.153 13.2136 2.31142)
(382.623 13.1303 2.16011)
(390.061 13.5012 2.07076)
(-639.607 189.239 1.99455)
(-603.97 196.549 0.689238)
(-578.876 204.464 -0.492343)
(-639.667 170.02 -0.105287)
(349.368 39.3959 2.04339)
(273.22 48.5461 0.999783)
(287.034 49.42 2.95701)
(296.488 49.5821 2.7178)
(304.856 48.9138 0.953612)
(312.607 47.7661 0.150822)
(317.286 46.9326 1.45091)
(320.711 45.3928 3.32378)
(325.112 44.37 3.25598)
(331.014 43.5043 1.70743)
(337.385 42.6314 0.975825)
(349.162 41.8521 1.69902)
(-496.493 271.029 2.97477)
(-380.64 254.292 6.02077)
(-271.76 216.846 3.60483)
(-270.884 204.237 -0.098997)
(-36.2127 100.929 -1.19774)
(-29.6363 362.566 -1.85533)
(4.95725 395.619 -1.22099)
(38.9738 335.006 -1.31751)
(23.9801 22.5949 -0.0781187)
(55.6219 24.9559 2.0777)
(95.9607 35.7118 -0.186442)
(136.158 45.3924 -1.50967)
(169.876 52.5309 -0.122003)
(196.231 56.4219 2.97368)
(217.24 58.7153 4.27227)
(234.556 60.1992 2.77965)
(252.716 60.5228 -0.253727)
(270.201 60.7623 -0.715896)
(282.644 61.2449 1.52665)
(300.23 60.5765 2.90451)
(-340.217 273.857 -2.20487)
(-186.503 204.693 -2.66166)
(-89.7925 134.407 -1.79987)
(-39.4093 97.3113 -0.170597)
(-47.6489 262.857 -1.2124)
(-16.4105 383.581 -1.47583)
(17.6174 384.19 -1.35337)
(47.9797 260.946 -1.31557)
(24.84 56.2456 1.7387)
(13.1294 13.3032 -0.303311)
(22.9864 15.0425 -1.28251)
(41.6109 22.1046 0.492833)
(67.4101 31.6187 2.72955)
(94.7885 40.9022 3.20727)
(122.555 48.7705 1.26203)
(152.115 55.1986 -1.49958)
(179.519 60.9381 -1.45529)
(201.368 64.6653 1.92536)
(218.778 66.6356 4.54425)
(245.113 69.4667 3.92568)
(-228.444 252.521 1.90829)
(-93.5068 153.877 0.674675)
(-44.6037 101.964 0.0816028)
(-42.6924 120.188 -0.861406)
(-50.4412 281.434 -0.800089)
(-15.7186 377.903 -1.66522)
(16.6361 379.658 -1.35529)
(48.655 275.294 0.585469)
(36.0385 96.8256 -0.684804)
(15.0734 23.5465 -1.36776)
(10.0568 10.203 0.166966)
(13.8065 10.3553 1.35983)
(22.3582 14.4831 1.30885)
(38.1931 22.1744 0.0894151)
(61.9084 32.4163 -1.52279)
(89.0164 43.1052 -1.29288)
(114.198 51.8511 1.72751)
(138.447 58.0848 5.02819)
(157.298 63.4408 4.1904)
(192.688 70.2229 2.01276)
(-159.048 225.658 -0.253451)
(-61.1757 131.526 -0.50125)
(-40.049 120.377 0.998127)
(-46.3847 145.804 0.955485)
(-51.3586 294.959 -0.924712)
(-15.1328 372.564 -1.75485)
(15.9441 375.116 -0.951332)
(48.7737 285.428 0.216191)
(45.7066 136.772 -2.65464)
(22.3357 42.8558 0.168192)
(10.3633 14.1748 1.30497)
(10.0138 10.1081 0.95106)
(12.6592 10.3537 -0.186023)
(19.347 13.9002 -0.855129)
(31.4784 20.9661 -0.586008)
(47.7607 29.3386 1.42721)
(66.7069 37.9527 3.66317)
(86.7518 45.8647 3.83113)
(106.006 52.502 1.00617)
(145.377 63.9725 0.241611)
(-119.262 209.979 2.79205)
(-49.679 140.366 1.60792)
(-44.2675 144.239 0.838622)
(-50.5751 173.37 1.35032)
(-51.2762 306.315 -1.31362)
(-14.7954 367.863 -1.68921)
(15.3112 371.437 -0.837356)
(48.1017 294.638 -1.62837)
(52.6132 169.869 -1.6635)
(32.2519 69.3963 2.2545)
(15.0282 23.4108 1.20593)
(10.4175 12.8259 -0.210461)
(10.734 10.761 -0.81126)
(12.3873 10.7216 -0.298216)
(16.4284 12.8981 0.76602)
(24.2572 17.6665 1.83976)
(35.3518 24.2121 1.96062)
(51.1423 32.0459 0.541709)
(69.4448 40.4601 -0.890574)
(104.95 55.2872 0.371364)
(-104.632 224.653 4.53685)
(-48.5762 157.525 3.32666)
(-51.3508 172.951 1.44199)
(-55.8368 199.337 0.00389877)
(-49.9988 313.936 -1.03147)
(-14.6421 364.478 -1.5714)
(14.6947 369.384 -1.10712)
(47.0449 302.735 -2.39896)
(56.2526 195.304 1.35075)
(41.9256 97.5689 2.61005)
(23.3062 40.3153 -0.178545)
(14.3287 20.0525 -0.986732)
(10.7243 12.555 -0.312834)
(10.0636 10.171 0.645595)
(11.5551 10.3126 1.1176)
(14.132 11.5315 0.994764)
(20.3114 15.5388 0.186036)
(32.3348 22.8961 -0.648185)
(45.7094 31.4872 -0.26864)
(74.3351 45.831 1.74673)
(-96.4432 247.887 6.54143)
(-54.7828 190.841 4.49578)
(-59.5716 207.582 2.13293)
(-60.3228 224.727 -0.61237)
(-48.1591 319.626 -1.10101)
(-14.5525 364.261 -1.40224)
(14.1419 368.719 -1.34333)
(46.1605 307.413 -1.01487)
(58.3355 215.55 2.64608)
(49.9397 125.841 0.442979)
(33.9282 65.1027 -2.09121)
(21.8558 33.0807 -0.848119)
(13.2029 17.0306 0.709991)
(10.2823 11.6952 1.1084)
(11.1658 11.2051 0.832997)
(12.7635 11.5178 0.0638596)
(16.4329 13.7753 -0.470283)
(23.1677 18.4983 -0.167833)
(31.9812 24.7858 1.28477)
(53.2577 37.4592 2.52983)
(-91.0324 279.984 4.20952)
(-58.0756 235.184 4.95486)
(-64.2773 247.084 2.64415)
(-63.9243 246.624 -0.371466)
(-46.2779 324.942 -1.28231)
(-14.1047 364.837 -1.22587)
(13.8787 368.005 -1.21822)
(44.5255 310.829 0.840351)
(59.7764 232.715 1.05081)
(56.3336 155.609 -2.67589)
(44.9316 93.2618 -2.11322)
(30.7911 50.505 1.07881)
(18.5556 25.6417 1.7545)
(11.9238 14.6333 0.966221)
(11.5979 12.8751 0.0475782)
(12.6885 12.7563 -0.495012)
(14.9006 13.8569 -0.138718)
(18.2322 15.7292 0.984367)
(23.4361 19.6743 1.89128)
(38.0347 29.4355 2.02718)
(-90.7604 322.135 5.35129)
(-63.5775 291.588 4.13799)
(-68.6519 295.119 2.38821)
(-66.2756 265.738 0.173872)
(-44.9582 333.07 -0.940008)
(-13.8204 366.231 -1.31256)
(13.6034 367.88 -0.860305)
(43.5003 315.657 0.629431)
(60.2078 250.904 -2.13362)