/*--------------------------------*- C++ -*----------------------------------*\
  =========                 |
  \\      /  F ield         | OpenFOAM: The Open Source CFD Toolbox
   \\    /   O peration     | Website:  https://openfoam.org
    \\  /    A nd           | Version:  9
     \\/     M anipulation  |
\*---------------------------------------------------------------------------*/
FoamFile
{
    format      ascii;
    class       volScalarField;
    location    "0.01";
    object      T;
}
// * * * * * * * * * * * * * * * * * * * * * * * * * * * * * * * * * * * * * //

dimensions      [0 0 0 1 0 0 0];

internalField   nonuniform List<scalar> 
9720
(
1007.05
981.694
905.088
836.848
847.033
860.125
860.293
845.024
823.758
802.951
788.559
790.195
793.316
799.938
810.313
821.647
832.964
845.68
858.777
889.752
982.607
870.09
799.095
799.181
842.457
858.131
858.083
838.373
800.558
768.394
756.719
757.883
762.041
769.16
782.389
799.197
813.625
825.944
837.55
868.471
908.081
798.16
788.364
787.296
839.04
858.433
857.997
836.396
784.184
755.967
759.767
762.178
765.701
770.439
777.247
786.712
793.262
796.574
799.836
819.069
836.489
797.422
786.063
768.402
813.005
858.108
863.446
849.368
778.523
735.621
731.318
729.167
729.329
729.892
731.109
732.537
734.204
736.758
739.628
751.569
843.209
838.388
835.347
812.811
716.15
721.65
724.044
726.186
726.201
725.718
725.704
726.35
727.93
730.361
733
740.367
855.989
854.18
855.215
854.318
742.546
745.354
743.709
741.976
740.485
739.487
738.679
738.67
738.936
739.645
740.808
744.024
855.948
854.08
854.79
860.043
750.531
746.22
744.836
743.386
742.087
741.009
740.31
739.653
739.573
739.762
740.168
741.77
840.461
833.953
832.038
845.37
737.03
717.124
718.056
718.624
719.444
720.272
721.31
722.632
724.091
725.835
727.459
730.557
819.269
796.699
780.932
775.403
691.692
739.164
747.355
732.565
721.492
699.655
693.876
691.722
692.785
694.795
696.904
699.997
703.792
707.733
711.001
716.944
799.268
765.715
753.846
727.407
718.048
742.538
743.044
711.783
691.563
708.725
699.066
693.634
686.36
684.656
685.585
687.357
689.779
693.461
696.759
704.28
785.053
750.745
750.944
724.798
722.045
740.625
741.432
713.879
687.742
695.522
696.748
691.449
685.927
684.962
684.117
683.66
684.137
685.404
687.516
694.801
786.378
751.794
752.277
723.937
722.456
738.679
739.842
715.016
687.856
689.674
688.892
686.697
684.494
683.724
683.037
681.975
680.455
681.418
682.793
688.147
789.316
756.777
758.049
724.522
721.952
737.139
738.513
716.284
689.096
682.856
683.39
683.333
679.897
678.906
679.337
678.427
679.18
681.947
681.345
684.219
795.816
764.782
766.55
725.956
721.674
736.124
737.63
717.538
691.422
681.623
682.779
682.084
677.597
672.253
672.122
675.387
681.567
683.182
682.193
684.816
805.697
778.012
775.527
727.62
721.968
735.393
737.072
718.861
694.079
682.949
681.668
680.254
676.018
670.875
671.993
676.78
683.691
686.273
685.953
688.027
816.924
794.305
783.574
729.321
723.082
735.472
736.644
720.366
697.94
685.538
681.071
678.064
674.434
673.286
675.473
681.237
685.729
689.08
689.762
692.359
828.183
808.375
788.154
731.416
725.101
735.968
736.711
722.02
702.638
688.796
681.742
676.944
675.474
677.766
681.199
685.656
687.348
689.169
691.422
695.678
840.719
820.35
791.489
734.444
727.908
736.992
737.065
724.02
707.535
693.215
683.47
678.28
678.931
680.807
685.173
689.996
690.121
691.162
693.299
696.144
853.671
831.552
795.2
737.684
730.851
738.456
737.649
725.844
711.223
697.009
686.11
680.172
679.464
680.677
685.573
691.232
693.44
694.669
693.983
695.636
884.701
861.966
814.829
750.51
738.911
742.196
739.748
729.429
717.469
705.055
694.362
686.819
683.421
684.132
688.2
694.082
698.952
699.868
698.36
699.761
1009.56
978.543
896.858
834.62
847.929
860.623
860.745
845.28
823.236
802.929
788.254
789.87
792.709
798.864
809.235
820.869
832.325
845.074
858.079
889.172
980.027
861.098
797.547
799.113
843.79
858.814
858.756
838.79
800.017
768.685
756.968
757.754
761.022
766.978
779.119
796.088
811.523
824.372
836.018
867.023
901.032
796.674
786.55
787.532
840.622
859.551
858.754
836.652
784.293
755.991
761.026
762.874
764.601
767.073
771.491
779.871
788.418
793.385
796.995
815.492
834.001
796.56
784.277
767.858
819.354
857.955
863.478
849.331
780.173
736.485
729.853
726.326
726.43
727.012
728.27
729.716
731.141
733.283
735.748
746.644
842.718
837.695
834.071
808.309
720.217
719.902
721.281
723.116
723.583
723.235
723.104
723.578
724.987
727.216
729.609
736.405
855.694
854.023
855.33
853.881
740.136
743.431
741.693
739.85
738.239
737.162
736.321
736.115
736.304
736.873
737.875
740.917
855.728
854.015
854.923
859.517
748.214
744.298
742.697
741.048
739.672
738.587
737.896
737.249
736.818
736.952
737.339
738.92
840.225
834.158
832.369
845.088
734.84
714.856
715.222
715.684
716.771
718.001
718.963
719.875
721.021
722.799
724.654
727.768
818.315
795.753
780.351
776.395
700.469
737.932
746.157
731.191
739.329
704.414
696.701
693.217
692.247
692.659
693.444
695.616
700.113
705.324
708.76
713.844
798.554
764.877
752.241
730.771
717.907
741.599
742.033
710.634
695.881
718.892
705.97
696.061
685.052
681.823
682.765
685.449
688.499
691.61
693.789
699.766
783.377
751.242
754.434
726.072
720.204
739.91
740.571
712.329
691.891
703.883
702.535
691.604
682.572
683.46
684.681
684.346
682.611
682.299
682.948
689.926
784.788
752.015
755.38
723.655
721.648
738.123
739.071
713.646
690.538
692.63
688.504
683.025
685.273
686.955
685.897
682.284
677.068
677.086
679.035
686.008
787.76
755.837
758.372
723.871
721.6
736.606
737.836
715.45
691.042
682.566
681.343
684.944
685.735
685.036
682.513
676.359
674.537
677.962
679.598
683.101
794.113
762.274
763.434
724.948
721.375
735.638
737.019
717.195
691.686
681
682.877
686.806
684.9
678.764
671.53
671.309
676.244
681.845
681.145
683.066
804.4
774.293
769.148
726.56
721.492
734.841
736.573
718.373
692.628
682.378
684.614
685.552
681.707
671.014
669.157
673.036
681.714
685.53
684.193
684.894
816.224
790.95
776.546
728.205
722.248
734.832
736.095
719.354
695.309
685.902
684.35
681.423
675.073
670.681
672.627
680.219
685.19
686.248
685.676
687.597
827.791
806.439
783.623
729.88
723.895
735.13
735.964
720.694
700.705
689.602
682.805
676.312
673.444
674.93
680.703
685.584
684.938
684.573
685.262
690.678
840.487
819.23
788.86
732.314
726.309
735.925
736.189
722.821
706.787
693.164
682.826
676.466
676.993
681.025
685.745
687.835
685.676
685.138
687.16
693.451
853.261
830.46
792.917
735.008
728.911
737.148
736.697
724.923
710.514
695.612
683.681
678.789
679.448
681.293
685.017
687.698
687.16
688.617
690.073
693.73
883.987
860.804
811.445
746.271
736.131
740.513
738.591
728.362
715.77
702.071
691.444
686.861
684.03
683.83
686.041
689.797
693.868
696.996
696.597
697.943
1018.09
978.51
885.503
834.427
848.066
860.784
860.788
844.938
823.022
803.165
789.358
791.464
794.74
800.9
812.087
824.508
836.229
848.826
861.805
893.632
979.999
844.221
795.898
801.831
843.442
858.919
858.816
838.24
800.301
769.758
759.264
760.811
764.532
769.863
781.092
797.897
814.607
828.16
839.894
871.461
889.962
794.77
784.874
789.037
839.976
859.75
858.933
835.998
785.366
757.675
765.303
771.237
771.128
770.295
770.768
775.861
786.348
795.102
799.671
816.624
830.835
795.511
782.87
765.569
818.931
858.613
864.063
849.557
780.674
737.872
731.73
727.555
726.986
727.148
727.96
729.511
731.049
732.98
734.974
744.25
842.084
837.096
833.46
806.824
709.686
718.792
719.473
720.464
722.204
722.598
722.581
722.881
724.015
726.01
728.171
734.348
855.598
853.919
855.316
853.949
738.736
742.632
740.912
739.086
737.527
736.503
735.787
735.595
735.762
736.263
737.15
740.04
855.976
854.226
854.823
859.641
747.092
743.506
741.811
740.082
738.771
737.84
737.274
736.799
736.31
736.376
736.726
738.271
840.226
834.39
832.655
845.202
733.494
713.611
713.432
713.897
715.395
717.37
718.453
719.102
720.068
721.874
723.866
727.118
817.853
795.663
780.49
776.025
707.843
737.245
745.364
730.648
757.647
705.671
699.246
696.902
694.529
692.416
692.551
693.912
698.288
704.451
708.265
713.012
797.538
763.938
751.957
735.875
718.535
741.256
741.587
710.08
702.957
728.123
714.248
701.245
687.71
683.257
684.026
686.957
689.955
691.928
693.185
697.696
782.618
752.54
758.046
729.32
718.69
739.474
739.901
710.517
696.697
713.213
709.653
697.209
684.536
685.011
687.535
688.018
685.224
682.462
682.468
688.869
784.494
753.882
763.118
724.539
719.181
737.611
738.271
711.616
694.844
699
695.358
686.846
689.131
693.677
692.936
687.885
679.795
679.011
680.914
687.807
787.945
757.816
764.33
724.162
720.332
735.985
737.045
713.76
692.844
685.404
683.461
688.678
695.382
694.451
690.783
682.809
678.35
680.824
683.149
687.034
794.466
763.796
764.789
724.456
720.702
734.926
736.23
716.055
691.334
682.438
684.271
693.389
694.532
690.013
680.687
677.575
680.683
687.75
686.769
687.573
806.067
774.866
765.985
725.453
720.729
734.124
735.798
717.256
691.561
683.509
687.212
692.741
690.697
680.705
675.93
679.507
688.801
692.112
689.616
689.556
819.112
791.627
770.916
727.21
721.036
733.986
735.385
717.964
693.209
686.925
687.939
687.538
682.163
677.375
679.324
688.248
692.179
691.866
691.369
693.268
831.359
808.894
780.296
729.064
722.155
734.189
735.078
719.096
698.2
690.425
685.527
679.64
678.185
680.29
688.167
692.006
690.059
689.998
691.129
697.763
844.272
822.844
789.39
731.29
724.201
734.801
735.257
721.253
704.994
692.919
683.478
679.294
680.949
687.253
691.471
691.677
690.334
690.613
694.324
702.587
857.108
834.265
794.478
733.47
726.529
735.807
735.776
723.527
709.145
694.625
683.718
681.604
683.617
686.697
689.345
691.806
692.023
695.042
699.003
702.927
888.287
865.09
811.314
742.786
732.993
738.901
737.62
727.149
714.343
699.933
690.716
689.232
688.078
688.273
690.026
694.411
699.679
705.187
705.217
706.286
1026.04
977.538
874.772
834.248
847.892
860.909
860.864
844.62
822.322
801.76
788.59
791.576
796.08
802.483
814.354
828.262
841.229
854.217
867.138
899.633
979.078
827.693
794.596
803.365
842.345
858.839
858.883
838.009
799.479
767.78
758.357
761.519
767.272
773.575
783.814
800.618
818.919
833.839
845.66
877.433
878.304
792.958
784.647
788.338
838.357
859.627
859.067
835.927
784.789
756.729
764.795
777.904
779.263
776.554
772.621
774.233
782.632
795.548
802.456
819.002
827.829
795.366
783.076
764.564
814.369
858.604
864.19
849.448
783.683
743.664
735.328
729.539
728.355
727.666
727.798
728.962
730.768
732.869
734.66
742.539
841.649
837.19
834.221
811.288
672.546
719.513
719.942
720.122
721.197
722.618
722.791
722.88
723.494
725.015
726.969
732.531
855.604
854.036
855.499
854.013
738.282
742.675
741.054
739.27
737.625
736.416
735.641
735.204
735.308
735.69
736.393
738.872
856.006
854.111
854.726
859.815
746.878
743.609
741.883
740.107
738.712
737.775
737.104
736.551
735.893
735.879
736.114
737.425
839.991
833.986
832.103
845.089
733.28
713.716
712.976
713.209
714.44
716.565
717.846
718.441
719.285
720.968
722.805
725.927
817.631
795.011
780.231
777.902
700.071
737.483
745.691
730.932
773.272
714.007
705.714
701.937
698.312
693.765
693.008
693.887
697.296
702.99
706.946
711.966
797.08
762.749
751.587
741.088
719.253
741.494
741.876
710.389
704.463
736.276
724.218
709.645
693.912
686.553
686.862
688.889
691.225
692.308
692.951
696.572
783.015
753.417
759.117
732.575
719.096
739.696
740.114
710.104
698.907
721.126
718.334
706.033
690.184
688.835
690.313
691.156
688.331
683.6
683.545
689.168
785.262
755.88
771.438
726.427
718.767
737.757
738.363
710.83
697.38
706.61
704.13
696.059
694.479
698.446
698.472
693.79
683.719
682.433
683.673
689.694
789.001
760.825
772.816
725.633
719.335
736.013
737.068
712.978
695.45
691.25
688.12
693.036
702.75
702.734
698.739
690.088
683.535
685.32
687.218
690.786
795.202
766.992
770.627
725.458
720.558
734.842
736.263
715.616
692.556
684.611
686.643
696.33
702.616
699.898
691.11
686.094
687.447
693.937
692.818
692.494
807.215
776.984
767.634
725.646
720.891
734.069
735.766
717.03
692.192
684.991
688.081
696.836
698.483
691.496
685.699
688.093
696.43
699.514
695.884
695.063
821.478
793.444
769.225
726.836
721.079
733.777
735.316
717.721
693.177
687.224
689.472
692.903
689.974
686.205
688.014
696.323
699.942
699.188
697.566
699.736
834.747
811.99
777.038
728.751
721.798
733.936
734.891
718.737
696.822
690.442
687.738
683.637
683.395
687.006
695.397
699.557
697.793
696.879
698.625
706.16
847.922
826.837
789.327
730.979
723.419
734.419
734.97
720.682
703.133
692.729
684.063
682.371
684.805
692.333
698.416
698.678
696.911
698.045
703.628
713.907
860.783
837.97
795.707
732.751
725.402
735.203
735.342
722.771
707.736
693.986
684.02
683.571
686.365
691.313
694.953
697.18
698.577
703.389
710.939
717.203
893.13
868.458
810.433
739.912
730.811
737.743
736.876
726.237
713.292
698.381
689.703
689.62
690.313
691.911
694.501
699.319
706.198
714.714
718.552
722.138
1031.09
978.281
869.936
833.261
847.936
861.279
861.092
844.516
821.589
800.358
787.131
790.566
796.067
803.223
815.806
830.308
844.44
858.095
871.11
903.659
980.482
822.377
793.749
803.761
842.609
859.325
859.128
838.18
798.306
765.019
756.39
760.104
767.061
774.837
785.767
802.708
821.509
837.385
849.505
881.825
874.157
792.179
784.309
788.575
839.155
860.186
859.572
836.234
783.792
754.689
762.074
778.898
783.573
780.746
773.462
773.307
779.367
793.558
802.8
821.165
826.976
794.837
781.635
763.168
814.912
858.681
864.679
849.946
782.109
747.834
737.72
729.928
728.569
727.911
727.752
728.564
730.416
732.725
734.569
742.03
841.003
836.114
832.713
809.231
712.043
720.257
720.675
720.317
720.717
722.059
722.897
723.029
723.508
724.811
726.695
732.094
855.248
853.782
855.289
853.704
738.756
742.868
741.158
739.312
737.584
736.302
735.452
734.938
735.05
735.467
736.162
738.555
855.795
853.999
854.821
859.715
747.332
743.974
742.128
740.272
738.811
737.785
736.991
736.406
735.85
735.868
736.056
737.278
839.465
833.598
831.802
845.022
733.979
714.04
713.062
713.12
714.026
715.787
717.212
718.174
719.167
720.68
722.312
725.525
817.14
794.548
780.121
778.947
707.957
737.376
745.634
730.636
775.955
718.114
708.208
703.853
699.551
694.79
693.596
694.327
696.945
701.759
705.894
711.624
796.541
762.158
752.146
744.502
718.959
741.236
741.677
710.199
706.203
740.888
726.74
713.721
700.963
689.859
688.856
689.641
691.075
692.391
693.122
696.643
783.188
753.587
759.416
734.642
719.159
739.454
739.89
709.859
700.499
723.265
723.388
713.129
699.299
691.619
691.707
692.109
690.422
686.502
685.826
689.587
785.699
756.542
774.042
726.854
718.715
737.587
738.181
710.259
698.753
709.983
711.046
706.678
699.713
699.303
699.921
697.84
690.34
686.279
686.264
690.354
789.99
762.386
777.461
726.141
718.972
735.878
736.934
712.003
696.313
696.701
695.293
696.878
702.91
707.239
705.296
699.234
690.235
689.287
689.539
692.792
796.26
769.421
775.209
726.051
720.046
734.664
736.058
714.583
693.349
686.695
688.315
696.261
706.522
706.719
703.258
696.909
693.567
696.137
695.973
696.138
808.22
779.134
769.665
725.905
720.812
733.801
735.438
716.458
692.858
686.161
688.616
697.067
704.592
703.096
697.515
696.174
698.774
704.215
702.741
700.598
822.629
795.288
769.661
726.583
721.046
733.398
735.023
717.712
693.6
687.178
689.453
695.545
698.262
696.401
695.703
698.596
704.994
708.238
706.468
706.248
836.401
814.074
775.165
728.22
721.588
733.551
734.8
718.855
696.241
689.429
688.755
688.851
688.757
691.902
697.53
704.59
706.496
707.639
708.267
712.141
849.583
829.008
787.883
730.398
722.899
734.024
734.898
720.36
701.433
692.131
685.772
684.797
687.244
693.808
702.564
707.997
707.652
708.257
710.742
719.238
862.307
839.673
795.424
732.107
724.659
734.741
735.145
722.061
706.215
693.741
685.059
684.854
687.508
693.687
701.215
705.779
708.03
710.515
716.226
726.201
895.474
869.371
809.484
738.351
729.58
737.007
736.428
725.546
712.67
698.082
688.948
689.145
691.037
694.38
699.025
704.84
711.282
718.829
726.862
734.096
1031.48
978.467
869.383
833.047
848.155
861.49
861.147
844.596
821.572
800.418
787.038
790.276
795.919
803.277
815.747
830.254
844.657
858.737
872.039
904.518
981.354
821.992
793.175
804.675
843.252
859.704
859.157
838.262
798.438
765.251
756.325
759.977
766.62
774.896
786.565
803.635
822.101
837.939
850.192
883.03
874.65
791.844
783.609
789.92
839.953
860.66
859.782
836.335
784.094
754.965
761.954
778.711
784.336
781.8
775.031
774.827
780.869
794.963
803.832
822.133
827.57
794.841
780.787
762.614
816.839
858.815
864.919
850.241
782.39
747.824
737.701
729.867
728.68
728.089
727.857
728.61
730.339
732.63
734.556
742.243
840.516
835.175
831.619
805.685
699.369
720.067
720.728
720.323
720.673
721.86
722.659
722.855
723.399
724.706
726.554
731.951
854.637
853.074
854.742
853.421
738.695
742.831
741.183
739.377
737.637
736.338
735.517
735.006
735.1
735.493
736.203
738.57
855.596
853.896
854.798
859.524
747.373
743.903
742.096
740.211
738.661
737.646
737.014
736.524
735.862
735.745
735.907
737.13
839.239
833.541
831.973
844.888
733.824
713.767
712.838
712.854
713.89
715.893
717.427
718.325
719.239
720.754
722.557
725.708
816.936
794.577
779.996
776.216
726.918
737.176
745.467
730.669
787.005
716.983
707.517
703.343
699.422
695.127
693.718
694.303
696.925
701.968
706.264
711.813
796.394
762.412
752.503
744.31
718.912
741.145
741.632
710.103
711.45
742.729
727.327
714.126
701.465
689.945
688.46
689.348
690.892
692.626
693.599
697.014
783.138
753.838
759.732
734.609
718.973
739.48
739.915
709.468
703.025
724.848
724.659
714.14
700.288
691.438
691.35
691.627
690.305
686.766
685.907
689.415
785.716
756.815
774.328
726.866
718.53
737.69
738.185
709.787
699.645
710.84
712.287
708.22
700.442
699.062
699.514
697.698
690.67
686.296
686.084
690.31
790.129
762.783
778.323
726.115
718.818
736.012
736.87
711.695
696.526
697.699
696.657
697.991
703.47
707.901
706.071
700.085
690.585
688.905
689.325
692.791
796.497
770
776.236
725.922
719.963
734.812
736.038
714.684
693.189
687.236
688.924
697.063
707.419
707.759
704.608
698.055
693.348
695.812
695.961
696.084
808.489
779.666
770.675
725.843
720.785
733.966
735.518
716.496
692.481
686.491
689.207
697.686
705.548
704.396
698.987
696.546
698.519
704.467
703.2
700.7
822.9
795.648
770.168
726.524
721.024
733.568
735.094
717.266
693.147
687.591
689.929
696.054
699.099
697.38
696.282
698.908
705.543
709.194
707.17
706.35
836.719
814.174
774.804
728.159
721.554
733.721
734.677
718.132
695.936
689.684
688.827
689.308
689.426
692.597
698.267
705.484
707.651
708.697
709.073
712.339
849.857
829.006
786.982
730.216
722.79
734.201
734.73
719.786
701.303
691.802
685.761
685.422
688.07
694.81
703.423
708.886
708.745
709.312
711.479
719.887
862.49
839.556
794.69
731.827
724.527
734.912
735.008
721.843
705.915
693.09
685.289
685.396
688.352
694.589
701.961
706.721
709.167
711.54
717.402
726.987
895.691
868.961
808.594
737.863
729.451
737.182
736.398
725.472
712.001
697.313
689.179
689.619
691.58
694.845
699.63
705.743
712.368
720.375
728.069
734.518
1027.07
977.99
873.526
833.868
848.544
861.742
861.202
844.89
821.978
801.088
787.914
791.038
796.055
802.933
814.852
828.703
842.058
855.814
869.291
901.687
980.767
827.103
793.295
805.579
843.941
859.994
859.149
838.348
798.458
765.892
757.245
760.633
767.061
774.577
786.224
803.319
821.199
836.16
848.362
881.004
879.402
792.065
783.237
791.727
840.493
860.89
859.659
836.268
783.73
755.198
763.038
777.76
782.225
779.687
775.442
776.974
785.624
798.742
805.59
822.525
828.388
794.523
781.008
764.014
818.092
858.83
864.89
850.325
782.413
746.122
736.699
729.872
728.853
728.251
728.286
729.351
731.197
733.44
735.343
743.597
840.369
835.185
831.758
805.971
702.55
720.128
720.535
720.398
721.11
722.539
722.875
722.98
723.613
725.202
727.283
733.073
854.539
853.035
854.717
853.502
738.546
742.758
741.037
739.149
737.392
736.164
735.371
735.031
735.178
735.639
736.408
738.966
855.503
853.885
854.853
859.57
747.279
743.781
741.928
740.056
738.615
737.688
737.084
736.62
736.057
736.062
736.303
737.615
839.178
833.394
831.685
844.898
733.643
713.353
712.601
712.808
714.09
716.351
717.868
718.655
719.622
721.376
723.235
726.338
816.865
794.316
779.923
777.946
698.152
736.931
745.415
730.913
779.387
710.923
704.168
701.515
698.632
694.351
693.231
694.068
697.284
703.075
707.387
712.552
796.479
762.623
752.633
742.128
718.188
741.017
741.605
710.248
710.534
738.895
725.69
711.443
696.104
687.038
687.062
688.703
691.148
692.64
693.407
696.983
783.107
753.411
759.641
733.252
718.804
739.256
739.797
709.675
702.339
724.495
721.179
709.259
692.738
689.259
690.245
691.1
688.847
684.084
683.881
689.246
785.559
756.154
770.954
726.604
718.556
737.418
738.01
710.133
699.305
709.196
707.529
700.014
696.226
698.934
699.078
694.975
684.898
682.868
683.955
689.81
789.627
762.017
775.321
725.983
719.003
735.727
736.686
711.958
696.305
693.209
690.175
694.824
704.593
704.758
700.861
692.471
684.547
685.735
687.449
691.073
796.019
768.511
773.84
725.837
720.192
734.535
735.853
714.686
692.458
685.487
687.77
697.828
704.661
702.519
694.676
688.144
688.371
694.129
693.593
693.036
808.059
778.193
770.303
725.841
720.68
733.731
735.324
716.302
691.886
685.792
689.132
698.192
700.556
694.635
688.126
689.687
696.862
700.885
697.539
695.838
822.575
794.572
770.939
726.685
720.863
733.392
734.883
717.083
692.807
687.891
690.252
694.189
691.824
688.056
689.751
697.582
701.714
701.038
699.21
700.817
835.968
813.234
776.958
728.455
721.489
733.549
734.431
718.092
696.336
690.463
688.089
684.576
684.536
688.494
696.971
701.67
700.196
699.014
700.451
707.899
849.031
828.093
788.627
730.682
722.969
734.028
734.501
719.944
702.298
692.092
684.159
683.176
686.034
694.08
700.538
700.995
699.289
700.131
705.536
717.214
861.737
838.919
795.452
732.49
724.898
734.787
734.858
721.969
706.649
693.15
684.202
684.357
687.745
693.148
697.11
699.397
700.771
705.581
714.541
720.758
894.245
868.781
809.902
739.407
730.233
737.329
736.392
725.468
712.28
697.426
690
690.315
691.389
693.292
696.131
701.303
708.624
718.378
722.15
724.496
1018.85
977.978
883.25
835.17
849.143
861.98
861.349
845.462
822.706
802.2
788.576
790.963
794.842
801.565
812.806
825.021
836.748
849.869
863.375
895.35
980.622
842.271
795.211
804.867
844.862
860.296
859.329
838.78
799.066
767.35
757.597
759.876
764.453
771.1
783.964
801.254
817.313
830.856
843.004
875.39
889.645
793.75
784.047
792.215
841.313
861.064
859.627
836.518
783.693
755.699
763.768
772.502
774.079
773.102
773.653
779.148
790.517
799.626
804.201
821.614
829.812
794.393
782.008
765.859
819.568
859.166
864.96
850.36
781.713
741.786
734.001
728.898
727.896
727.921
728.526
730.033
731.647
733.668
735.751
745.564
840.947
836.056
832.421
806.156
699.697
719.415
720.199
721.064
722.776
723.228
723.092
723.26
724.233
726.135
728.328
734.729
854.821
853.316
854.909
853.62
738.568
742.653
740.969
739.125
737.502
736.414
735.734
735.421
735.539
735.994
736.848
739.748
855.519
853.974
854.971
859.675
747.162
743.536
741.798
740.027
738.734
737.901
737.395
736.945
736.339
736.363
736.671
738.182
839.462
833.828
832.211
844.994
733.41
713.389
712.901
713.287
714.938
717.27
718.539
719.191
720.128
721.947
723.994
727.207
817.103
795.123
780.36
775.846
724.711
737.212
745.56
730.991
763.727
709.613
701.949
699.293
696.519
693.255
693.005
694.02
698.193
704.611
708.626
713.3
797.013
763.895
753.127
737.658
718.22
741.427
741.977
710.815
704.021
732.924
718.974
705.253
690.601
684.58
685.194
688.056
690.945
692.721
693.769
697.846
782.845
752.829
758.99
730.788
718.961
739.699
740.301
710.837
698.289
717.572
714.183
701.393
686.826
686.619
688.937
689.853
687.152
683.477
683.291
689.379
784.739
754.459
764.178
725.652
719.477
737.873
738.619
711.579
696.729
702.872
699.171
689.994
691.485
696.352
695.931
690.8
681.683
680.334
682.087
688.943
788.272
759.058
767.287
724.91
720.415
736.252
737.342
713.569
694.647
687.849
685.086
690.822
699.151
698.49
694.434
685.78
679.996
682.251
684.722
688.747
794.989
765.365
768.672
725.125
720.86
735.172
736.51
715.978
691.982
683.535
685.548
695.695
698.394
694.236
684.228
679.613
682.168
689.661
688.922
689.436
806.779
776.531
769.559
725.822
720.934
734.341
736.046
717.326
691.877
684.532
688.464
695.356
693.936
683.951
678.15
681.423
690.636
694.556
691.765
691.376
820.272
793.379
773.026
727.423
721.25
734.17
735.633
718.046
693.113
687.792
689.429
689.963
684.73
679.423
681.386
690.701
694.914
694.278
693.409
695.218
832.861
810.776
780.67
729.36
722.333
734.369
735.239
719.061
697.745
690.963
686.975
681.193
679.731
681.947
690.388
694.883
692.485
691.979
693.037
700.147
845.862
824.497
789.328
731.642
724.317
734.956
735.36
721.046
704.541
693.157
684.015
680.377
682.237
689.314
694.273
694.229
692.263
692.438
696.277
705.85
858.746
835.475
794.32
733.693
726.562
735.914
735.794
723.287
708.808
694.503
684.015
682.505
685.031
688.965
691.665
693.748
693.644
696.74
701.972
706.255
890.478
865.978
809.996
742.14
732.711
738.896
737.503
726.849
713.85
699.181
690.644
689.957
689.547
689.989
691.741
696.003
701.509
707.813
708.004
708.671
1009.9
976.895
893.624
836.776
849.668
862.118
861.551
846.177
823.816
803.351
788.47
790.111
793.215
799.687
809.923
821.03
832.148
845.15
858.568
890.037
979.787
858.267
797.929
803.127
845.436
860.327
859.479
839.438
800.604
768.798
756.913
757.819
761.175
768
781.21
798.143
812.744
825.598
837.622
869.461
900.02
795.329
785.792
791.034
841.989
860.764
859.468
837.14
785.086
756.017
761.435
763.964
765.545
767.834
772.905
782.715
792.446
797.567
801.074
820.112
831.871
794.7
783.002
768.104
821.201
859.318
864.727
850.327
781.564
737.358
730.473
726.873
726.565
726.93
728.177
729.795
731.395
733.717
736.435
748.401
841.58
836.941
833.485
806.792
718.244
719.003
720.811
722.959
723.531
723.116
722.962
723.471
724.954
727.283
729.825
737.095
855.036
853.629
855.186
853.829
738.465
742.831
741.253
739.491
737.9
736.848
736.105
735.848
736.023
736.613
737.684
740.899
855.347
853.844
854.902
859.608
746.81
743.698
742.225
740.639
739.322
738.363
737.807
737.229
736.746
736.861
737.265
738.954
839.608
833.998
832.443
844.988
733.156
713.862
714.485
715.219
716.627
718.072
719.012
719.818
720.943
722.849
724.825
727.949
817.327
795.398
780.566
776.381
698.315
737.658
746.019
731.447
754.756
702.754
696.704
694.512
693.043
692.782
693.151
695.159
700.071
705.826
709.312
714.155
797.454
764.384
753.125
733.03
717.836
742.068
742.563
711.122
697.672
721.292
708.175
696.749
684.473
681.889
683.214
686.52
689.701
692.38
694.162
699.689
782.428
751.01
754.866
727.468
720.542
740.409
741.091
712.413
693.251
706.481
704.435
690.799
682.026
683.686
686.086
686.079
683.958
682.557
683.04
690.09
783.81
751.793
756.015
723.972
721.806
738.639
739.564
713.669
692.042
694.32
689.136
682.643
685.99
689.117
688.175
684.036
677.792
677.731
679.955
687.051
786.911
755.749
759.636
724.059
721.681
737.081
738.304
715.588
691.443
682.802
681.214
685.571
687.966
687.501
684.522
677.265
675.039
678.795
680.907
684.413
793.675
762.568
765.244
725.002
721.485
736.024
737.439
717.385
691.637
680.993
682.945
688.163
686.834
680.53
672.189
671.47
676.533
683.17
682.583
684.135
804.361
774.921
770.834
726.508
721.594
735.149
736.953
718.478
692.277
682.456
685.064
686.691
682.737
671.16
669.044
673.195
682.531
686.766
685.383
685.858
816.716
791.753
777.211
728.222
722.279
735.075
736.455
719.332
694.729
686.029
684.845
681.89
674.937
670.383
672.583
681.181
686.27
687.191
686.589
688.517
828.743
807.39
783.524
729.984
723.836
735.327
736.152
720.531
700.106
689.58
682.901
676.035
673.121
674.653
681.164
686.308
685.469
685.038
685.802
691.557
841.762
819.955
788.403
732.382
726.159
736.029
736.309
722.601
706.327
692.84
682.404
676.164
676.839
681.273
686.079
687.856
685.821
685.398
687.6
694.246
854.869
830.949
792.096
734.853
728.613
737.129
736.718
724.702
710.07
695.061
683.122
678.608
679.495
681.516
685.121
687.536
687.003
688.669
690.47
694.336
886.433
861.717
809.212
744.971
735.349
740.289
738.432
728.03
715.172
701.16
690.657
686.654
684.061
683.841
686.007
689.669
693.741
697.051
696.672
698.012
1007.13
979.515
901.351
838.583
849.307
861.824
861.442
846.273
824.872
804.277
789.401
790.844
793.84
800.367
810.421
821.094
832
844.929
858.456
890.002
982.447
867.43
800.264
802.175
844.987
859.845
859.184
839.298
801.747
769.544
756.84
757.686
761.581
769.464
783.509
800.015
813.472
825.746
837.766
869.651
907.878
796.901
788.106
790.046
841.713
859.909
859.081
837.122
785.52
756.022
759.431
761.086
763.971
769.046
777.394
789.063
796.335
799.342
802.467
822.645
834.78
795.299
783.731
768.425
822.047
859.346
864.518
850.259
780.64
734.216
729.23
727.781
727.93
728.433
729.739
731.322
733.237
736.195
739.541
753.077
841.731
837.026
834.059
807.933
719.787
720.124
722.751
724.995
724.95
724.263
724.241
724.994
726.778
729.502
732.42
740.482
855.197
853.571
854.901
854.042
739.344
744.14
742.48
740.719
739.229
738.253
737.433
737.391
737.658
738.411
739.695
743.153
855.426
853.715
854.611
859.457
747.509
745.046
743.631
742.159
740.851
739.783
739.088
738.429
738.371
738.564
739.003
740.746
839.759
833.526
831.672
845.064
734.039
715.783
716.891
717.619
718.521
719.304
720.239
721.489
722.952
724.762
726.4
729.509
818.142
795.716
779.797
774.495
709.085
738.299
746.505
731.507
731.422
697.439
692.56
690.761
691.813
693.582
695.493
698.671
702.751
706.867
710.138
716.019
798.303
764.861
753.421
726.322
717.45
742.106
742.65
711.324
690.306
707.908
698.34
692.145
684.298
683.028
684.163
686.37
688.988
692.595
695.782
703.241
783.798
749.762
750.1
724.281
721.347
740.123
740.977
713.29
687.384
695.49
695.833
689.39
683.814
683.786
683.459
682.719
683.063
684.223
686.368
693.857
785.071
750.757
751.602
723.649
722.063
738.192
739.381
714.465
687.537
689.313
687.928
685.159
683.401
683.329
682.561
680.716
679.24
680.606
682.149
687.428
788.208
755.884
757.675
724.239
721.594
736.671
738.052
715.773
688.612
682.269
682.843
683
680.247
678.981
678.323
676.856
678.111
681.193
680.484
683.328
795.052
764.252
766.566
725.581
721.325
735.641
737.156
717.007
690.661
681.165
682.515
681.98
677.462
671.175
670.523
673.98
680.589
682.102
681.137
683.9
805.236