/*--------------------------------*- C++ -*----------------------------------*\
  =========                 |
  \\      /  F ield         | OpenFOAM: The Open Source CFD Toolbox
   \\    /   O peration     | Website:  https://openfoam.org
    \\  /    A nd           | Version:  9
     \\/     M anipulation  |
\*---------------------------------------------------------------------------*/
FoamFile
{
    format      ascii;
    class       volVectorField;
    location    "0.01";
    object      U;
}
// * * * * * * * * * * * * * * * * * * * * * * * * * * * * * * * * * * * * * //

dimensions      [0 1 -1 0 0 0 0];

internalField   nonuniform List<vector> 
9720
(
(-375.879 -379.701 36.2699)
(-289.777 -485.614 26.9854)
(-508.404 -830.743 -2.45082)
(-595.852 -1045.9 -14.09)
(-338.984 -1136.2 -6.96588)
(-92.2842 -1134.26 -12.0056)
(94.7011 -1116.09 -7.76875)
(346.653 -1136.53 -3.24639)
(618.524 -1107.42 -4.94609)
(821.803 -994.133 -6.30187)
(997.437 -878.498 6.57822)
(1085.98 -746.278 1.32599)
(1148.35 -634.884 14.3529)
(1209.2 -547.976 17.77)
(1239.24 -466.746 19.3339)
(1270.69 -397.646 9.40614)
(1316.37 -363.549 14.8978)
(1362.22 -343.626 26.062)
(1408.84 -311.577 35.4648)
(1395.76 -264.38 36.8331)
(-469.488 -290.52 33.4647)
(-750.697 -744.924 2.31179)
(-866.677 -997.074 -15.4036)
(-676.508 -1115.15 -27.2793)
(-375.821 -1120.68 -6.57889)
(-98.0935 -1139.52 -11.6775)
(101.51 -1124.71 -9.10475)
(385.682 -1147.37 -1.9657)
(747.981 -1085.9 3.05382)
(1000.23 -881.153 -23.0245)
(1218.08 -722.429 3.83486)
(1324.71 -596.478 14.0511)
(1414.8 -485.504 21.5085)
(1526.93 -470.121 14.3286)
(1620.43 -449.034 6.62603)
(1658.41 -388.024 12.631)
(1714 -362.794 19.0437)
(1769.18 -340.841 20.9705)
(1821.91 -288.636 21.4019)
(1780.47 -190.959 24.7364)
(-814.505 -488.306 18.4117)
(-995.922 -860.402 7.33381)
(-933.927 -926.156 -12.4134)
(-779.876 -1051.28 -36.1848)
(-405.008 -1139.33 -10.3498)
(-110.979 -1127.8 -10.2239)
(111.76 -1122.35 -8.85836)
(414.042 -1127.53 -4.78126)
(827.332 -994.331 7.22423)
(1101.14 -709.972 -35.405)
(1325.74 -559.994 -17.2263)
(1553.92 -521.209 2.25299)
(1745.8 -548.549 21.457)
(1890.65 -551.093 20.3156)
(1995.58 -538.572 -7.36741)
(2046.1 -486.825 -19.3241)
(2098.18 -457.481 -13.7751)
(2129.72 -423.718 2.4831)
(2174.05 -388.477 6.24346)
(2156.59 -295.921 6.90096)
(-1039.51 -587.181 12.9637)
(-1112.2 -669.208 19.5346)
(-1048.63 -771.348 27.9514)
(-1015.16 -970.337 -41.2094)
(-583.541 -1114.34 -19.8371)
(-197.312 -1128.35 -7.06298)
(42.6497 -1102.34 -6.71827)
(307.91 -1104.92 -4.94468)
(820.945 -1026.27 -13.8406)
(1764.37 -728.351 -5.9984)
(1996.16 -702.567 -14.1215)
(2117.17 -658.78 -11.3696)
(2192.7 -654.863 -11.3048)
(2239.89 -648.886 -6.66288)
(2272.83 -630.594 -2.90459)
(2273.46 -605.244 -2.68542)
(2284.81 -578.302 -2.51986)
(2284.23 -546.226 0.0846864)
(2300.04 -520.694 0.185941)
(2293.52 -449.086 0.792127)
(-1140.66 -339.581 -10.9032)
(-1127.88 -378.536 -10.0887)
(-1142.51 -404.231 -1.97891)
(-1116.6 -560.336 3.34998)
(2014.55 -712.232 -20.1701)
(2350.5 -440.574 1.75169)
(2368.02 -439.863 3.65772)
(2381.61 -429.441 2.03544)
(2396.46 -413.501 1.70199)
(2406.63 -393.106 0.883035)
(2418.52 -373.964 -2.82614)
(2423.63 -355.15 -4.8643)
(2429.67 -337.812 -2.08064)
(2425.84 -320.517 1.70709)
(2430.64 -303.62 -0.250731)
(2419.66 -276.803 -2.76688)
(-1141.49 -93.8007 -7.7256)
(-1146.64 -98.8443 -8.46435)
(-1135.86 -110.97 -9.40923)
(-1127.76 -196.872 -8.22775)
(2348.85 -199.4 -3.81438)
(2370.8 -108.274 1.07911)
(2373.93 -105.999 -0.338801)
(2376.8 -105.753 -1.63479)
(2377.88 -104.643 -3.45735)
(2377.27 -103.049 -4.26354)
(2375.36 -101.061 -4.29843)
(2372.71 -97.654 -3.76564)
(2368.41 -95.4292 -4.91244)
(2364.53 -91.1458 -6.71429)
(2359.67 -90.1453 -6.55967)
(2353 -85.3447 -4.81872)
(-1119.84 94.8525 -9.35418)
(-1127.71 100.704 -10.5498)
(-1123.98 111.228 -9.74878)
(-1108.15 42.027 -8.94466)
(2341.95 25.969 -2.46847)
(2364.3 106.856 2.22278)
(2367.16 102.623 2.42624)
(2370.13 99.4364 2.14566)
(2371.71 96.698 -0.405716)
(2373.65 93.6428 -2.91673)
(2375.83 91.3738 -2.68959)
(2376.36 89.197 -1.22506)
(2376.63 86.5371 -0.603326)
(2377.62 85.0641 -1.84852)
(2380.1 84.6507 -2.88515)
(2380.96 86.5729 -2.71767)
(-1142.88 348.58 -3.62349)
(-1152.98 388.58 -3.06232)
(-1131.33 416.986 -6.41991)
(-1107.33 305.999 -7.70121)
(2350.66 272.305 -3.44327)
(2375.03 438.383 9.39857)
(2387.24 426.655 10.2556)
(2393.17 413.895 -4.33874)
(2398.77 395.74 -14.5676)
(2400.63 382.92 -6.77596)
(2404.65 366.235 8.9097)
(2406.64 352.022 11.1013)
(2406.02 340.21 -0.864974)
(2400.8 322.798 -13.2144)
(2398.85 313.155 -8.18168)
(2395.19 296.077 -2.55113)
(-1110.85 622.205 -8.63598)
(-1086.25 755.41 -1.78932)
(-993.285 838.656 -0.83586)
(-1021.15 846.397 -27.2681)
(-671.455 2109.79 0.53904)
(-200.198 2293.52 -18.7216)
(29.4745 2284.72 -15.2957)
(282.877 2297.5 -14.4207)
(1545.61 1761.83 -97.5726)
(2146.09 1023.02 11.6678)
(2247.55 864.036 -52.3341)
(2298.61 806.16 -21.2662)
(2337.26 751.878 20.7168)
(2360.46 705.005 34.2758)
(2377.68 669.096 13.9659)
(2389.93 625.943 -21.6539)
(2397.51 589.728 -32.6917)
(2401.95 563.223 -12.3313)
(2412.42 535.397 10.9792)
(2412.8 499.055 6.65076)
(-994.007 826.276 -13.3423)
(-876.424 1008.9 -31.797)
(-698.185 1103.77 -48.9604)
(-728.797 1775.81 -31.0274)
(-443.275 2305.52 -17.2058)
(-105.926 2323.06 -13.8707)
(112.338 2315.41 -14.9453)
(452.27 2323.08 -7.22877)
(966.257 2163.22 14.8079)
(1608.91 1686.16 -154.522)
(1967.22 1349.59 -33.3403)
(2083.53 1146.99 79.4758)
(2176.39 1069.37 62.535)
(2232.75 996.81 -0.847736)
(2278.67 925.461 -53.2072)
(2304.35 869.188 -53.381)
(2328.31 825.508 -11.3797)
(2358.85 772.031 35.4234)
(2380.51 747.834 26.3695)
(2392.33 691.293 2.48119)
(-876.086 996.325 -4.47084)
(-714.46 1218.4 -5.23018)
(-557.451 1342.76 -27.1618)
(-683.395 1983 -36.4836)
(-440.095 2323.76 -12.5349)
(-103.68 2328.4 -15.8413)
(107.58 2320.1 -14.2668)
(434.08 2334.79 -3.68042)
(841.422 2231.93 -55.6339)
(1253.15 1960.01 -47.0751)
(1614.14 1660.86 144.696)
(1809.89 1415.88 101.147)
(1978.5 1320.8 -38.7497)
(2068.69 1234.17 -97.3885)
(2127.9 1165.44 -73.756)
(2175.83 1096.13 -1.44667)
(2242.94 1039.78 59.8637)
(2285.95 992.235 53.5914)
(2310 948.738 -5.87844)
(2339.81 864.103 -21.0363)
(-746.819 1088.58 -15.9706)
(-598.466 1333.51 -13.3813)
(-554.028 1570.82 -7.3026)
(-659.954 2095.67 -21.4678)
(-427.562 2339.42 -15.8388)
(-102.28 2332.35 -16.1682)
(103.624 2324.94 -12.448)
(417.983 2343 -16.982)
(790.619 2268.65 -37.8225)
(1093.68 2064.41 53.2702)
(1352.83 1812.35 91.7552)
(1542.3 1573.52 -59.8284)
(1751.71 1463.97 -150.317)
(1852.3 1382.14 -86.7309)
(1947.42 1330.29 14.8743)
(2027.28 1268.54 79.6372)
(2107.02 1227.21 67.2799)
(2157.72 1155.74 -7.60201)
(2191.14 1091.88 -51.5054)
(2247.04 1014.89 -23.0631)
(-638.608 1153.57 -2.75652)
(-498.938 1426.37 -7.97931)
(-576.604 1759.6 -2.50363)
(-664.764 2170.84 -22.2704)
(-409.157 2354.46 -16.0794)
(-100.23 2334.49 -16.7022)
(100.368 2327.69 -14.4417)
(398.097 2349.13 -25.6232)
(740.585 2299.13 3.53638)
(1036.35 2154.55 50.3782)
(1279.14 1970.16 -37.1361)
(1419.98 1754.35 -146.303)
(1593.46 1620.23 -100.562)
(1746.03 1518.34 45.9919)
(1851.05 1470.28 111.746)
(1913.36 1430.12 76.9628)
(1989.91 1381.87 -14.8772)
(2039.38 1285.75 -81.0858)
(2072.92 1250.94 -51.8507)
(2166.61 1167.14 4.57778)
(-550.115 1212.03 1.90223)
(-474.011 1529.06 -11.0041)
(-534.368 1876.58 -4.39532)
(-645.804 2201.23 -23.6319)
(-388.581 2364.84 -14.3994)
(-98.5508 2334.23 -17.0469)
(96.9244 2330.73 -17.8854)
(383.427 2350.52 -16.5127)
(692.254 2320.13 24.1916)
(974.06 2207.9 -2.03769)
(1203.36 2055.94 -99.4121)
(1353.59 1857.21 -89.3227)
(1483.01 1756.01 44.5897)
(1653.17 1671.87 145.109)
(1768.62 1594.77 97.5315)
(1827.65 1508.19 -22.4946)
(1879.22 1458.76 -98.5969)
(1912.6 1404.3 -80.2324)
(1980.33 1395.26 7.47527)
(2093.26 1311.94 36.3759)
(-468.916 1240.41 3.82761)
(-448.332 1610.76 -16.3261)
(-514.559 1964.9 -26.3353)
(-624.416 2225.06 -22.0233)
(-369.398 2376.8 -15.6881)
(-97.0082 2332.56 -17.2884)
(94.0278 2333.03 -18.0715)
(364.706 2353.67 -0.52153)
(657.768 2338.46 7.39334)
(906.241 2250.53 -55.9986)
(1137.72 2108.43 -82.6284)
(1307.79 1946.66 6.42893)
(1456.38 1866.98 113.599)
(1581.34 1791.3 105.992)
(1688.09 1710.17 -22.1454)
(1736.81 1588.64 -118.427)
(1773.61 1522.19 -94.2167)
(1831.37 1489.5 1.56)
(1906.87 1498.91 62.0545)
(2002.59 1424.85 35.7951)
(-399.777 1269.49 -4.44673)
(-388.605 1647.58 -7.11405)
(-477.02 2017.09 -32.5283)
(-596.472 2229.04 -19.5194)
(-350.304 2381.12 -15.0779)
(-94.2104 2330.16 -17.9203)
(91.6218 2333.8 -15.7299)
(349.71 2354.39 0.770056)
(616.062 2347.58 -28.1215)
(849.698 2269.29 -60.3199)
(1072.8 2151.7 -12.4959)
(1252.27 2026.22 74.7938)
(1426.37 1938.52 85.8683)
(1514.16 1869.38 -10.0606)
(1583.87 1780.44 -111.994)
(1620.94 1651.32 -103.667)
(1673.46 1574.47 -6.43826)
(1766.43 1543.96 79.9875)
(1814.79 1549.66 58.3249)
(1906.5 1482.38 1.86795)
(-366.51 1315.55 -2.55956)
(-364.24 1703.88 -1.88934)
(-458.318 2071.65 -24.0985)
(-569.132 2244.75 -16.3803)
(-331.961 2386.16 -11.124)
(-92.1544 2326.04 -20.0238)
(87.9114 2334.71 -13.3939)
(336.375 2354.01 -12.2847)
(577.945 2349.89 -40.5459)
(806.423 2287.36 -20.8307)
(1014.17 2213.84 50.6205)
(1208.19 2100.12 66.8944)
(1375.04 2004.88 -3.22763)
(1463.31 1912.18 -92.9457)
(1538.81 1820.54 -92.4995)
(1577.07 1711.92 -6.81482)
(1640.71 1650.41 79.0153)
(1714.85 1604.1 78.9625)
(1744.89 1568.12 4.46976)
(1816.85 1524.39 -25.5278)
(-347.763 1362.67 7.37275)
(-343.483 1758.03 0.877877)
(-423.86 2098.92 -7.42436)
(-537.441 2245.68 -11.9405)
(-313.762 2382.37 -8.05282)
(-88.0189 2321.56 -21.3655)
(86.1972 2336.55 -14.1232)
(317.749 2348.97 -23.4299)
(548.825 2350.36 -20.0671)
(752.307 2313.65 24.9104)
(965.517 2251.46 46.0462)
(1140 2142.54 -5.36914)
(1278.91 2043.75 -77.5689)
(1411.36 1938.01 -83.9854)
(1504 1868.46 -4.50625)
(1562.52 1802.49 87.9678)
(1606.59 1746.9 87.9232)
(1646.53 1674.3 22.3176)
(1668.41 1603 -39.449)
(1736.35 1572.67 -16.2139)
(-315.496 1409.97 18.4374)
(-294.304 1809.23 4.66562)
(-387.016 2139.49 -3.1932)
(-510.884 2259.39 -11.5917)
(-296.036 2386.5 -12.2488)
(-87.5748 2316.01 -20.8337)
(86.334 2339.63 -15.4147)
(308.276 2349.54 -17.6006)
(519.851 2356.21 1.32501)
(726.228 2328.19 16.3322)
(922.091 2264.95 -10.1072)
(1074.18 2164.97 -51.6932)
(1240.12 2068.95 -55.1795)
(1391.66 1996.51 -0.331548)
(1500.34 1939.43 67.6811)
(1563.8 1852.3 74.7468)
(1580.61 1784.22 21.513)
(1600.05 1698.87 -33.4017)
(1637.73 1640.1 -27.1138)
(1723.12 1620.47 26.0341)
(-267.406 1395.99 23.4621)
(-200.107 1769.15 11.1941)
(-292.473 2121.05 -1.49391)
(-435.927 2249.92 -10.2235)
(-269.903 2372.93 -15.233)
(-82.5814 2307.77 -18.9756)
(87.9096 2339.97 -15.3483)
(290.757 2349.66 -11.5413)
(483.381 2356.98 -3.65827)
(669.694 2334.83 -6.21053)
(838.839 2287.13 -26.3418)
(993.233 2209.02 -28.4685)
(1148.24 2144.49 -3.33485)
(1295.7 2090.47 33.3676)
(1420.66 2014.42 45.5076)
(1485.33 1927.62 21.0586)
(1523.96 1840.72 -12.1178)
(1572.74 1747.38 -11.7116)
(1616.26 1717.64 31.1099)
(1695.57 1695.69 54.2456)
(-373.331 -378.696 45.6606)
(-291.391 -504.058 64.198)
(-537.097 -868.234 26.1627)
(-601.949 -1073.65 -4.34551)
(-336.055 -1155.12 -11.5391)
(-90.8376 -1155.11 -10.5086)
(96.3313 -1133.65 -6.93628)
(349.611 -1155.69 -4.30167)
(624.845 -1125.16 0.76679)
(827.517 -1009.38 -2.50606)
(1005.98 -891.642 15.3954)
(1094.01 -755.575 12.9255)
(1155.34 -641.239 29.1116)
(1219.3 -553.402 36.5533)
(1248.65 -470.647 41.6168)
(1277.25 -399.675 27.4005)
(1321.09 -363.586 31.4278)
(1367.42 -343.739 39.9912)
(1414.95 -311.049 52.834)
(1401.66 -262.927 53.4907)
(-481.358 -293.522 69.0567)
(-777.964 -780.151 45.028)
(-868.668 -1025.86 -5.31843)
(-680.768 -1146.84 -11.6398)
(-368.203 -1144.64 -9.58022)
(-96.9295 -1161.9 -10.5478)
(103.74 -1145.98 -8.3031)
(388.086 -1169.11 -4.24897)
(755.088 -1107.56 14.7708)
(1008.62 -898.165 -11.1795)
(1231.04 -733.72 12.9906)
(1343.27 -608.003 28.0252)
(1432.05 -491.551 43.3163)
(1548.5 -476.011 44.0525)
(1649.25 -455.59 47.5347)
(1680.66 -390.778 48.3415)
(1730.85 -361.168 45.7383)
(1784.67 -340.569 42.101)
(1839 -289.587 44.7109)
(1798.02 -190.088 49.9792)
(-841.393 -516.541 47.688)
(-1011.61 -876.135 15.1342)
(-933.945 -947.833 7.69965)
(-779.201 -1102.02 -3.33579)
(-394.401 -1168.45 -9.14189)
(-109.079 -1153.61 -9.80217)
(112.487 -1149.1 -7.31778)
(415.82 -1155.39 -5.4502)
(834.469 -1019.31 22.5811)
(1122.35 -729.839 -8.27408)
(1348.9 -566.977 7.86791)
(1577.99 -518.9 22.1449)
(1768.04 -550.891 39.4967)
(1918.57 -567.249 43.6069)
(2033.92 -560.235 30.1338)
(2079.74 -506.052 21.8679)
(2127.17 -466.838 20.2901)
(2155.96 -427.713 26.1564)
(2200.61 -392.61 27.8864)
(2185.13 -301.276 34.1864)
(-1059.37 -598.342 23.0983)
(-1133.19 -684.354 21.737)
(-1072.13 -799.102 34.3386)
(-1000.46 -1034.8 -28.678)
(-548.883 -1147.86 -11.3442)
(-196.245 -1152.38 -5.0823)
(43.0583 -1133.03 -5.93203)
(306.625 -1132.01 -3.02332)
(816.885 -1061.74 10.478)
(1803.95 -731.805 19.5719)
(2039.61 -712.669 19.2852)
(2156.96 -665.411 24.9707)
(2229.55 -654.863 17.4075)
(2277.79 -650.468 13.3255)
(2313.08 -632.987 15.8342)
(2312.78 -610.525 17.6961)
(2319.52 -584.086 19.9481)
(2315.83 -552.576 25.1196)
(2330.09 -527.616 26.1979)
(2323.74 -459.87 29.6859)
(-1157.34 -343.928 -8.07527)
(-1148.8 -383.453 -6.10957)
(-1171.74 -409.568 0.18449)
(-1148.33 -581.401 7.63897)
(2053.61 -717.276 12.7692)
(2396.45 -440.41 12.2208)
(2411.56 -440.406 15.8318)
(2422.95 -430.916 15.8142)
(2435.14 -415.587 15.0481)
(2443.27 -395.334 15.4859)
(2452.99 -375.665 13.8265)
(2457.43 -356.793 11.9564)
(2463.31 -339.676 14.5882)
(2458.94 -323.257 19.3546)
(2462.98 -307.175 18.3863)
(2452.26 -280.612 18.6962)
(-1157.85 -94.1078 -4.30305)
(-1164.69 -99.3791 -5.52887)
(-1157.97 -109.878 -6.43611)
(-1160.99 -195.344 -5.22003)
(2396.1 -199.39 8.08173)
(2418.64 -108.74 9.11826)
(2418.48 -105.905 8.42023)
(2418.03 -104.87 8.9985)
(2416.73 -104.079 9.63937)
(2414.62 -102.988 10.466)
(2411.28 -101.352 11.046)
(2407.93 -97.2507 12.0959)
(2402.47 -94.9809 11.5793)
(2397.42 -90.7348 10.1244)
(2392.15 -89.7307 10.7935)
(2384.36 -85.5612 13.5664)
(-1136.67 94.5101 -5.85233)
(-1147.97 100.777 -6.86678)
(-1148.47 111.419 -5.32863)
(-1136.75 41.976 -5.10624)
(2388.19 26.4611 8.86088)
(2412.66 107.349 10.1076)
(2411.55 103.74 11.7069)
(2411.71 100.315 13.9531)
(2411.26 97.1886 13.6947)
(2411.32 93.9033 12.2829)
(2411.99 91.5217 12.5479)
(2411.23 90.15 14.1341)
(2410.3 87.8249 16.2501)
(2410.53 85.7199 16.3523)
(2412.09 85.1926 15.5818)
(2412.42 86.4176 15.5535)
(-1159.77 348.951 -2.3729)
(-1171.82 387.898 -3.91425)
(-1155.72 415.695 -4.66085)
(-1134.6 303.501 -3.43308)
(2395.68 272.347 9.52526)
(2420.69 438.88 16.9314)
(2432.77 427.673 24.4711)
(2437.09 416.405 14.3597)
(2438.56 397.057 1.16353)
(2437.61 382.55 4.58183)
(2439.86 368.655 20.2537)
(2442.58 353.107 28.939)
(2442.77 342.378 21.7032)
(2436.15 325.269 7.4525)
(2432.29 313.785 8.15612)
(2428.53 297.769 14.8497)
(-1127.76 625.414 -1.94776)
(-1106.76 758.077 7.57663)
(-1016.09 840.305 10.6176)
(-1049.53 834.799 3.99711)
(-778.827 2228.47 -0.759387)
(-199.839 2366.5 -12.8594)
(30.3588 2355.83 -9.50342)
(285.935 2368.8 -10.3766)
(1542.67 1835.95 -33.9491)
(2208.4 1048.29 52.088)
(2292.95 869.375 -35.0688)
(2333.12 801.292 -19.9922)
(2368.62 751.18 20.4671)
(2397.79 706.199 47.5887)
(2417.53 672.974 39.9446)
(2426.66 633.91 9.60755)
(2429.27 589.522 -13.6353)
(2430.41 560.948 -2.78132)
(2443.53 538.125 22.9777)
(2445.72 502.499 27.2086)
(-1009.8 829.304 -10.8527)
(-895.78 1013.74 -24.8032)
(-718.562 1120.08 -27.8384)
(-726.572 1814.24 -10.0737)
(-441.266 2377.26 -11.4956)
(-105.758 2397.97 -10.2898)
(113.311 2390.92 -10.9823)
(455.898 2398.61 -6.90775)
(983.001 2252.84 46.5293)
(1643.78 1735.47 -124.726)
(1982.6 1353.91 -71.6521)
(2115.16 1154.25 75.6484)
(2220.31 1076.34 91.4486)
(2275.77 1009.08 45.7514)
(2314.44 933.334 -14.9318)
(2334.07 863.576 -35.8186)
(2353.27 821.339 -8.64481)
(2386 777.297 43.4738)
(2415.15 750.912 51.064)
(2422.71 698.024 32.9587)
(-891.947 1004.39 3.95275)
(-726.822 1226.87 -2.69962)
(-565.677 1361.25 -4.15381)
(-695.035 2034.01 -12.9891)
(-439.6 2389.73 -6.71519)
(-102.77 2396.36 -11.6663)
(108.924 2387.69 -9.7288)
(436.276 2404.25 1.65076)
(852.082 2302.75 -36.8198)
(1264.48 2000.69 -71.8981)
(1635.14 1694.38 123.886)
(1874.57 1461.17 168.988)
(2031.5 1349.29 42.0943)
(2106.66 1240.28 -55.0608)
(2158.15 1159.03 -62.8166)
(2200.2 1093.89 -7.64335)
(2268.65 1046.91 63.8336)
(2326.05 999.033 83.2792)
(2343.21 962.434 38.9277)
(2367.41 870.871 11.8016)
(-759.222 1096.71 -0.954748)
(-614.137 1351.23 -2.51673)
(-545.072 1590.58 9.50092)
(-660.096 2147.74 4.74489)
(-430.081 2400.34 -9.43803)
(-101.494 2394.31 -11.7344)
(104.381 2386.24 -7.60636)
(421.375 2408.16 -8.8484)
(789.943 2326.34 -36.0818)
(1101.64 2112.92 51.8439)
(1395.85 1892.15 155.13)
(1612.07 1648.75 50.1202)
(1798.39 1490.12 -110.088)
(1878.76 1389.54 -87.562)
(1967.47 1339.05 1.38475)
(2058.59 1283.78 91.8282)
(2149.97 1243.58 106.668)
(2197.15 1178.48 56.2044)
(2217.69 1101.28 -10.4746)
(2273.25 1015.58 1.85744)
(-647.264 1159.7 16.6045)
(-506.334 1441.41 14.8455)
(-576.734 1779.14 12.8355)
(-660.885 2218.33 -0.0219834)
(-413.501 2411.03 -12.3728)
(-100.078 2391.73 -11.8133)
(101.162 2385.83 -8.80059)
(400.468 2407.98 -21.6938)
(742.425 2348.3 -1.7465)
(1044.86 2209.19 72.7246)
(1307.85 2034.16 34.5603)
(1445.42 1808.43 -107.719)
(1604.4 1633.39 -112.774)
(1748.25 1532.81 15.8402)
(1881.29 1494.83 124.46)
(1958.51 1454.43 126.961)
(2026.57 1406.14 58.4971)
(2065.23 1298.62 -27.8568)
(2097.26 1246.71 -29.214)
(2188.2 1170.13 20.5663)
(-557.561 1220.64 25.2722)
(-480.387 1548.8 23.4084)
(-557.987 1911.87 21.2667)
(-648.812 2255.25 -10.0933)
(-393.064 2417.95 -11.3397)
(-98.9639 2388.53 -12.4594)
(97.671 2385.67 -12.4581)
(384.5 2404.7 -17.8)
(696.897 2372.12 28.7163)
(988.906 2264.45 36.4257)
(1214.06 2105.81 -60.7387)
(1360.83 1889.09 -91.9546)
(1496.36 1764.17 14.667)
(1666.83 1691.03 151.67)
(1808.18 1627.41 149.908)
(1864.77 1537.11 65.7564)
(1902.82 1470.15 -38.2937)
(1935.76 1401.93 -49.41)
(1993.74 1396.93 13.2466)
(2115.44 1320.48 59.9265)
(-475.168 1249.69 31.6193)
(-461.618 1643.64 28.8673)
(-548.215 2014.76 14.8613)
(-629.901 2283.38 -9.84169)
(-372.943 2426.86 -11.3312)
(-97.7044 2384.53 -13.6602)
(94.4736 2384.57 -14.0292)
(368.52 2404.79 -1.70332)
(664.077 2393.14 23.9328)
(919.592 2301.46 -23.6416)
(1136.71 2150.23 -74.3177)
(1316.45 1970.92 -12.2299)
(1473.66 1893.19 115.798)
(1609.91 1825.83 152.03)
(1721.13 1741.14 60.4965)
(1759.68 1608.18 -51.9917)
(1793.13 1530.53 -58.0613)
(1845.31 1496.38 13.4728)
(1929.6 1514.36 92.0771)
(2026.17 1443.41 83.0739)
(-403.799 1275.83 19.0692)
(-399.886 1676.64 32.6661)
(-503.61 2061.94 9.06237)
(-605.954 2284.63 -5.96208)
(-353.357 2429.59 -12.4051)
(-94.142 2380.52 -14.3253)
(92.7758 2382.96 -12.5285)
(352.048 2406.24 6.15607)
(627.096 2401.19 -6.92035)
(849.972 2313.97 -49.8864)
(1075.24 2185.54 -24.2877)
(1266.42 2057.44 76.2413)
(1444.78 1975.89 120.87)
(1534.72 1894.25 65.4375)
(1599.01 1795.41 -50.8856)
(1634.34 1662.94 -66.4375)
(1689.94 1587.07 13.5661)
(1786.14 1559.95 119.647)
(1844.23 1571.42 123.151)
(1927.11 1499.39 70.029)
(-367.929 1320.12 19.4952)
(-372.095 1727.93 28.9709)
(-473.706 2111.39 9.04646)
(-578.934 2293.41 -0.421539)
(-335.356 2433.9 -9.29129)
(-92.0105 2374.5 -15.8452)
(89.9228 2381.99 -9.72331)
(340.092 2406.56 -2.33162)
(581.807 2397.67 -32.7213)
(807.431 2325.93 -25.7716)
(1026.26 2247.29 47.1967)
(1223.92 2144.55 95.8897)
(1397.22 2039.34 56.4656)
(1472.61 1929.16 -41.3193)
(1542.41 1831.97 -62.4327)
(1588.26 1724.33 8.36056)
(1658.49 1666.9 117.468)
(1740.97 1623.39 147.463)
(1766.72 1585.95 93.256)
(1835.79 1525.91 39.0675)
(-348.603 1367.38 25.3667)
(-351.673 1780.15 26.58)
(-433.806 2135.05 16.136)
(-547.699 2289.88 7.1607)
(-318.545 2428.98 -4.5218)
(-87.7611 2368.23 -16.4361)
(87.148 2382.75 -8.31509)
(321.505 2398.79 -16.0545)
(551.163 2393.36 -21.9645)
(762.832 2353.24 24.9589)
(975.898 2300.16 68.1442)
(1162.56 2187.88 47.4097)
(1294.45 2071.63 -33.9273)
(1408.07 1956.48 -60.1101)
(1508.93 1875.5 0.573781)
(1574.55 1815.54 119.128)
(1626.88 1766.21 153.089)
(1669.64 1696.33 115.283)
(1681.42 1610.41 32.4663)
(1746.57 1571.37 31.6071)
(-316.346 1416.42 39.0411)
(-302.824 1833.54 32.1843)
(-396.905 2176.29 19.2707)
(-521.563 2301.88 9.42241)
(-302.093 2432.01 -6.68394)
(-87.2284 2362.13 -14.4551)
(86.2612 2383.97 -8.07472)
(310.459 2395.62 -14.3893)
(527.146 2402.5 4.42131)
(734.026 2377.22 34.0265)
(940.27 2312.41 26.5388)
(1088.3 2201.3 -19.2465)
(1240.1 2096 -39.1802)
(1395.73 2007.18 -0.218976)
(1513.05 1956.05 89.9075)
(1581.75 1875.39 133.757)
(1597.2 1802.55 106.489)
(1606.79 1714.65 40.1917)
(1639.45 1643.54 21.466)
(1726.33 1620.73 62.2877)
(-267.326 1403.1 44.179)
(-204.166 1793.29 40.0631)
(-303.477 2159.86 27.3864)
(-452.488 2292.42 15.1173)
(-276.202 2419.25 -4.59515)
(-83.1524 2352.42 -9.88374)
(87.2387 2383.29 -7.46737)
(294.2 2394.14 -5.66825)
(490.666 2404.07 8.86655)
(680.94 2380.7 16.5135)
(850.827 2329.41 -1.5188)
(998.887 2245.46 -10.5399)
(1155.9 2171.77 7.41403)
(1306.33 2113.17 50.6588)
(1436.84 2037.16 85.9415)
(1503.44 1944.63 84.2246)
(1528.94 1857.61 52.7007)
(1572.74 1760.19 39.802)
(1618.52 1721.35 71.0451)
(1698.59 1698.68 93.0296)
(-375.853 -379.986 39.745)
(-307.759 -544.585 73.4833)
(-587.973 -916.411 32.1433)
(-608.171 -1109.82 5.91766)
(-334.891 -1179.2 -5.94043)
(-90.0316 -1181.32 -4.16938)
(98.0309 -1157.22 -5.6632)
(353.539 -1180.41 -1.79501)
(632.23 -1149.96 7.08099)
(835.446 -1031.31 -1.88671)
(1017.35 -912.023 17.2657)
(1109.65 -773.773 12.1739)
(1167.99 -653.576 27.8536)
(1234.67 -565.131 37.7769)
(1271.93 -484.4 46.1247)
(1299.32 -412.545 29.4125)
(1339 -368.266 32.3564)
(1383.48 -346.85 38.4825)
(1434.58 -315.453 51.3623)
(1424.35 -264.978 51.9184)
(-522.846 -301.981 76.0632)
(-841.154 -833.685 48.8452)
(-873.969 -1048.51 2.11115)
(-693.894 -1164.71 10.5886)
(-369.723 -1172.81 -2.23698)
(-96.4189 -1188.04 -5.45779)
(104.315 -1169.49 -7.29027)
(392.659 -1193.96 -4.07124)
(763.329 -1130.52 22.0009)
(1025.07 -920.747 -9.04603)
(1248.72 -748.73 11.4837)
(1380.87 -629.048 19.9148)
(1462.26 -497.771 41.701)
(1576.43 -475.349 47.0275)
(1704.48 -470.935 58.337)
(1739.18 -409.486 55.3398)
(1778.81 -364.705 47.5479)
(1826.14 -343.926 40.1119)
(1883.84 -297.706 41.651)
(1848.62 -196.663 46.7079)
(-896.594 -560.786 40.8572)
(-1042.07 -877.513 1.71677)
(-935.659 -946.344 26.0742)
(-789.973 -1119 26.7314)
(-395.743 -1192.97 -1.20979)
(-107.939 -1179.53 -7.43406)
(112.979 -1171.61 -7.54587)
(420.857 -1179.92 -6.3278)
(844.23 -1037.26 21.4799)
(1155.38 -749.751 -1.84376)
(1395.13 -586.772 12.7904)
(1623.82 -512.641 20.5023)
(1809.29 -529.824 36.1754)
(1960.46 -570.942 42.4772)
(2099.04 -589.787 40.5896)
(2156.35 -544.699 36.4913)
(2195.72 -488.857 33.6987)
(2217.49 -432.055 31.218)
(2264.11 -395.686 25.2565)
(2255.77 -308.322 28.6808)
(-1092.6 -610.639 13.1147)
(-1160.24 -696.538 2.50653)
(-1104.15 -815.186 2.63249)
(-1007.57 -1055.81 -22.1519)
(-551.513 -1166.79 1.45381)
(-192.851 -1178.03 -6.51006)
(44.0797 -1158.21 -9.04465)
(308.877 -1159.04 -2.82287)
(829.593 -1087.67 11.3901)
(1864.97 -726.473 21.5827)
(2109.36 -735.576 26.3477)
(2224.16 -694.651 39.8521)
(2293.86 -654.715 30.1394)
(2345.74 -645.364 17.2303)
(2393.18 -632.216 15.5814)
(2400.99 -613.853 18.1658)
(2401.89 -591.642 20.7382)
(2392.63 -562.331 26.4675)
(2402.73 -538.672 25.5889)
(2398.13 -476.809 27.0152)
(-1179.6 -346.456 -6.21213)
(-1171.83 -384.673 -5.30147)
(-1193.27 -410.359 -2.30194)
(-1175.11 -588.363 2.86543)
(2126.34 -781.126 6.41169)
(2461.75 -446.439 14.705)
(2481.7 -444.581 14.7742)
(2495.97 -434.441 12.853)
(2508.37 -420.331 11.9824)
(2517.02 -401.182 14.5058)
(2525.65 -381.133 11.886)
(2530.34 -361.276 7.09754)
(2538.44 -343.747 7.77439)
(2534.94 -328.267 13.7427)
(2538.57 -313.322 14.6732)
(2529.3 -287.342 15.1009)
(-1178.2 -94.5897 -1.60096)
(-1183.29 -99.3623 -3.59523)
(-1173.88 -109.646 -6.18081)
(-1176.37 -194.771 -4.94384)
(2438.83 -201.265 11.1839)
(2484.83 -109.988 9.13829)
(2487.68 -107.033 9.45904)
(2490.51 -105.522 9.18862)
(2490.81 -104.377 8.23834)
(2489.69 -103.632 7.93654)
(2487.15 -102.502 7.89005)
(2484.5 -98.9117 9.09045)
(2479.26 -96.0522 9.98005)
(2473.99 -91.8769 9.08112)
(2468.42 -90.4731 8.89498)
(2459.61 -86.9181 10.9562)
(-1158.28 93.5531 0.861704)
(-1169.9 101.315 0.350844)
(-1169.61 112.686 -0.574618)
(-1158.04 44.6376 -0.0402052)
(2432.94 26.9164 11.5656)
(2478.97 107.712 12.4171)
(2481.83 103.723 12.0203)
(2484 100.872 14.3108)
(2485.42 97.8844 14.7205)
(2486.72 95.0458 12.5754)
(2488.22 91.6554 10.8427)
(2487.8 90.3091 11.2347)
(2486.91 88.8633 13.5238)
(2487.01 86.4451 15.1216)
(2487.89 85.3755 14.0455)
(2487.98 86.1166 13.2082)
(-1180.31 349.216 3.68067)
(-1191.59 387.775 1.35981)
(-1175.78 415.296 -1.00002)
(-1157.71 307.715 -0.190556)
(2441.3 275.29 14.2787)
(2484.38 441.428 9.09098)
(2499.77 430.397 25.7525)
(2509.96 419.744 23.0079)
(2514.24 403.407 7.86473)
(2512.95 383.978 1.21241)
(2513.21 371.751 11.4926)
(2518.18 356.418 26.0979)
(2522.82 344.305 25.2659)
(2518.64 331.019 12.9916)
(2511.48 317.346 7.264)
(2507.17 300.521 12.1999)
(-1152.3 629.026 6.90408)
(-1131.04 755.606 17.8902)
(-1041.44 831.003 13.8145)
(-1085.95 818.767 -0.396869)
(-756.405 2108.19 -25.0182)
(-198.506 2428.49 -12.4271)
(30.334 2420.84 -7.4714)
(283.03 2432.84 -9.56781)
(1801.31 1697.26 -5.86802)
(2300.35 1032.1 85.927)
(2382.05 886.48 -4.62807)
(2407.19 802.51 -26.69)
(2430.73 751.655 -1.74571)
(2462.12 707.928 37.3109)
(2492.77 673.741 49.023)
(2507.52 643.558 29.7158)
(2508.94 600.864 -2.51898)
(2501.92 562.626 -6.62881)
(2512.83 544.494 13.5726)
(2521.13 508.68 24.3901)
(-1033.3 831.751 -6.69657)
(-925.589 1015.86 -13.2094)
(-752.614 1126.56 -15.0859)
(-739.569 1826.18 -3.20149)
(-442.849 2442.99 -11.2681)
(-105.521 2466.47 -9.48973)
(112.819 2460.29 -8.66674)
(453.228 2464.96 -12.4272)
(1013.66 2295.26 70.9526)
(1728.95 1751.83 -39.9415)
(2035.24 1331.88 -113.555)
(2161.81 1148.4 25.6042)
(2283.72 1071.18 92.4715)
(2353.33 1015.48 79.6272)
(2394.68 952.961 24.6597)
(2410.69 874.773 -23.7649)
(2419.85 821.424 -19.6168)
(2442.62 784.399 23.3549)
(2485.63 757.075 51.6291)
(2497.91 707.926 40.0061)
(-915.189 1011.65 7.64495)
(-746.806 1228.96 5.38839)
(-603.1 1378.68 1.10338)
(-738.867 2080.07 -14.9081)
(-441.233 2461.84 -6.99876)
(-102.696 2469 -10.8796)
(107.872 2461.78 -8.78797)
(438.252 2479.67 5.27352)
(883.66 2374.16 -16.7913)
(1302.5 2034.67 -118.189)
(1652.24 1676.27 27.431)
(1960.21 1470.21 193.065)
(2124.1 1375.94 124.344)
(2189.11 1270.97 5.125)
(2232.6 1169.03 -54.9164)
(2262.14 1095.42 -32.8555)
(2315.35 1051.27 35.0249)
(2393.8 1004.31 86.9393)
(2422.55 977.053 64.5364)
(2441.49 889.772 25.5031)
(-780.856 1107.88 -1.24433)
(-638.386 1372.51 -5.23069)
(-536.998 1614.08 13.3834)
(-700.6 2202.24 14.4318)
(-431.213 2476.52 -7.764)
(-100.377 2471.24 -11.64)
(104.697 2463.19 -6.24691)
(425.351 2489.19 1.88538)
(800.974 2396.82 -46.5205)
(1121.75 2152.31 8.447)
(1439.15 1968.45 181.22)
(1747.05 1763.5 165.926)
(1914.69 1566 -28.1358)
(1961.95 1409.6 -86.7173)
(2026.21 1349.55 -37.7203)
(2110.51 1296.45 63.0673)
(2217.57 1261.68 121.776)
(2286.88 1209.05 100.993)
(2298.4 1138.33 21.8155)
(2345.31 1032.04 3.8978)
(-663.192 1167.65 15.526)
(-516.606 1459.65 16.7206)
(-554.116 1805.51 10.4974)
(-664.365 2277.43 17.7381)
(-416.698 2489.28 -10.6751)
(-99.3818 2470.97 -11.3465)
(101.626 2465.37 -5.55785)
(406.901 2492.4 -13.7747)
(747.598 2413.72 -23.6372)
(1053.79 2267.44 73.6632)
(1358.48 2116.24 109.011)
(1549.84 1908.13 -31.3108)
(1672.72 1676.92 -126.421)
(1780.65 1541.21 -42.868)
(1915.08 1503.55 89.2962)
(2024.6 1474.52 153.554)
(2104.81 1441.57 116.734)
(2148.84 1346.47 22.7609)
(2166.86 1262.46 -27.7882)
(2246.2 1183.29 7.94817)
(-574.025 1232.48 24.8899)
(-484.353 1570.68 33.1701)
(-579.636 1952.23 16.2768)
(-651.829 2327.02 0.0455135)
(-397.783 2497.62 -8.20622)
(-99.2123 2469.64 -10.6475)
(98.1505 2467.23 -7.39476)
(386.684 2488.32 -19.7182)
(703.091 2441.06 16.8828)
(1005.74 2340.54 62.6116)
(1261.77 2182.63 -9.66624)
(1397.76 1956.12 -96.2556)
(1521.97 1781.79 -44.3968)
(1674.55 1692.41 107.425)
(1852.15 1652.99 179.139)
(1936.14 1579.86 136.287)
(1979.01 1514 18.1262)
(2005.72 1420.24 -40.2069)
(2038.63 1404.33 -11.9813)
(2163.94 1334.17 50.8485)
(-494.33 1270.57 33.5288)
(-487.434 1698.02 40.0015)
(-598.023 2083.86 21.412)
(-637.062 2373.31 -6.46716)
(-377.603 2506.1 -8.63274)
(-98.5575 2466.97 -9.49667)
(94.6266 2467.18 -8.9885)
(373.313 2486.14 -8.20751)
(669.285 2473.01 30.3585)
(946.132 2384.12 8.39246)
(1158.82 2223.59 -71.4255)
(1333.84 2018.88 -51.7599)
(1481.53 1911.04 79.6698)
(1633.13 1857.55 176.047)
(1775.14 1781.38 132.429)
(1832.73 1653.86 9.1697)
(1853.09 1553.39 -53.0323)
(1888.99 1508.26 -13.6844)
(1970.61 1527.25 79.1645)
(2083.85 1465.69 98.9864)
(-421.695 1296.99 19.5)
(-429.5 1739.31 36.6439)
(-557.357 2142.5 22.9278)
(-617.524 2382.45 -3.58845)
(-357.418 2509.63 -9.90363)
(-95.2556 2463.91 -8.27888)
(92.9988 2465.93 -8.1631)
(356.727 2490.29 6.73268)
(639.449 2489.44 11.2409)
(867.665 2396.72 -41.2148)
(1083.77 2249.51 -50.9717)
(1280.39 2100.16 44.8604)
(1462.46 2020.95 138.281)
(1576.6 1934.85 127.756)
(1654.41 1836.59 6.78688)
(1685 1694 -65.7362)
(1731.86 1610.55 -16.1228)
(1823.56 1573.22 98.4552)
(1905.18 1599.37 153.747)
(1985.71 1536.76 105.835)
(-377.033 1338.2 22.2301)
(-388.834 1783.32 25.3075)
(-508.543 2186.11 17.6908)
(-594.73 2384.62 1.56025)
(-339.766 2517.13 -7.10399)
(-92.782 2458.66 -8.81175)
(91.1737 2465.64 -5.76601)
(343.887 2495.4 4.9759)
(596.878 2487.37 -21.1519)
(812.429 2399.49 -37.3458)
(1037.7 2298.11 16.6424)
(1245.77 2205.62 103.175)
(1434.03 2103.1 100.536)
(1517.83 1980.53 7.13033)
(1562.9 1861.59 -58.2233)
(1611.3 1747.7 -18.6871)
(1685.42 1689.25 98.005)
(1793.9 1657.03 179.296)
(1828.39 1634.51 152.238)
(1899.98 1556.18 68.6661)
(-355.557 1383.93 27.057)
(-367.901 1830.22 20.8051)
(-450.907 2204.92 14.2963)
(-564.685 2374.09 9.48192)