/*--------------------------------*- C++ -*----------------------------------*\
  =========                 |
  \\      /  F ield         | OpenFOAM: The Open Source CFD Toolbox
   \\    /   O peration     | Website:  https://openfoam.org
    \\  /    A nd           | Version:  9
     \\/     M anipulation  |
\*---------------------------------------------------------------------------*/
FoamFile
{
    format      ascii;
    class       volVectorField;
    location    "0.003";
    object      rhoU;
}
// * * * * * * * * * * * * * * * * * * * * * * * * * * * * * * * * * * * * * //

dimensions      [1 -2 -1 0 0 0 0];

internalField   nonuniform List<vector> 
62500
(
(0 0 0)
(-9.44682e-25 0 0)
(-3.51458e-30 0 0)
(1.37906e-66 0 0)
(7.03624e-109 0 0)
(0 0 0)
(0 0 0)
(0 0 0)
(0 0 0)
(0 0 0)
(0 0 0)
(0 0 0)
(0 0 0)
(0 0 0)
(0 0 0)
(0 0 0)
(0 0 0)
(0 0 0)
(0 0 0)
(0 0 0)
(0 0 0)
(0 0 0)
(0 0 0)
(0 0 0)
(0 0 0)
(0 0 0)
(0 0 0)
(0 0 0)
(0 0 0)
(0 0 0)
(0 0 0)
(0 0 0)
(0 0 0)
(0 0 0)
(0 0 0)
(0 0 0)
(0 0 0)
(0 0 0)
(0 0 0)
(0 0 0)
(0 0 0)
(0 0 0)
(0 0 0)
(0 0 0)
(0 0 0)
(0 0 0)
(0 0 0)
(0 0 0)
(0 0 0)
(0 0 0)
(0 0 0)
(-8.14584e-24 0 0)
(-1.38822e-28 0 0)
(-4.88303e-71 2.64979e-64 0)
(-2.5232e-107 1.55807e-60 0)
(0 1.40075e-43 0)
(0 -8.28281e-20 0)
(0 0 0)
(0 7.83812e-44 0)
(0 -1.01927e-19 0)
(0 0 0)
(0 0 8.50573e-15)
(0 0 0)
(0 0 8.50573e-15)
(0 -5.28685e-25 0)
(0 0 0)
(0 0 8.50573e-15)
(0 0 0)
(0 0 1.02666e-14)
(0 -5.71664e-22 0)
(0 0 -2.21804e-14)
(0 6.44716e-33 2.06467e-14)
(0 2.1522e-35 0)
(0 2.20709e-40 0)
(0 7.55977e-33 2.27486e-14)
(0 0 -2.04195e-14)
(0 0 0)
(0 -1.00018e-44 0)
(0 1.49054e-53 0)
(0 1.37925e-37 2.27486e-14)
(0 0 -2.04195e-14)
(0 0 0)
(0 7.65512e-35 0)
(0 -5.40518e-50 0)
(0 7.69427e-33 2.27486e-14)
(0 0 -2.04195e-14)
(0 0 0)
(0 9.21273e-35 0)
(0 -1.67371e-48 0)
(0 -2.33293e-14 2.66113e-14)
(0 -8.37131e-47 0)
(0 -1.19712e-67 0)
(0 -5.12303e-47 0)
(0 -1.55659e-33 0)
(0 -2.45099e-46 0)
(0 -8.25069e-47 0)
(0 -5.67304e-60 0)
(0 -5.23423e-47 0)
(0 -1.55659e-33 0)
(0 -2.47698e-46 0)
(0 0 0)
(-1.87253e-23 0 0)
(-7.84489e-28 0 0)
(1.33845e-69 0 0)
(-2.1568e-104 6.8725e-66 0)
(0 0 0)
(0 -8.80047e-22 0)
(0 0 0)
(0 0 0)
(0 -1.24437e-21 0)
(0 0 0)
(0 0 0)
(0 0 0)
(0 0 0)
(0 0 0)
(0 0 0)
(0 0 0)
(0 0 0)
(0 0 0)
(0 0 0)
(0 0 0)
(0 -1.67512e-47 0)
(0 -1.21832e-50 0)
(0 6.1347e-51 0)
(0 -1.24846e-47 0)
(0 0 0)
(0 0 0)
(0 0 0)
(0 0 0)
(0 -1.24846e-47 0)
(0 0 0)
(0 0 0)
(0 0 0)
(0 0 0)
(0 -1.24846e-47 0)
(0 0 0)
(0 0 0)
(0 0 0)
(0 0 0)
(0 -1.88323e-14 0)
(0 0 0)
(0 0 0)
(0 0 0)
(0 0 0)
(0 0 0)
(0 0 0)
(0 0 0)
(0 0 0)
(0 0 0)
(0 0 0)
(0 0 0)
(-1.61972e-23 0 0)
(-1.12346e-27 0 0)
(-1.43321e-68 0 0)
(-9.71404e-102 0 8.50573e-15)
(0 0 0)
(0 -5.17902e-28 0)
(0 0 0)
(0 0 -1.03802e-14)
(0 -6.34234e-27 0)
(0 0 0)
(0 0 0)
(0 0 0)
(0 0 0)
(0 0 0)
(0 0 -5.6801e-17)
(0 0 0)
(0 0 0)
(0 0 0)
(0 0 0)
(0 0 -1.53367e-15)
(0 -1.87282e-48 -3.2377e-15)
(0 1.13905e-56 0)
(0 0 -8.40791e-15)
(0 -1.08854e-46 -1.61343e-14)
(0 0 -1.34643e-14)
(0 0 -7.15812e-15)
(0 0 0)
(0 0 -8.40791e-15)
(0 -1.084e-46 -1.61343e-14)
(0 0 -1.34643e-14)
(0 0 -7.15812e-15)
(0 0 0)
(0 0 -8.40791e-15)
(0 -1.084e-46 -1.61343e-14)
(0 0 -1.34643e-14)
(0 0 -7.04447e-15)
(0 0 0)
(0 0 -2.38569e-15)
(0 -1.5733e-15 -2.10168e-15)
(0 0 0)
(0 0 0)
(0 0 0)
(0 0 0)
(0 0 0)
(0 0 0)
(0 0 0)
(0 0 0)
(0 0 0)
(0 0 0)
(0 0 0)
(-8.21516e-24 0 0)
(-8.32796e-28 0 0)
(-2.6678e-67 0 -8.50573e-15)
(-1.86385e-99 0 0)
(0 0 0)
(0 0 0)
(0 0 0)
(0 0 0)
(0 0 0)
(0 0 0)
(0 0 0)
(0 0 0)
(0 0 0)
(0 0 0)
(0 0 -3.55854e-14)
(0 0 -7.95215e-16)
(0 0 0)
(0 0 0)
(0 0 0)
(0 0 -3.67215e-14)
(0 5.50663e-55 -4.17768e-14)
(0 0 -1.28372e-14)
(0 0 -5.13218e-14)
(0 7.30991e-55 -6.11512e-14)
(0 0 -6.11512e-14)
(0 0 -5.08105e-14)
(0 0 -1.31213e-14)
(0 0 -5.14354e-14)
(0 -9.27734e-56 -6.11512e-14)
(0 0 -6.11512e-14)
(0 0 -5.08105e-14)
(0 0 -1.31213e-14)
(0 0 -5.14354e-14)
(0 7.36184e-55 -6.11512e-14)
(0 0 -6.11512e-14)
(0 0 -5.05265e-14)
(0 0 -1.23828e-14)
(0 0 -4.1152e-14)
(0 5.98903e-55 -3.81985e-14)
(0 0 -3.97692e-16)
(0 0 0)
(0 0 0)
(0 0 0)
(0 0 0)
(0 0 0)
(0 0 0)
(0 0 0)
(0 0 0)
(0 0 0)
(0 0 0)
(-6.71594e-24 0 0)
(-4.24204e-28 0 0)
(-1.24352e-66 0 0)
(-3.96925e-102 0 0)
(0 0 0)
(0 0 2.67812e-14)
(0 0 5.05529e-15)
(0 0 2.72356e-14)
(0 0 2.72356e-14)
(0 0 0)
(0 0 0)
(0 0 0)
(0 0 0)
(0 0 2.5134e-14)
(0 0 -3.85391e-14)
(0 0 -1.47683e-15)
(0 0 0)
(0 0 0)
(0 0 2.72356e-14)
(0 0 0)
(0 0 -2.55609e-15)
(0 0 0)
(0 0 -7.49897e-15)
(0 0 -1.26122e-14)
(0 0 -1.25554e-14)
(0 0 -7.38536e-15)
(0 0 0)
(0 0 -7.55577e-15)
(0 0 -1.26122e-14)
(0 0 -1.25554e-14)
(0 0 -7.38536e-15)
(0 0 0)
(0 0 -7.55577e-15)
(0 0 -1.26122e-14)
(0 0 -1.25554e-14)
(0 0 -7.27168e-15)
(0 0 0)
(0 0 -2.44253e-15)
(0 0 -2.15852e-15)
(0 0 0)
(0 0 2.03059e-14)
(0 0 0)
(0 0 0)
(0 0 0)
(0 0 0)
(0 0 2.03059e-14)
(0 0 0)
(0 0 0)
(0 0 0)
(0 0 0)
(-1.37743e-23 0 0)
(-7.50753e-28 0 0)
(-5.91465e-66 0 0)
(7.97467e-103 0 0)
(0 0 -2.67812e-14)
(0 0 0)
(0 0 0)
(0 0 -2.01355e-14)
(0 0 0)
(0 0 0)
(0 0 0)
(0 0 0)
(0 0 0)
(0 0 2.64404e-14)
(0 0 -2.93941e-14)
(0 0 0)
(0 0 0)
(0 0 0)
(0 0 2.72356e-14)
(0 0 0)
(0 0 0)
(0 0 0)
(0 0 0)
(0 0 0)
(0 0 0)
(0 0 0)
(0 0 0)
(0 0 0)
(0 0 0)
(0 0 0)
(0 0 0)
(0 0 0)
(0 0 0)
(0 0 0)
(0 0 0)
(0 0 0)
(0 0 0)
(0 0 0)
(0 0 0)
(0 0 0)
(0 0 -2.57588e-14)
(0 0 0)
(0 0 0)
(0 0 0)
(0 0 0)
(0 0 -2.57588e-14)
(0 0 0)
(0 0 0)
(0 0 0)
(0 0 0)
(-6.54059e-24 0 0)
(-5.659e-28 0 0)
(-4.40006e-65 0 0)
(7.63335e-101 0 0)
(0 0 -5.05529e-15)
(0 0 0)
(0 0 0)
(0 0 0)
(0 0 0)
(0 0 0)
(0 0 0)
(0 0 0)
(0 0 0)
(0 0 3.91927e-15)
(0 0 -3.46486e-15)
(0 0 0)
(0 0 0)
(0 0 0)
(0 0 5.1689e-15)
(0 0 0)
(0 0 0)
(0 0 0)
(0 0 0)
(0 0 0)
(0 0 0)
(0 0 0)
(0 0 0)
(0 0 0)
(0 0 0)
(0 0 0)
(0 0 0)
(0 0 0)
(0 0 0)
(0 0 0)
(0 0 0)
(0 0 0)
(0 0 0)
(0 0 0)
(0 0 0)
(0 0 0)
(0 0 -1.56627e-14)
(0 0 0)
(0 0 0)
(0 0 0)
(0 0 0)
(0 0 -1.56627e-14)
(0 0 0)
(0 0 0)
(0 0 0)
(0 0 0)
(-1.49235e-24 0 0)
(-1.9967e-28 0 0)
(-8.2156e-67 0 1.03802e-14)
(-1.08885e-98 0 0)
(0 0 -2.72356e-14)
(0 0 2.01355e-14)
(0 0 0)
(0 0 0)
(0 0 2.55316e-14)
(0 0 0)
(0 0 0)
(0 0 0)
(0 0 0)
(0 0 2.64972e-14)
(0 0 -2.63268e-14)
(0 0 0)
(0 0 0)
(0 0 0)
(0 0 2.72356e-14)
(0 0 0)
(0 0 0)
(0 0 0)
(0 0 0)
(0 0 0)
(0 0 0)
(0 0 0)
(0 0 0)
(0 0 0)
(0 0 0)
(0 0 0)
(0 0 0)
(0 0 0)
(0 0 0)
(0 0 0)
(0 0 0)
(0 0 0)
(0 0 0)
(0 0 0)
(0 0 0)
(0 0 0)
(0 0 -2.72645e-15)
(0 0 0)
(0 0 2.60996e-14)
(0 0 0)
(0 0 0)
(0 0 -2.72645e-15)
(0 0 0)
(0 0 2.60996e-14)
(0 0 0)
(0 0 0)
(-1.85892e-23 0 0)
(-2.0504e-45 0 0)
(4.79019e-70 0 0)
(-5.62063e-94 0 0)
(0 0 -2.72356e-14)
(0 0 0)
(0 0 0)
(0 0 -2.55316e-14)
(0 0 0)
(0 0 0)
(0 0 0)
(0 0 0)
(0 0 0)
(0 0 2.5702e-14)
(0 0 -2.5702e-14)
(0 0 0)
(0 0 0)
(0 0 0)
(0 0 2.72356e-14)
(0 0 0)
(0 0 0)
(0 0 0)
(0 0 0)
(0 0 0)
(0 0 0)
(0 0 0)
(0 0 0)
(0 0 0)
(0 0 0)
(0 0 0)
(0 0 0)
(0 0 0)
(0 0 0)
(0 0 0)
(0 0 0)
(0 0 0)
(0 0 0)
(0 0 0)
(0 0 0)
(0 0 0)
(0 0 -3.23477e-14)
(0 0 0)
(0 0 0)
(0 0 0)
(0 0 0)
(0 0 -3.23477e-14)
(0 0 0)
(0 0 0)
(0 0 0)
(0 0 0)
(-8.26173e-22 0 0)
(-2.70962e-44 0 0)
(-8.08389e-69 0 0)
(1.24649e-94 0 0)
(0 0 0)
(0 0 0)
(0 0 0)
(0 0 0)
(0 0 0)
(0 0 0)
(0 0 0)
(0 0 0)
(0 0 0)
(0 0 0)
(0 0 0)
(0 0 0)
(0 0 0)
(0 0 0)
(0 0 0)
(0 0 0)
(0 0 0)
(0 0 0)
(0 0 0)
(0 0 0)
(0 0 0)
(0 0 0)
(0 0 0)
(0 0 0)
(0 0 0)
(0 0 0)
(0 0 0)
(0 0 0)
(0 0 0)
(0 0 0)
(0 0 0)
(0 0 0)
(0 0 0)
(0 0 0)
(0 0 0)
(0 0 0)
(0 0 -1.64011e-14)
(0 0 0)
(0 0 0)
(0 0 0)
(0 0 0)
(0 0 -1.64011e-14)
(0 0 0)
(0 0 0)
(0 0 0)
(0 0 0)
(-5.03426e-21 0 -8.50573e-15)
(-4.07905e-43 0 0)
(9.39804e-68 0 0)
(-5.11099e-92 0 0)
(0 0 0)
(0 0 0)
(0 0 0)
(0 0 0)
(0 0 0)
(0 0 0)
(0 0 0)
(0 0 0)
(0 0 0)
(0 0 0)
(0 0 0)
(0 0 0)
(0 0 0)
(0 0 0)
(0 0 0)
(0 0 -2.05899e-14)
(0 0 2.72356e-14)
(0 0 2.71788e-14)
(0 0 3.63527e-15)
(0 0 2.12147e-14)
(0 0 -2.40548e-14)
(0 0 0)
(0 0 2.71788e-14)
(0 0 3.63527e-15)
(0 0 2.11579e-14)
(0 0 -2.40548e-14)
(0 0 0)
(0 0 2.71788e-14)
(0 0 3.63527e-15)
(0 0 2.11579e-14)
(0 0 -2.40548e-14)
(0 0 0)
(0 0 2.71788e-14)
(0 0 5.1689e-15)
(0 0 2.72356e-14)
(0 0 2.71788e-14)
(0 0 9.08817e-16)
(0 0 2.71788e-14)
(0 0 5.1689e-15)
(0 0 2.71788e-14)
(0 0 2.71788e-14)
(0 0 9.08817e-16)
(0 0 2.71788e-14)
(0 0 5.1689e-15)
(0 0 2.71788e-14)
(0 0 0)
(-1.97057e-20 0 0)
(-5.06547e-42 0 0)
(-1.03442e-66 0 0)
(8.31577e-97 0 0)
(0 0 0)
(0 0 0)
(0 0 0)
(0 0 0)
(0 0 0)
(0 0 0)
(0 0 0)
(0 0 0)
(0 0 0)
(0 0 0)
(0 0 0)
(0 0 0)
(0 0 0)
(0 0 0)
(0 0 0)
(0 0 -5.6801e-16)
(0 0 6.70252e-15)
(0 0 6.87293e-15)
(0 0 0)
(0 0 3.01046e-15)
(0 0 -2.61285e-15)
(0 0 0)
(0 0 5.5665e-15)
(0 0 0)
(0 0 2.95365e-15)
(0 0 -2.66965e-15)
(0 0 0)
(0 0 5.5665e-15)
(0 0 0)
(0 0 2.95365e-15)
(0 0 -2.66965e-15)
(0 0 0)
(0 0 5.5665e-15)
(0 0 0)
(0 0 6.75932e-15)
(0 0 4.60088e-15)
(0 0 -9.01694e-15)
(0 0 2.61285e-15)
(0 0 0)
(0 0 6.75932e-15)
(0 0 4.60088e-15)
(0 0 -8.96014e-15)
(0 0 2.61285e-15)
(0 0 0)
(0 0 6.87293e-15)
(0 0 0)
(-7.33214e-20 0 -8.50573e-15)
(-5.33783e-40 0 0)
(-2.20601e-68 0 0)
(-3.29716e-102 0 0)
(0 0 0)
(0 0 0)
(0 0 0)
(0 0 0)
(0 0 0)
(0 0 0)
(0 0 0)
(0 0 0)
(0 0 0)
(0 0 0)
(0 0 0)
(0 0 0)
(0 0 0)
(0 0 0)
(0 0 0)
(0 0 -1.85451e-14)
(0 0 2.72356e-14)
(0 0 2.71788e-14)
(0 0 9.20177e-15)
(0 0 2.72356e-14)
(0 0 -2.11011e-14)
(0 0 0)
(0 0 2.72356e-14)
(0 0 9.03137e-15)
(0 0 2.72356e-14)
(0 0 -2.11011e-14)
(0 0 0)
(0 0 2.72356e-14)
(0 0 9.03137e-15)
(0 0 2.72356e-14)
(0 0 -2.11011e-14)
(0 0 0)
(0 0 2.72356e-14)
(0 0 9.14497e-15)
(0 0 2.72356e-14)
(0 0 2.71788e-14)
(0 0 0)
(0 0 2.60996e-14)
(0 0 0)
(0 0 2.71788e-14)
(0 0 2.71788e-14)
(0 0 0)
(0 0 2.60996e-14)
(0 0 0)
(0 0 2.71788e-14)
(0 0 0)
(-6.52545e-21 0 0)
(-2.13609e-38 0 0)
(-1.12955e-69 0 0)
(-1.15089e-107 0 0)
(0 0 -2.53044e-14)
(0 0 -2.64404e-14)
(0 0 -3.86247e-15)
(0 0 -2.64972e-14)
(0 0 -2.5702e-14)
(0 0 0)
(0 0 0)
(0 0 0)
(0 0 0)
(0 0 0)
(0 0 8.50573e-15)
(0 0 0)
(0 0 0)
(0 0 0)
(0 0 0)
(0 0 6.8585e-15)
(0 0 1.79347e-14)
(0 0 6.19131e-15)
(0 0 1.62875e-14)
(0 0 2.00931e-14)
(0 0 8.61933e-15)
(0 0 8.78973e-15)
(0 0 3.57847e-15)
(0 0 1.54923e-14)
(0 0 2.00363e-14)
(0 0 8.61933e-15)
(0 0 8.78973e-15)
(0 0 3.57847e-15)
(0 0 1.54923e-14)
(0 0 2.00363e-14)
(0 0 8.61933e-15)
(0 0 8.78973e-15)
(0 0 3.57847e-15)
(0 0 1.60603e-14)
(0 0 2.19108e-14)
(0 0 0)
(0 0 -4.00583e-14)
(0 0 -1.93124e-15)
(0 0 -2.72924e-14)
(0 0 0)
(0 0 0)
(0 0 -3.62526e-14)
(0 0 -7.38414e-16)
(0 0 -2.70084e-14)
(0 0 0)
(0 0 0)
(-1.0274e-20 0 0)
(-1.46099e-37 0 0)
(-2.14864e-71 0 0)
(-1.33342e-104 0 2.72356e-14)
(0 0 2.72356e-14)
(0 0 2.66108e-14)
(0 0 3.69207e-15)
(0 0 2.63836e-14)
(0 0 2.5702e-14)
(0 0 0)
(0 0 0)
(0 0 0)
(0 0 0)
(0 0 -8.50573e-15)
(0 0 0)
(0 0 0)
(0 0 0)
(0 0 0)
(0 0 -1.48106e-14)
(0 0 -2.13428e-14)
(0 0 -6.8585e-15)
(0 0 0)
(0 0 -8.50573e-15)
(0 0 -8.56253e-15)
(0 0 -1.92979e-14)
(0 0 -1.11754e-14)
(0 0 0)
(0 0 -8.50573e-15)
(0 0 -8.56253e-15)
(0 0 -1.92979e-14)
(0 0 -1.11754e-14)
(0 0 0)
(0 0 -8.50573e-15)
(0 0 -8.56253e-15)
(0 0 -1.92979e-14)
(0 0 -1.11754e-14)
(0 0 0)
(0 0 -8.50573e-15)
(0 0 -7.82412e-15)
(0 0 3.01046e-15)
(0 0 2.59292e-14)
(0 0 4.71449e-15)
(0 0 0)
(0 0 0)
(0 0 4.71449e-15)
(0 0 2.55884e-14)
(0 0 4.65769e-15)
(0 0 0)
(0 0 0)
(0 0 0)
(-4.51952e-20 0 -8.50573e-15)
(2.25339e-37 0 0)
(2.57801e-70 0 0)
(2.98374e-114 0 0)
(0 0 0)
(0 0 0)
(0 0 0)
(0 0 0)
(0 0 0)
(0 0 0)
(0 0 0)
(0 0 0)
(0 0 0)
(0 0 0)
(0 0 0)
(0 0 0)
(0 0 0)
(0 0 0)
(0 0 -2.04484e-15)
(0 0 -2.72356e-14)
(0 0 2.56452e-14)
(0 0 2.71788e-14)
(0 0 8.52016e-16)
(0 0 1.84315e-14)
(0 0 -2.72356e-14)
(0 0 0)
(0 0 2.71788e-14)
(0 0 8.52016e-16)
(0 0 1.84315e-14)
(0 0 -2.72356e-14)
(0 0 0)
(0 0 2.71788e-14)
(0 0 8.52016e-16)
(0 0 1.84315e-14)
(0 0 -2.72356e-14)
(0 0 0)
(0 0 2.71788e-14)
(0 0 3.01046e-15)
(0 0 2.72356e-14)
(0 0 2.71788e-14)
(0 0 9.14497e-15)
(0 0 2.71788e-14)
(0 0 6.47532e-15)
(0 0 2.71788e-14)
(0 0 2.71788e-14)
(0 0 9.03137e-15)
(0 0 2.71788e-14)
(0 0 6.47532e-15)
(0 0 2.71788e-14)
(0 0 0)
(-2.61767e-19 0 0)
(-1.77071e-37 0 0)
(-6.15461e-75 0 0)
(0 0 0)
(0 0 0)
(0 0 0)
(0 0 0)
(0 0 0)
(0 0 0)
(0 0 0)
(0 0 0)
(0 0 0)
(0 0 0)
(0 0 0)
(0 0 0)
(0 0 0)
(0 0 0)
(0 0 0)
(0 0 0)
(0 0 -1.59043e-15)
(0 0 6.13451e-15)
(0 0 6.81613e-15)
(0 0 0)
(0 0 2.04484e-15)
(0 0 -3.63527e-15)
(0 0 0)
(0 0 5.6801e-15)
(0 0 0)
(0 0 2.04484e-15)
(0 0 -3.63527e-15)
(0 0 0)
(0 0 5.6801e-15)
(0 0 0)
(0 0 2.04484e-15)
(0 0 -3.63527e-15)
(0 0 0)
(0 0 5.6801e-15)
(0 0 0)
(0 0 6.75932e-15)
(0 0 4.37368e-15)
(0 0 -9.98256e-15)
(0 0 2.32884e-15)
(0 0 0)
(0 0 6.75932e-15)
(0 0 4.37368e-15)
(0 0 -9.98256e-15)
(0 0 2.32884e-15)
(0 0 0)
(0 0 6.87293e-15)
(0 0 0)
(-1.29666e-18 0 -1.02666e-14)
(-1.85073e-32 0 0)
(4.87902e-73 0 0)
(0 0 0)
(0 0 -1.07922e-15)
(0 0 -2.04484e-15)
(0 0 0)
(0 0 -2.15844e-15)
(0 0 -1.42003e-15)
(0 0 0)
(0 0 0)
(0 0 0)
(0 0 0)
(0 0 0)
(0 0 0)
(0 0 0)
(0 0 0)
(0 0 0)
(0 0 0)
(0 0 -1.84883e-14)
(0 0 2.72356e-14)
(0 0 2.71788e-14)
(0 0 1.0281e-14)
(0 0 2.72356e-14)
(0 0 -2.07603e-14)
(0 0 0)
(0 0 2.72356e-14)
(0 0 1.01106e-14)
(0 0 2.72356e-14)
(0 0 -2.07603e-14)
(0 0 0)
(0 0 2.72356e-14)
(0 0 1.01106e-14)
(0 0 2.72356e-14)
(0 0 -2.07603e-14)
(0 0 0)
(0 0 2.72356e-14)
(0 0 1.01674e-14)
(0 0 2.72356e-14)
(0 0 2.71788e-14)
(0 0 0)
(0 0 2.5986e-14)
(0 0 0)
(0 0 2.71788e-14)
(0 0 2.71788e-14)
(0 0 0)
(0 0 2.5986e-14)
(0 0 0)
(0 0 2.71788e-14)
(0 0 0)
(-1.2254e-17 0 0)
(-4.5916e-28 0 0)
(0 0 0)
(0 0 0)
(0 0 -3.61534e-14)
(0 0 -4.05271e-14)
(0 0 -1.18146e-14)
(0 0 -4.06975e-14)
(0 0 -3.73462e-14)
(0 0 -1.13602e-16)
(0 0 0)
(0 0 0)
(0 0 0)
(0 0 0)
(0 0 1.48106e-14)
(0 0 2.04484e-15)
(0 0 0)
(0 0 0)
(0 0 0)
(0 0 9.13054e-15)
(0 0 2.08884e-14)
(0 0 8.00895e-15)
(0 0 2.04339e-14)
(0 0 2.43532e-14)
(0 0 1.2709e-14)
(0 0 1.31066e-14)
(0 0 5.73691e-15)
(0 0 1.98091e-14)
(0 0 2.42964e-14)
(0 0 1.2709e-14)
(0 0 1.31066e-14)
(0 0 5.73691e-15)
(0 0 1.98091e-14)
(0 0 2.42964e-14)
(0 0 1.2709e-14)
(0 0 1.31066e-14)
(0 0 5.73691e-15)
(0 0 2.00363e-14)
(0 0 2.5262e-14)
(0 0 0)
(0 0 -4.23871e-14)
(0 0 -2.44244e-15)
(0 0 -2.72356e-14)
(0 0 0)
(0 0 0)
(0 0 -3.80702e-14)
(0 0 -1.30642e-15)
(0 0 -2.69516e-14)
(0 0 0)
(0 0 0)
(-6.35229e-17 0 2.21804e-14)
(-1.06291e-23 0 0)
(0 0 0)
(0 0 2.72356e-14)
(0 0 0)
(0 0 -2.15844e-15)
(0 0 0)
(0 0 -2.27204e-15)
(0 0 -1.87443e-15)
(0 0 0)
(0 0 2.26348e-14)
(0 0 1.47683e-15)
(0 0 2.14419e-14)
(0 0 -6.8585e-15)
(0 0 2.13428e-14)
(0 0 2.72356e-14)
(0 0 2.66965e-15)
(0 0 2.12148e-14)
(0 0 -9.30094e-15)
(0 0 0)
(0 0 0)
(0 0 0)
(0 0 0)
(0 0 0)
(0 0 0)
(0 0 0)
(0 0 0)
(0 0 0)
(0 0 0)
(0 0 0)
(0 0 0)
(0 0 0)
(0 0 0)
(0 0 0)
(0 0 0)
(0 0 0)
(0 0 0)
(0 0 0)
(0 0 0)
(0 0 0)
(0 0 1.86587e-14)
(0 0 0)
(0 0 -4.43048e-15)
(0 0 0)
(0 0 0)
(0 0 1.88859e-14)
(0 0 0)
(0 0 -4.37368e-15)
(0 0 0)
(0 0 0)
(-2.41546e-16 0 -2.03627e-14)
(-2.76705e-20 0 0)
(0 0 0)
(0 0 2.72356e-14)
(0 0 0)
(0 0 0)
(0 0 0)
(0 0 0)
(0 0 0)
(0 0 0)
(0 0 -2.72356e-14)
(0 0 -9.82658e-15)
(0 0 -2.72356e-14)
(0 0 -2.00931e-14)
(0 0 6.8585e-15)
(0 0 -2.72356e-14)
(0 0 -9.20181e-15)
(0 0 -2.72356e-14)
(0 0 -2.32172e-14)
(0 0 0)
(0 0 0)
(0 0 0)
(0 0 0)
(0 0 0)
(0 0 0)
(0 0 0)
(0 0 0)
(0 0 0)
(0 0 0)
(0 0 0)
(0 0 0)
(0 0 0)
(0 0 0)
(0 0 0)
(0 0 0)
(0 0 0)
(0 0 0)
(0 0 0)
(0 0 0)
(0 0 0)
(0 0 0)
(0 0 0)
(0 0 -2.08739e-14)
(0 0 0)
(0 0 0)
(0 0 0)
(0 0 0)
(0 0 -2.08739e-14)
(0 0 0)
(0 0 0)
(-8.48342e-16 0 0)
(-6.69122e-18 0 0)
(0 0 0)
(0 0 5.1689e-15)
(0 0 0)
(0 0 0)
(0 0 0)
(0 0 0)
(0 0 0)
(0 0 -2.55605e-15)
(0 0 -4.40488e-14)
(0 0 -2.0278e-14)
(0 0 -5.20009e-14)
(0 0 -1.44843e-14)
(0 0 -1.70446e-16)
(0 0 -4.09816e-14)
(0 0 -1.89149e-14)
(0 0 -5.26828e-14)
(0 0 -1.6586e-14)
(0 0 0)
(0 0 0)
(0 0 0)
(0 0 0)
(0 0 0)
(0 0 0)
(0 0 0)
(0 0 0)
(0 0 0)
(0 0 0)
(0 0 0)
(0 0 0)
(0 0 0)
(0 0 0)
(0 0 0)
(0 0 0)
(0 0 0)
(0 0 0)
(0 0 0)
(0 0 0)
(0 0 0)
(0 0 0)
(0 0 0)
(0 0 2.36004e-14)
(0 0 0)
(0 0 0)
(0 0 0)
(0 0 0)
(0 0 2.36004e-14)
(0 0 0)
(0 0 0)
(-5.54032e-15 0 0)
(-2.18804e-16 0 0)
(0 0 0)
(0 0 2.72356e-14)
(0 0 0)
(0 0 0)
(0 0 0)
(0 0 0)
(0 0 0)
(0 0 0)
(0 0 -9.20177e-15)
(0 0 -3.74887e-15)
(0 0 -1.72675e-14)
(0 0 -1.99795e-14)
(0 0 8.50573e-15)
(0 0 -4.60093e-15)
(0 0 -1.30651e-15)
(0 0 -1.79492e-14)
(0 0 -2.45237e-14)
(0 0 0)
(0 0 0)
(0 0 0)
(0 0 0)
(0 0 0)
(0 0 0)
(0 0 0)
(0 0 0)
(0 0 0)
(0 0 0)
(0 0 0)
(0 0 0)
(0 0 0)
(0 0 0)
(0 0 0)
(0 0 0)
(0 0 0)
(0 0 0)
(0 0 0)
(0 0 0)
(0 0 0)
(0 0 2.7122e-14)
(0 0 0)
(0 0 0)
(0 0 0)
(0 0 0)
(0 0 2.7122e-14)
(0 0 0)
(0 0 0)
(0 0 0)
(0 0 0)
(-1.09443e-14 0 -2.07606e-14)
(-1.43491e-15 0 0)
(0 0 0)
(0 0 2.72356e-14)
(0 0 0)
(0 0 0)
(0 0 0)
(0 0 0)
(0 0 0)
(0 0 0)
(0 0 -2.28052e-14)
(0 0 -4.31688e-15)
(0 0 -2.72356e-14)
(0 0 -2.04339e-14)
(0 0 8.56253e-15)
(0 0 -1.84315e-14)
(0 0 -2.32884e-15)
(0 0 -2.72356e-14)
(0 0 -2.47508e-14)
(0 0 0)
(0 0 0)
(0 0 0)
(0 0 0)
(0 0 0)
(0 0 0)
(0 0 0)
(0 0 0)
(0 0 0)
(0 0 0)
(0 0 0)
(0 0 0)
(0 0 0)
(0 0 0)
(0 0 0)
(0 0 0)
(0 0 0)
(0 0 0)
(0 0 0)
(0 0 0)
(0 0 0)
(0 0 6.47532e-15)
(0 0 0)
(0 0 -3.01325e-14)
(0 0 0)
(0 0 0)
(0 0 6.47532e-15)
(0 0 0)
(0 0 -3.01325e-14)
(0 0 0)
(0 0 0)
(-1.32686e-14 0 2.05901e-14)
(-2.66222e-15 0 0)
(0 0 0)
(0 0 2.72356e-14)
(0 0 0)
(0 0 0)
(0 0 0)
(0 0 0)
(0 0 0)
(0 0 0)
(0 0 2.42252e-14)
(0 0 2.61285e-15)
(0 0 2.11011e-14)
(0 0 -8.61933e-15)
(0 0 1.92979e-14)
(0 0 2.72356e-14)
(0 0 3.69207e-15)
(0 0 2.07603e-14)
(0 0 -1.30498e-14)
(0 0 0)
(0 0 0)
(0 0 0)
(0 0 0)
(0 0 0)
(0 0 0)
(0 0 0)
(0 0 0)
(0 0 0)
(0 0 0)
(0 0 0)
(0 0 0)
(0 0 0)
(0 0 0)
(0 0 0)
(0 0 0)
(0 0 0)
(0 0 0)
(0 0 0)
(0 0 0)
(0 0 0)
(0 0 2.71788e-14)
(0 0 0)
(0 0 0)
(0 0 0)
(0 0 0)
(0 0 2.71788e-14)
(0 0 0)
(0 0 0)
(0 0 0)
(0 0 0)
(-4.4549e-17 0 0)
(-3.14561e-20 0 0)
(0 0 0)
(0 0 2.72356e-14)
(0 0 0)
(0 0 0)
(0 0 0)
(0 0 0)
(0 0 0)
(0 0 0)
(0 0 0)
(0 0 0)
(0 0 0)
(0 0 -9.64175e-15)
(0 0 1.11754e-14)
(0 0 0)
(0 0 0)
(0 0 0)
(0 0 -1.41858e-14)
(0 0 0)
(0 0 0)
(0 0 0)
(0 0 0)
(0 0 0)
(0 0 0)
(0 0 0)
(0 0 0)
(0 0 0)
(0 0 0)
(0 0 0)
(0 0 0)
(0 0 0)
(0 0 0)
(0 0 0)
(0 0 0)
(0 0 0)
(0 0 0)
(0 0 0)
(0 0 0)
(0 0 0)
(0 0 2.71788e-14)
(0 0 0)
(0 0 0)
(0 0 0)
(0 0 0)
(0 0 2.71788e-14)
(0 0 0)
(0 0 0)
(0 0 0)
(0 0 0)
(-8.14453e-16 0 0)
(-6.69008e-18 0 0)
(0 0 0)
(0 0 5.1689e-15)
(0 0 0)
(0 0 0)
(0 0 0)
(0 0 0)
(0 0 0)
(0 0 0)
(0 0 -3.26317e-14)
(0 0 -9.54258e-15)
(0 0 -3.7403e-14)
(0 0 -6.92973e-15)
(0 0 0)
(0 0 -3.21773e-14)
(0 0 -9.99698e-15)
(0 0 -3.90503e-14)
(0 0 -9.71298e-15)
(0 0 0)
(0 0 0)
(0 0 0)
(0 0 0)
(0 0 0)
(0 0 0)
(0 0 0)
(0 0 0)
(0 0 0)
(0 0 0)
(0 0 0)
(0 0 0)
(0 0 0)
(0 0 0)
(0 0 0)
(0 0 0)
(0 0 0)
(0 0 0)
(0 0 0)
(0 0 0)
(0 0 0)
(0 0 5.1689e-15)
(0 0 0)
(0 0 2.72356e-14)
(0 0 0)
(0 0 0)
(0 0 5.1689e-15)
(0 0 0)
(0 0 2.72356e-14)
(0 0 0)
(0 0 0)
(-5.54031e-15 0 0)
(-2.18766e-16 0 0)
(0 0 0)
(0 0 2.72356e-14)
(0 0 0)
(0 0 0)
(0 0 0)
(0 0 0)
(0 0 0)
(0 0 0)
(0 0 -5.05529e-15)
(0 0 0)
(0 0 -1.19282e-14)
(0 0 -1.70259e-14)
(0 0 8.50573e-15)
(0 0 -2.04484e-15)
(0 0 0)
(0 0 -1.35186e-14)
(0 0 -2.17404e-14)
(0 0 0)
(0 0 0)
(0 0 0)
(0 0 0)
(0 0 0)
(0 0 0)
(0 0 0)
(0 0 0)
(0 0 0)
(0 0 0)
(0 0 0)
(0 0 0)
(0 0 0)
(0 0 0)
(0 0 0)
(0 0 0)
(0 0 0)
(0 0 0)
(0 0 0)
(0 0 0)
(0 0 0)
(0 0 2.71788e-14)
(0 0 0)
(0 0 0)
(0 0 0)
(0 0 0)
(0 0 2.71788e-14)
(0 0 0)
(0 0 0)
(0 0 0)
(0 0 0)
(-1.0944e-14 0 -2.07606e-14)
(-1.43472e-15 0 0)
(0 0 0)
(0 0 2.72356e-14)
(0 0 0)
(0 0 0)
(0 0 0)
(0 0 0)
(0 0 0)
(0 0 0)
(0 0 -2.14419e-14)
(0 0 -3.01046e-15)
(0 0 -2.72356e-14)
(0 0 -2.02067e-14)
(0 0 8.56253e-15)
(0 0 -1.84315e-14)
(0 0 -2.04484e-15)
(0 0 -2.72356e-14)
(0 0 -2.45804e-14)
(0 0 0)
(0 0 0)
(0 0 0)
(0 0 0)
(0 0 0)
(0 0 0)
(0 0 0)
(0 0 0)
(0 0 0)
(0 0 0)
(0 0 0)
(0 0 0)
(0 0 0)
(0 0 0)
(0 0 0)
(0 0 0)
(0 0 0)
(0 0 0)
(0 0 0)
(0 0 0)
(0 0 0)
(0 0 6.47532e-15)
(0 0 0)
(0 0 -3.04165e-14)
(0 0 0)
(0 0 0)
(0 0 6.47532e-15)
(0 0 0)
(0 0 -3.04165e-14)
(0 0 0)
(0 0 0)
(-1.32685e-14 0 2.05901e-14)
(-2.66193e-15 0 0)
(0 0 0)
(0 0 2.72356e-14)
(0 0 0)
(0 0 0)
(0 0 0)
(0 0 0)
(0 0 0)
(0 0 0)
(0 0 2.4282e-14)
(0 0 2.66965e-15)
(0 0 2.11011e-14)
(0 0 -8.61933e-15)
(0 0 1.92979e-14)
(0 0 2.72356e-14)
(0 0 3.69207e-15)
(0 0 2.07603e-14)
(0 0 -1.30498e-14)
(0 0 0)
(0 0 0)
(0 0 0)
(0 0 0)
(0 0 0)
(0 0 0)
(0 0 0)
(0 0 0)
(0 0 0)
(0 0 0)
(0 0 0)
(0 0 0)
(0 0 0)
(0 0 0)
(0 0 0)
(0 0 0)
(0 0 0)
(0 0 0)
(0 0 0)
(0 0 0)
(0 0 0)
(0 0 2.71788e-14)
(0 0 0)
(0 0 0)
(0 0 0)
(0 0 0)
(0 0 2.71788e-14)
(0 0 0)
(0 0 0)
(0 0 0)
(0 0 0)
(-4.45462e-17 0 0)
(-3.14514e-20 0 0)
(0 0 0)
(0 0 2.72356e-14)
(0 0 0)
(0 0 0)
(0 0 0)
(0 0 0)
(0 0 0)
(0 0 0)
(0 0 0)
(0 0 0)
(0 0 0)
(0 0 -9.64175e-15)
(0 0 1.11754e-14)
(0 0 0)
(0 0 0)
(0 0 0)
(0 0 -1.41858e-14)
(0 0 0)
(0 0 0)
(0 0 0)
(0 0 0)
(0 0 0)
(0 0 0)
(0 0 0)
(0 0 0)
(0 0 0)
(0 0 0)
(0 0 0)
(0 0 0)
(0 0 0)
(0 0 0)
(0 0 0)
(0 0 0)
(0 0 0)
(0 0 0)
(0 0 0)
(0 0 0)
(0 0 0)
(0 0 2.71788e-14)
(0 0 0)
(0 0 0)
(0 0 0)
(0 0 0)
(0 0 2.71788e-14)
(0 0 0)
(0 0 0)
(0 0 0)
(0 0 0)
(-8.14455e-16 0 0)
(-6.69051e-18 0 0)
(0 0 0)
(0 0 5.1689e-15)
(0 0 0)
(0 0 0)
(0 0 0)
(0 0 0)
(0 0 0)
(0 0 0)
(0 0 -3.26317e-14)
(0 0 -9.54258e-15)
(0 0 -3.7403e-14)
(0 0 -6.92973e-15)
(0 0 0)
(0 0 -3.21773e-14)
(0 0 -9.99698e-15)
(0 0 -3.90503e-14)
(0 0 -9.71298e-15)
(0 0 0)
(0 0 0)
(0 0 0)
(0 0 0)
(0 0 0)
(0 0 0)
(0 0 0)
(0 0 0)
(0 0 0)
(0 0 0)
(0 0 0)
(0 0 0)
(0 0 0)
(0 0 0)
(0 0 0)
(0 0 0)
(0 0 0)
(0 0 0)
(0 0 0)
(0 0 0)
(0 0 0)
(0 0 5.1689e-15)
(0 0 0)
(0 0 2.72356e-14)
(0 0 0)
(0 0 0)
(0 0 5.1689e-15)
(0 0 0)
(0 0 2.72356e-14)
(0 0 0)
(0 0 0)
(-5.54002e-15 0 0)
(-2.18835e-16 0 0)
(0 0 0)
(0 0 2.72356e-14)
(0 0 0)
(0 0 0)
(0 0 0)
(0 0 0)
(0 0 0)
(0 0 0)
(0 0 -5.05529e-15)
(0 0 0)
(0 0 -1.19282e-14)
(0 0 -1.70259e-14)
(0 0 8.50573e-15)
(0 0 -2.04484e-15)
(0 0 0)
(0 0 -1.35186e-14)
(0 0 -2.17404e-14)
(0 0 0)
(0 0 0)
(0 0 0)
(0 0 0)
(0 0 0)
(0 0 0)
(0 0 0)
(0 0 0)
(0 0 0)
(0 0 0)
(0 0 0)
(0 0 0)
(0 0 0)
(0 0 0)
(0 0 0)
(0 0 0)
(0 0 0)
(0 0 0)
(0 0 0)
(0 0 0)
(0 0 0)
(0 0 2.71788e-14)
(0 0 0)
(0 0 0)
(0 0 0)
(0 0 0)
(0 0 2.71788e-14)
(0 0 0)
(0 0 0)
(0 0 0)
(0 0 0)
(-1.09423e-14 0 -2.07606e-14)
(-1.43554e-15 0 0)
(0 0 0)
(0 0 2.72356e-14)
(0 0 0)
(0 0 0)
(0 0 0)
(0 0 0)
(0 0 0)
(0 0 0)
(0 0 -2.14419e-14)
(0 0 -3.01046e-15)
(0 0 -2.72356e-14)
(0 0 -2.02067e-14)
(0 0 8.56253e-15)
(0 0 -1.84315e-14)
(0 0 -2.04484e-15)
(0 0 -2.72356e-14)
(0 0 -2.45804e-14)
(0 0 0)
(0 0 0)
(0 0 0)
(0 0 0)
(0 0 0)
(0 0 0)
(0 0 0)
(0 0 0)
(0 0 0)
(0 0 0)
(0 0 0)
(0 0 0)
(0 0 0)
(0 0 0)
(0 0 0)
(0 0 0)
(0 0 0)
(0 0 0)
(0 0 0)
(0 0 0)
(0 0 0)
(0 0 6.47532e-15)
(0 0 0)
(0 0 -3.04165e-14)
(0 0 0)
(0 0 0)
(0 0 6.47532e-15)
(0 0 0)
(0 0 -3.04165e-14)
(0 0 0)
(0 0 0)
(-1.32596e-14 0 2.05901e-14)
(-2.66395e-15 0 0)
(0 0 0)
(0 0 2.72356e-14)
(0 0 0)
(0 0 0)
(0 0 0)
(0 0 0)
(0 0 0)
(0 0 0)
(0 0 2.4282e-14)
(0 0 2.66965e-15)
(0 0 2.11011e-14)
(0 0 -8.61933e-15)
(0 0 1.92979e-14)
(0 0 2.72356e-14)
(0 0 3.69207e-15)
(0 0 2.07603e-14)
(0 0 -1.30498e-14)
(0 0 0)
(0 0 0)
(0 0 0)
(0 0 0)
(0 0 0)
(0 0 0)
(0 0 0)
(0 0 0)
(0 0 0)
(0 0 0)
(0 0 0)
(0 0 0)
(0 0 0)
(0 0 0)
(0 0 0)
(0 0 0)
(0 0 0)
(0 0 0)
(0 0 0)
(0 0 0)
(0 0 0)
(0 0 2.71788e-14)
(0 0 0)
(0 0 0)
(0 0 0)
(0 0 0)
(0 0 2.71788e-14)
(0 0 0)
(0 0 0)
(0 0 0)
(0 0 0)
(-1.11256e-18 0 0)
(0 0 0)
(0 0 0)
(0 0 2.72356e-14)
(0 0 0)
(0 0 0)
(0 0 0)
(0 0 0)
(0 0 0)
(0 0 0)
(0 0 0)
(0 0 0)
(0 0 0)
(0 0 -9.58495e-15)
(0 0 1.11754e-14)
(0 0 0)
(0 0 0)
(0 0 0)
(0 0 -1.41858e-14)
(0 0 0)
(0 0 0)
(0 0 0)
(0 0 0)
(0 0 0)
(0 0 0)
(0 0 0)
(0 0 0)
(0 0 0)
(0 0 0)
(0 0 0)
(0 0 0)
(0 0 0)
(0 0 0)
(0 0 0)
(0 0 0)
(0 0 0)
(0 0 0)
(0 0 0)
(0 0 0)
(0 0 0)
(0 0 2.71788e-14)
(0 0 0)
(0 0 0)
(0 0 0)
(0 0 0)
(0 0 2.71788e-14)
(0 0 0)
(0 0 0)
(0 0 0)
(0 0 0)
(-2.59828e-19 0 0)
(0 0 0)
(0 0 0)
(0 0 5.1689e-15)
(0 0 0)
(0 0 0)
(0 0 0)
(0 0 0)
(0 0 0)
(0 0 0)
(0 0 -3.26885e-14)
(0 0 -9.54258e-15)
(0 0 -3.71758e-14)
(0 0 -6.75932e-15)
(0 0 0)
(0 0 -3.24613e-14)
(0 0 -1.00538e-14)
(0 0 -3.89935e-14)
(0 0 -9.59938e-15)
(0 0 0)
(0 0 0)
(0 0 0)
(0 0 0)
(0 0 0)
(0 0 0)
(0 0 0)
(0 0 0)
(0 0 0)
(0 0 0)
(0 0 0)
(0 0 0)
(0 0 0)
(0 0 0)
(0 0 0)
(0 0 0)
(0 0 0)
(0 0 0)
(0 0 0)
(0 0 0)
(0 0 0)
(0 0 5.05529e-15)
(0 0 0)
(0 0 2.72356e-14)
(0 0 0)
(0 0 0)
(0 0 5.05529e-15)
(0 0 0)
(0 0 2.72356e-14)
(0 0 0)
(0 0 0)
(-2.59875e-19 0 0)
(0 0 0)
(0 0 0)
(0 0 2.72356e-14)
(0 0 0)
(0 0 0)
(0 0 0)
(0 0 0)
(0 0 0)
(0 0 0)
(0 0 -5.2825e-15)
(0 0 0)
(0 0 -1.13602e-14)
(0 0 -1.74803e-14)
(0 0 8.50573e-15)
(0 0 -3.06726e-15)
(0 0 0)
(0 0 -1.35186e-14)
(0 0 -2.21948e-14)
(0 0 0)
(0 0 0)
(0 0 0)
(0 0 0)
(0 0 0)
(0 0 0)
(0 0 0)
(0 0 0)
(0 0 0)
(0 0 0)
(0 0 0)
(0 0 0)
(0 0 0)
(0 0 0)
(0 0 0)
(0 0 0)
(0 0 0)
(0 0 0)
(0 0 0)
(0 0 0)
(0 0 0)
(0 0 2.67812e-14)
(0 0 0)
(0 0 0)
(0 0 0)
(0 0 0)
(0 0 2.67812e-14)
(0 0 0)
(0 0 0)
(0 0 0)
(0 0 0)
(-4.19711e-19 0 -2.55316e-14)
(0 0 0)
(0 0 0)
(0 0 2.72356e-14)
(0 0 0)
(0 0 0)
(0 0 0)
(0 0 0)
(0 0 0)
(0 0 0)
(0 0 -2.72356e-14)
(0 0 -8.40655e-15)
(0 0 -2.97349e-14)
(0 0 -2.23084e-14)
(0 0 7.82412e-15)
(0 0 -2.72356e-14)
(0 0 -9.82658e-15)
(0 0 -3.17229e-14)
(0 0 -2.63413e-14)
(0 0 0)
(0 0 0)
(0 0 0)
(0 0 0)
(0 0 0)
(0 0 0)
(0 0 0)
(0 0 0)
(0 0 0)
(0 0 0)
(0 0 0)
(0 0 0)
(0 0 0)
(0 0 0)
(0 0 0)
(0 0 0)
(0 0 0)
(0 0 0)
(0 0 0)
(0 0 0)
(0 0 0)
(0 0 0)
(0 0 0)
(0 0 -2.34868e-14)
(0 0 0)
(0 0 0)
(0 0 0)
(0 0 0)
(0 0 -2.34868e-14)
(0 0 0)
(0 0 0)
(-2.61484e-26 0 0)
(0 0 0)
(0 0 0)
(0 0 0)
(0 0 0)
(0 0 0)
(0 0 0)
(0 0 0)
(0 0 0)
(0 0 0)
(0 0 -3.78006e-14)
(0 0 -1.04514e-14)
(0 0 -3.68918e-14)
(0 0 -2.27204e-16)
(0 0 -1.13034e-14)
(0 0 -4.89904e-14)
(0 0 -1.41435e-14)
(0 0 -3.87095e-14)
(0 0 -9.65618e-16)
(0 0 0)
(0 0 0)
(0 0 0)
(0 0 0)
(0 0 0)
(0 0 -2.32884e-15)
(0 0 -2.38564e-15)
(0 0 0)
(0 0 0)
(0 0 0)
(0 0 -2.44244e-15)
(0 0 -2.44244e-15)
(0 0 0)
(0 0 0)
(0 0 0)
(0 0 -2.38564e-15)
(0 0 -2.27204e-15)
(0 0 0)
(0 0 0)
(0 0 0)
(0 0 0)
(0 0 0)
(0 0 0)
(0 0 2.07603e-14)
(0 0 0)
(0 0 0)
(0 0 0)
(0 0 0)
(0 0 2.07603e-14)
(0 0 0)
(0 0 0)
(-4.24267e-27 0 0)
(0 0 0)
(0 0 0)
(0 0 0)
(0 0 -2.03059e-14)
(0 0 2.57588e-14)
(0 0 1.51515e-14)
(0 0 7.95215e-16)
(0 0 2.72356e-14)
(0 0 1.51515e-14)
(0 0 -4.31688e-15)
(0 0 9.01694e-15)
(0 0 0)
(0 0 2.72212e-14)
(0 0 -3.70622e-14)
(0 0 -2.12436e-14)
(0 0 9.98256e-15)
(0 0 0)
(0 0 2.72212e-14)
(0 0 -1.95675e-14)
(0 0 0)
(0 0 0)
(0 0 -2.81445e-14)
(0 0 -1.06218e-14)
(0 0 -4.07543e-14)
(0 0 -4.09815e-14)
(0 0 -1.00538e-14)
(0 0 -3.09277e-14)
(0 0 -1.15874e-14)
(0 0 -4.11519e-14)
(0 0 -4.10951e-14)
(0 0 -1.01106e-14)
(0 0 -3.09277e-14)
(0 0 -1.15306e-14)
(0 0 -4.10383e-14)
(0 0 -4.05839e-14)
(0 0 -8.97457e-15)
(0 0 -2.77469e-14)
(0 0 0)
(0 0 0)
(0 0 0)
(0 0 0)
(0 0 3.40806e-15)
(0 0 0)
(0 0 0)
(0 0 0)
(0 0 0)
(0 0 3.29446e-15)
(0 0 0)
(0 0 0)
(-3.31668e-27 0 0)
(0 0 0)
(0 0 0)
(0 0 0)
(0 0 0)
(0 0 0)
(0 0 0)
(0 0 0)
(0 0 0)
(0 0 0)
(0 0 -3.00189e-14)
(0 0 -3.46486e-15)
(0 0 -2.67244e-14)
(0 0 0)
(0 0 -1.15307e-14)
(0 0 -4.2856e-14)
(0 0 -8.34988e-15)
(0 0 -2.85422e-14)
(0 0 0)
(0 0 0)
(0 0 0)
(0 0 0)
(0 0 0)
(0 0 0)
(0 0 -2.55605e-15)
(0 0 -3.29446e-15)
(0 0 -2.27204e-15)
(0 0 0)
(0 0 0)
(0 0 -2.66965e-15)
(0 0 -3.35126e-15)
(0 0 -2.32884e-15)
(0 0 0)
(0 0 0)
(0 0 -2.55605e-15)
(0 0 -3.06726e-15)
(0 0 -1.87443e-15)
(0 0 0)
(0 0 0)
(0 0 0)
(0 0 0)
(0 0 0)
(0 0 2.67244e-14)
(0 0 0)
(0 0 -1.53363e-15)
(0 0 0)
(0 0 0)
(0 0 2.63268e-14)
(0 0 0)
(0 0 0)
(-9.0504e-27 0 0)
(0 0 0)
(0 0 0)
(0 0 0)
(0 0 0)
(0 0 0)
(0 0 0)
(0 0 -2.5702e-14)
(0 0 0)
(0 0 0)
(0 0 -1.03378e-14)
(0 0 0)
(0 0 -1.47683e-15)
(0 0 2.71788e-14)
(0 0 0)
(0 0 -1.99372e-14)
(0 0 -5.85089e-15)
(0 0 -3.80588e-15)
(0 0 2.6554e-14)
(0 0 4.26008e-15)
(0 0 2.08739e-14)
(0 0 -2.343e-14)
(0 0 0)
(0 0 2.71788e-14)
(0 0 0)
(0 0 0)
(0 0 -2.96213e-14)
(0 0 0)
(0 0 2.71788e-14)
(0 0 0)
(0 0 0)
(0 0 -2.96213e-14)
(0 0 0)
(0 0 2.71788e-14)
(0 0 0)
(0 0 0)
(0 0 -2.92237e-14)
(0 0 0)
(0 0 2.36004e-14)
(0 0 -2.07603e-14)
(0 0 -3.29446e-15)
(0 0 -2.63268e-14)
(0 0 0)
(0 0 -3.5131e-14)
(0 0 -3.85959e-14)
(0 0 -8.06575e-15)
(0 0 -2.75197e-14)
(0 0 0)
(0 0 -3.3995e-14)
(0 0 0)
(-1.34457e-26 0 0)
(0 0 0)
(0 0 0)
(0 0 0)
(0 0 0)
(0 0 0)
(0 0 0)
(0 0 0)
(0 0 0)
(0 0 -3.57847e-15)
(0 0 -4.52984e-14)
(0 0 -1.70403e-14)
(0 0 -4.01863e-14)
(0 0 0)
(0 0 -8.40749e-15)
(0 0 -5.5127e-14)
(0 0 -2.32326e-14)
(0 0 -4.29699e-14)
(0 0 0)
(0 0 0)
(0 0 0)
(0 0 0)
(0 0 0)
(0 0 0)
(0 0 0)
(0 0 0)
(0 0 0)
(0 0 0)
(0 0 0)
(0 0 0)
(0 0 0)
(0 0 0)
(0 0 0)
(0 0 0)
(0 0 0)
(0 0 0)
(0 0 0)
(0 0 0)
(0 0 0)
(0 0 0)
(0 0 0)
(0 0 0)
(0 0 2.72356e-14)
(0 0 0)
(0 0 -1.53363e-15)
(0 0 0)
(0 0 0)
(0 0 2.72356e-14)
(0 0 0)
(0 0 0)
(-1.06529e-26 0 0)
(0 0 0)
(0 0 0)
(0 0 0)
(0 0 0)
(0 0 0)
(0 0 0)
(0 0 0)
(0 0 0)
(0 0 0)
(0 0 -4.14359e-14)
(0 0 -1.36323e-14)
(0 0 -3.89367e-14)
(0 0 0)
(0 0 -1.95984e-14)
(0 0 -5.97314e-14)
(0 0 -2.01093e-14)
(0 0 -4.12661e-14)
(0 0 0)
(0 0 0)
(0 0 0)
(0 0 0)
(0 0 0)
(0 0 0)
(0 0 -2.32884e-15)
(0 0 -2.38564e-15)
(0 0 0)
(0 0 0)
(0 0 0)
(0 0 -2.44244e-15)
(0 0 -2.44244e-15)
(0 0 0)
(0 0 0)
(0 0 0)
(0 0 -2.38564e-15)
(0 0 -2.27204e-15)
(0 0 0)
(0 0 0)
(0 0 0)
(0 0 0)
(0 0 0)
(0 0 0)
(0 0 2.72356e-14)
(0 0 0)
(0 0 0)
(0 0 0)
(0 0 0)
(0 0 2.72356e-14)
(0 0 0)
(0 0 0)
(-3.30267e-27 0 0)
(0 0 0)
(0 0 0)
(0 0 0)
(0 0 -2.03059e-14)
(0 0 2.57588e-14)
(0 0 1.51515e-14)
(0 0 7.95215e-16)
(0 0 2.72356e-14)
(0 0 1.51515e-14)
(0 0 -4.77129e-15)
(0 0 8.96014e-15)
(0 0 0)
(0 0 2.72212e-14)
(0 0 -3.93923e-14)
(0 0 -2.48808e-14)
(0 0 9.98256e-15)
(0 0 0)
(0 0 2.72212e-14)
(0 0 -1.95675e-14)
(0 0 0)
(0 0 0)
(0 0 -2.81445e-14)
(0 0 -1.06218e-14)
(0 0 -4.07543e-14)
(0 0 -4.09815e-14)
(0 0 -1.00538e-14)
(0 0 -3.09277e-14)
(0 0 -1.15874e-14)
(0 0 -4.11519e-14)
(0 0 -4.10951e-14)
(0 0 -1.01106e-14)
(0 0 -3.09277e-14)
(0 0 -1.15306e-14)
(0 0 -4.10383e-14)
(0 0 -4.05839e-14)
(0 0 -8.97457e-15)
(0 0 -2.77469e-14)
(0 0 0)
(0 0 0)
(0 0 0)
(0 0 0)
(0 0 5.11209e-15)
(0 0 0)
(0 0 0)
(0 0 0)
(0 0 0)
(0 0 5.05529e-15)
(0 0 0)
(0 0 0)
(-4.04626e-40 0 0)
(0 0 0)
(0 0 0)
(0 0 0)
(0 0 0)
(0 0 0)
(0 0 0)
(0 0 0)
(0 0 0)
(0 0 0)
(0 0 -3.01893e-14)
(0 0 -3.52166e-15)
(0 0 -2.67812e-14)
(0 0 0)
(0 0 -1.24399e-14)
(0 0 -4.43337e-14)
(0 0 -8.6909e-15)
(0 0 -2.8599e-14)
(0 0 0)
(0 0 0)
(0 0 0)
(0 0 0)
(0 0 0)
(0 0 0)
(0 0 -2.55605e-15)
(0 0 -3.29446e-15)
(0 0 -2.27204e-15)
(0 0 0)
(0 0 0)
(0 0 -2.66965e-15)
(0 0 -3.35126e-15)
(0 0 -2.32884e-15)
(0 0 0)
(0 0 0)
(0 0 -2.55605e-15)
(0 0 -3.06726e-15)
(0 0 -1.87443e-15)
(0 0 0)
(0 0 0)
(0 0 0)
(0 0 0)
(0 0 0)
(0 0 2.7122e-14)
(0 0 0)
(0 0 -1.42003e-15)
(0 0 0)
(0 0 0)
(0 0 2.67812e-14)
(0 0 0)
(0 0 0)
(-2.82214e-60 0 0)
(0 0 0)
(0 0 0)
(0 0 0)
(0 0 0)
(0 0 0)
(0 0 0)
(0 0 -2.5702e-14)
(0 0 0)
(0 0 0)
(0 0 -1.05082e-14)
(0 0 0)
(0 0 -1.53363e-15)