/*--------------------------------*- C++ -*----------------------------------*\
  =========                 |
  \\      /  F ield         | OpenFOAM: The Open Source CFD Toolbox
   \\    /   O peration     | Website:  https://openfoam.org
    \\  /    A nd           | Version:  9
     \\/     M anipulation  |
\*---------------------------------------------------------------------------*/
FoamFile
{
    format      ascii;
    class       volVectorField;
    location    "0.003";
    object      U;
}
// * * * * * * * * * * * * * * * * * * * * * * * * * * * * * * * * * * * * * //

dimensions      [0 1 -1 0 0 0 0];

internalField   nonuniform List<vector> 
62500
(
(0 0 0)
(-7.71169e-25 0 0)
(-2.86904e-30 0 0)
(1.12577e-66 0 0)
(5.74387e-109 0 0)
(0 0 0)
(0 0 0)
(0 0 0)
(0 0 0)
(0 0 0)
(0 0 0)
(0 0 0)
(0 0 0)
(0 0 0)
(0 0 0)
(0 0 0)
(0 0 0)
(0 0 0)
(0 0 0)
(0 0 0)
(0 0 0)
(0 0 0)
(0 0 0)
(0 0 0)
(0 0 0)
(0 0 0)
(0 0 0)
(0 0 0)
(0 0 0)
(0 0 0)
(0 0 0)
(0 0 0)
(0 0 0)
(0 0 0)
(0 0 0)
(0 0 0)
(0 0 0)
(0 0 0)
(0 0 0)
(0 0 0)
(0 0 0)
(0 0 0)
(0 0 0)
(0 0 0)
(0 0 0)
(0 0 0)
(0 0 0)
(0 0 0)
(0 0 0)
(0 0 0)
(0 0 0)
(-6.64966e-24 0 0)
(-1.13324e-28 0 0)
(-3.98615e-71 2.16309e-64 0)
(-2.05976e-107 1.27189e-60 0)
(0 1.14347e-43 0)
(0 -6.76147e-20 0)
(0 0 0)
(0 6.39847e-44 0)
(0 -8.32056e-20 0)
(0 0 0)
(0 0 6.94345e-15)
(0 0 0)
(0 0 6.94345e-15)
(0 -4.3158e-25 0)
(0 0 0)
(0 0 6.94345e-15)
(0 0 0)
(0 0 8.38087e-15)
(0 -4.66665e-22 0)
(0 0 -1.81064e-14)
(0 5.26299e-33 1.68545e-14)
(0 1.75689e-35 0)
(0 1.8017e-40 0)
(0 6.17124e-33 1.85703e-14)
(0 0 -1.6669e-14)
(0 0 0)
(0 -8.16477e-45 0)
(0 1.21677e-53 0)
(0 1.12592e-37 1.85703e-14)
(0 0 -1.6669e-14)
(0 0 0)
(0 6.24908e-35 0)
(0 -4.41239e-50 0)
(0 6.28104e-33 1.85703e-14)
(0 0 -1.6669e-14)
(0 0 0)
(0 7.5206e-35 0)
(0 -1.36629e-48 0)
(0 -1.90443e-14 2.17235e-14)
(0 -6.83373e-47 0)
(0 -9.77238e-68 0)
(0 -4.18206e-47 0)
(0 -1.27068e-33 0)
(0 -2.0008e-46 0)
(0 -6.73526e-47 0)
(0 -4.63105e-60 0)
(0 -4.27284e-47 0)
(0 -1.27068e-33 0)
(0 -2.02203e-46 0)
(0 0 0)
(-1.52859e-23 0 0)
(-6.40399e-28 0 0)
(1.09261e-69 0 0)
(-1.76065e-104 5.6102e-66 0)
(0 0 0)
(0 -7.18406e-22 0)
(0 0 0)
(0 0 0)
(0 -1.01581e-21 0)
(0 0 0)
(0 0 0)
(0 0 0)
(0 0 0)
(0 0 0)
(0 0 0)
(0 0 0)
(0 0 0)
(0 0 0)
(0 0 0)
(0 0 0)
(0 -1.36745e-47 0)
(0 -9.9455e-51 0)
(0 5.00792e-51 0)
(0 -1.01915e-47 0)
(0 0 0)
(0 0 0)
(0 0 0)
(0 0 0)
(0 -1.01915e-47 0)
(0 0 0)
(0 0 0)
(0 0 0)
(0 0 0)
(0 -1.01915e-47 0)
(0 0 0)
(0 0 0)
(0 0 0)
(0 0 0)
(0 -1.53733e-14 0)
(0 0 0)
(0 0 0)
(0 0 0)
(0 0 0)
(0 0 0)
(0 0 0)
(0 0 0)
(0 0 0)
(0 0 0)
(0 0 0)
(0 0 0)
(-1.32222e-23 0 0)
(-9.17109e-28 0 0)
(-1.16997e-68 0 0)
(-7.92983e-102 0 6.94345e-15)
(0 0 0)
(0 -4.22777e-28 0)
(0 0 0)
(0 0 -8.4736e-15)
(0 -5.17742e-27 0)
(0 0 0)
(0 0 0)
(0 0 0)
(0 0 0)
(0 0 0)
(0 0 -4.63682e-17)
(0 0 0)
(0 0 0)
(0 0 0)
(0 0 0)
(0 0 -1.25198e-15)
(0 -1.52884e-48 -2.64302e-15)
(0 9.29837e-57 0)
(0 0 -6.8636e-15)
(0 -8.88604e-47 -1.31709e-14)
(0 0 -1.09913e-14)
(0 0 -5.84336e-15)
(0 0 0)
(0 0 -6.8636e-15)
(0 -8.84894e-47 -1.31709e-14)
(0 0 -1.09913e-14)
(0 0 -5.84336e-15)
(0 0 0)
(0 0 -6.8636e-15)
(0 -8.84894e-47 -1.31709e-14)
(0 0 -1.09913e-14)
(0 0 -5.75059e-15)
(0 0 0)
(0 0 -1.9475e-15)
(0 -1.28433e-15 -1.71566e-15)
(0 0 0)
(0 0 0)
(0 0 0)
(0 0 0)
(0 0 0)
(0 0 0)
(0 0 0)
(0 0 0)
(0 0 0)
(0 0 0)
(0 0 0)
(-6.70625e-24 0 0)
(-6.79833e-28 0 0)
(-2.17779e-67 0 -6.94345e-15)
(-1.52151e-99 0 0)
(0 0 0)
(0 0 0)
(0 0 0)
(0 0 0)
(0 0 0)
(0 0 0)
(0 0 0)
(0 0 0)
(0 0 0)
(0 0 0)
(0 0 -2.90493e-14)
(0 0 -6.49155e-16)
(0 0 0)
(0 0 0)
(0 0 0)
(0 0 -2.99767e-14)
(0 4.49521e-55 -3.41035e-14)
(0 0 -1.04793e-14)
(0 0 -4.18953e-14)
(0 5.96727e-55 -4.99193e-14)
(0 0 -4.99193e-14)
(0 0 -4.1478e-14)
(0 0 -1.07113e-14)
(0 0 -4.19881e-14)
(0 -7.57334e-56 -4.99193e-14)
(0 0 -4.99193e-14)
(0 0 -4.1478e-14)
(0 0 -1.07113e-14)
(0 0 -4.19881e-14)
(0 6.00967e-55 -4.99193e-14)
(0 0 -4.99193e-14)
(0 0 -4.12461e-14)
(0 0 -1.01084e-14)
(0 0 -3.35935e-14)
(0 4.889e-55 -3.11825e-14)
(0 0 -3.24647e-16)
(0 0 0)
(0 0 0)
(0 0 0)
(0 0 0)
(0 0 0)
(0 0 0)
(0 0 0)
(0 0 0)
(0 0 0)
(0 0 0)
(-5.4824e-24 0 0)
(-3.46289e-28 0 0)
(-1.01512e-66 0 0)
(-3.2402e-102 0 0)
(0 0 0)
(0 0 2.18622e-14)
(0 0 4.12677e-15)
(0 0 2.22332e-14)
(0 0 2.22332e-14)
(0 0 0)
(0 0 0)
(0 0 0)
(0 0 0)
(0 0 2.05176e-14)
(0 0 -3.14605e-14)
(0 0 -1.20557e-15)
(0 0 0)
(0 0 0)
(0 0 2.22332e-14)
(0 0 0)
(0 0 -2.0866e-15)
(0 0 0)
(0 0 -6.12161e-15)
(0 0 -1.02957e-14)
(0 0 -1.02493e-14)
(0 0 -6.02887e-15)
(0 0 0)
(0 0 -6.16797e-15)
(0 0 -1.02957e-14)
(0 0 -1.02493e-14)
(0 0 -6.02887e-15)
(0 0 0)
(0 0 -6.16797e-15)
(0 0 -1.02957e-14)
(0 0 -1.02493e-14)
(0 0 -5.93606e-15)
(0 0 0)
(0 0 -1.9939e-15)
(0 0 -1.76206e-15)
(0 0 0)
(0 0 1.65763e-14)
(0 0 0)
(0 0 0)
(0 0 0)
(0 0 0)
(0 0 1.65763e-14)
(0 0 0)
(0 0 0)
(0 0 0)
(0 0 0)
(-1.12443e-23 0 0)
(-6.12859e-28 0 0)
(-4.82829e-66 0 0)
(6.50993e-103 0 0)
(0 0 -2.18622e-14)
(0 0 0)
(0 0 0)
(0 0 -1.64372e-14)
(0 0 0)
(0 0 0)
(0 0 0)
(0 0 0)
(0 0 0)
(0 0 2.1584e-14)
(0 0 -2.39952e-14)
(0 0 0)
(0 0 0)
(0 0 0)
(0 0 2.22332e-14)
(0 0 0)
(0 0 0)
(0 0 0)
(0 0 0)
(0 0 0)
(0 0 0)
(0 0 0)
(0 0 0)
(0 0 0)
(0 0 0)
(0 0 0)
(0 0 0)
(0 0 0)
(0 0 0)
(0 0 0)
(0 0 0)
(0 0 0)
(0 0 0)
(0 0 0)
(0 0 0)
(0 0 0)
(0 0 -2.10276e-14)
(0 0 0)
(0 0 0)
(0 0 0)
(0 0 0)
(0 0 -2.10276e-14)
(0 0 0)
(0 0 0)
(0 0 0)
(0 0 0)
(-5.33926e-24 0 0)
(-4.61959e-28 0 0)
(-3.59189e-65 0 0)
(6.23131e-101 0 0)
(0 0 -4.12677e-15)
(0 0 0)
(0 0 0)
(0 0 0)
(0 0 0)
(0 0 0)
(0 0 0)
(0 0 0)
(0 0 0)
(0 0 3.19941e-15)
(0 0 -2.82846e-15)
(0 0 0)
(0 0 0)
(0 0 0)
(0 0 4.21951e-15)
(0 0 0)
(0 0 0)
(0 0 0)
(0 0 0)
(0 0 0)
(0 0 0)
(0 0 0)
(0 0 0)
(0 0 0)
(0 0 0)
(0 0 0)
(0 0 0)
(0 0 0)
(0 0 0)
(0 0 0)
(0 0 0)
(0 0 0)
(0 0 0)
(0 0 0)
(0 0 0)
(0 0 0)
(0 0 -1.27858e-14)
(0 0 0)
(0 0 0)
(0 0 0)
(0 0 0)
(0 0 -1.27858e-14)
(0 0 0)
(0 0 0)
(0 0 0)
(0 0 0)
(-1.21825e-24 0 0)
(-1.62996e-28 0 0)
(-6.70661e-67 0 8.4736e-15)
(-8.88859e-99 0 0)
(0 0 -2.22332e-14)
(0 0 1.64372e-14)
(0 0 0)
(0 0 0)
(0 0 2.08421e-14)
(0 0 0)
(0 0 0)
(0 0 0)
(0 0 0)
(0 0 2.16304e-14)
(0 0 -2.14913e-14)
(0 0 0)
(0 0 0)
(0 0 0)
(0 0 2.22332e-14)
(0 0 0)
(0 0 0)
(0 0 0)
(0 0 0)
(0 0 0)
(0 0 0)
(0 0 0)
(0 0 0)
(0 0 0)
(0 0 0)
(0 0 0)
(0 0 0)
(0 0 0)
(0 0 0)
(0 0 0)
(0 0 0)
(0 0 0)
(0 0 0)
(0 0 0)
(0 0 0)
(0 0 0)
(0 0 -2.22567e-15)
(0 0 0)
(0 0 2.13058e-14)
(0 0 0)
(0 0 0)
(0 0 -2.22567e-15)
(0 0 0)
(0 0 2.13058e-14)
(0 0 0)
(0 0 0)
(-1.51749e-23 0 0)
(-1.6738e-45 0 0)
(3.91036e-70 0 0)
(-4.58827e-94 0 0)
(0 0 -2.22332e-14)
(0 0 0)
(0 0 0)
(0 0 -2.08421e-14)
(0 0 0)
(0 0 0)
(0 0 0)
(0 0 0)
(0 0 0)
(0 0 2.09812e-14)
(0 0 -2.09812e-14)
(0 0 0)
(0 0 0)
(0 0 0)
(0 0 2.22332e-14)
(0 0 0)
(0 0 0)
(0 0 0)
(0 0 0)
(0 0 0)
(0 0 0)
(0 0 0)
(0 0 0)
(0 0 0)
(0 0 0)
(0 0 0)
(0 0 0)
(0 0 0)
(0 0 0)
(0 0 0)
(0 0 0)
(0 0 0)
(0 0 0)
(0 0 0)
(0 0 0)
(0 0 0)
(0 0 -2.64063e-14)
(0 0 0)
(0 0 0)
(0 0 0)
(0 0 0)
(0 0 -2.64063e-14)
(0 0 0)
(0 0 0)
(0 0 0)
(0 0 0)
(-6.74427e-22 0 0)
(-2.21194e-44 0 0)
(-6.59909e-69 0 0)
(1.01754e-94 0 0)
(0 0 0)
(0 0 0)
(0 0 0)
(0 0 0)
(0 0 0)
(0 0 0)
(0 0 0)
(0 0 0)
(0 0 0)
(0 0 0)
(0 0 0)
(0 0 0)
(0 0 0)
(0 0 0)
(0 0 0)
(0 0 0)
(0 0 0)
(0 0 0)
(0 0 0)
(0 0 0)
(0 0 0)
(0 0 0)
(0 0 0)
(0 0 0)
(0 0 0)
(0 0 0)
(0 0 0)
(0 0 0)
(0 0 0)
(0 0 0)
(0 0 0)
(0 0 0)
(0 0 0)
(0 0 0)
(0 0 0)
(0 0 0)
(0 0 -1.33886e-14)
(0 0 0)
(0 0 0)
(0 0 0)
(0 0 0)
(0 0 -1.33886e-14)
(0 0 0)
(0 0 0)
(0 0 0)
(0 0 0)
(-4.1096e-21 0 -6.94345e-15)
(-3.32984e-43 0 0)
(7.67187e-68 0 0)
(-4.17223e-92 0 0)
(0 0 0)
(0 0 0)
(0 0 0)
(0 0 0)
(0 0 0)
(0 0 0)
(0 0 0)
(0 0 0)
(0 0 0)
(0 0 0)
(0 0 0)
(0 0 0)
(0 0 0)
(0 0 0)
(0 0 0)
(0 0 -1.68081e-14)
(0 0 2.22332e-14)
(0 0 2.21868e-14)
(0 0 2.96756e-15)
(0 0 1.73182e-14)
(0 0 -1.96366e-14)
(0 0 0)
(0 0 2.21868e-14)
(0 0 2.96756e-15)
(0 0 1.72718e-14)
(0 0 -1.96366e-14)
(0 0 0)
(0 0 2.21868e-14)
(0 0 2.96756e-15)
(0 0 1.72718e-14)
(0 0 -1.96366e-14)
(0 0 0)
(0 0 2.21868e-14)
(0 0 4.21951e-15)
(0 0 2.22332e-14)
(0 0 2.21868e-14)
(0 0 7.41891e-16)
(0 0 2.21868e-14)
(0 0 4.21951e-15)
(0 0 2.21868e-14)
(0 0 2.21868e-14)
(0 0 7.41891e-16)
(0 0 2.21868e-14)
(0 0 4.21951e-15)
(0 0 2.21868e-14)
(0 0 0)
(-1.60863e-20 0 0)
(-4.13508e-42 0 0)
(-8.44427e-67 0 0)
(6.78838e-97 0 0)
(0 0 0)
(0 0 0)
(0 0 0)
(0 0 0)
(0 0 0)
(0 0 0)
(0 0 0)
(0 0 0)
(0 0 0)
(0 0 0)
(0 0 0)
(0 0 0)
(0 0 0)
(0 0 0)
(0 0 0)
(0 0 -4.63682e-16)
(0 0 5.47145e-15)
(0 0 5.61055e-15)
(0 0 0)
(0 0 2.45751e-15)
(0 0 -2.13294e-15)
(0 0 0)
(0 0 4.54408e-15)
(0 0 0)
(0 0 2.41115e-15)
(0 0 -2.17931e-15)
(0 0 0)
(0 0 4.54408e-15)
(0 0 0)
(0 0 2.41115e-15)
(0 0 -2.17931e-15)
(0 0 0)
(0 0 4.54408e-15)
(0 0 0)
(0 0 5.51782e-15)
(0 0 3.75582e-15)
(0 0 -7.36077e-15)
(0 0 2.13294e-15)
(0 0 0)
(0 0 5.51782e-15)
(0 0 3.75582e-15)
(0 0 -7.3144e-15)
(0 0 2.13294e-15)
(0 0 0)
(0 0 5.61055e-15)
(0 0 0)
(-5.98542e-20 0 -6.94345e-15)
(-4.35741e-40 0 0)
(-1.80083e-68 0 0)
(-2.69156e-102 0 0)
(0 0 0)
(0 0 0)
(0 0 0)
(0 0 0)
(0 0 0)
(0 0 0)
(0 0 0)
(0 0 0)
(0 0 0)
(0 0 0)
(0 0 0)
(0 0 0)
(0 0 0)
(0 0 0)
(0 0 0)
(0 0 -1.51388e-14)
(0 0 2.22332e-14)
(0 0 2.21868e-14)
(0 0 7.51165e-15)
(0 0 2.22332e-14)
(0 0 -1.72254e-14)
(0 0 0)
(0 0 2.22332e-14)
(0 0 7.37254e-15)
(0 0 2.22332e-14)
(0 0 -1.72254e-14)
(0 0 0)
(0 0 2.22332e-14)
(0 0 7.37254e-15)
(0 0 2.22332e-14)
(0 0 -1.72254e-14)
(0 0 0)
(0 0 2.22332e-14)
(0 0 7.46528e-15)
(0 0 2.22332e-14)
(0 0 2.21868e-14)
(0 0 0)
(0 0 2.13058e-14)
(0 0 0)
(0 0 2.21868e-14)
(0 0 2.21868e-14)
(0 0 0)
(0 0 2.13058e-14)
(0 0 0)
(0 0 2.21868e-14)
(0 0 0)
(-5.32689e-21 0 0)
(-1.74374e-38 0 0)
(-9.22078e-70 0 0)
(-9.39504e-108 0 0)
(0 0 -2.06567e-14)
(0 0 -2.1584e-14)
(0 0 -3.15304e-15)
(0 0 -2.16304e-14)
(0 0 -2.09812e-14)
(0 0 0)
(0 0 0)
(0 0 0)
(0 0 0)
(0 0 0)
(0 0 6.94345e-15)
(0 0 0)
(0 0 0)
(0 0 0)
(0 0 0)
(0 0 5.59877e-15)
(0 0 1.46406e-14)
(0 0 5.05413e-15)
(0 0 1.32959e-14)
(0 0 1.64026e-14)
(0 0 7.03619e-15)
(0 0 7.17529e-15)
(0 0 2.9212e-15)
(0 0 1.26467e-14)
(0 0 1.63562e-14)
(0 0 7.03619e-15)
(0 0 7.17529e-15)
(0 0 2.9212e-15)
(0 0 1.26467e-14)
(0 0 1.63562e-14)
(0 0 7.03619e-15)
(0 0 7.17529e-15)
(0 0 2.9212e-15)
(0 0 1.31104e-14)
(0 0 1.78863e-14)
(0 0 0)
(0 0 -3.27006e-14)
(0 0 -1.57652e-15)
(0 0 -2.22795e-14)
(0 0 0)
(0 0 0)
(0 0 -2.95939e-14)
(0 0 -6.02787e-16)
(0 0 -2.20477e-14)
(0 0 0)
(0 0 0)
(-8.38692e-21 0 0)
(-1.19264e-37 0 0)
(-1.75399e-71 0 0)
(-1.08851e-104 0 2.22332e-14)
(0 0 2.22332e-14)
(0 0 2.17231e-14)
(0 0 3.01393e-15)
(0 0 2.15377e-14)
(0 0 2.09812e-14)
(0 0 0)
(0 0 0)
(0 0 0)
(0 0 0)
(0 0 -6.94345e-15)
(0 0 0)
(0 0 0)
(0 0 0)
(0 0 0)
(0 0 -1.20903e-14)
(0 0 -1.74227e-14)
(0 0 -5.59877e-15)
(0 0 0)
(0 0 -6.94345e-15)
(0 0 -6.98982e-15)
(0 0 -1.57534e-14)
(0 0 -9.12276e-15)
(0 0 0)
(0 0 -6.94345e-15)
(0 0 -6.98982e-15)
(0 0 -1.57534e-14)
(0 0 -9.12276e-15)
(0 0 0)
(0 0 -6.94345e-15)
(0 0 -6.98982e-15)
(0 0 -1.57534e-14)
(0 0 -9.12276e-15)
(0 0 0)
(0 0 -6.94345e-15)
(0 0 -6.38703e-15)
(0 0 2.45751e-15)
(0 0 2.11667e-14)
(0 0 3.84856e-15)
(0 0 0)
(0 0 0)
(0 0 3.84856e-15)
(0 0 2.08885e-14)
(0 0 3.80219e-15)
(0 0 0)
(0 0 0)
(0 0 0)
(-3.6894e-20 0 -6.94345e-15)
(1.8395e-37 0 0)
(2.1045e-70 0 0)
(2.43571e-114 0 0)
(0 0 0)
(0 0 0)
(0 0 0)
(0 0 0)
(0 0 0)
(0 0 0)
(0 0 0)
(0 0 0)
(0 0 0)
(0 0 0)
(0 0 0)
(0 0 0)
(0 0 0)
(0 0 0)
(0 0 -1.66926e-15)
(0 0 -2.22332e-14)
(0 0 2.09349e-14)
(0 0 2.21868e-14)
(0 0 6.95523e-16)
(0 0 1.50461e-14)
(0 0 -2.22332e-14)
(0 0 0)
(0 0 2.21868e-14)
(0 0 6.95523e-16)
(0 0 1.50461e-14)
(0 0 -2.22332e-14)
(0 0 0)
(0 0 2.21868e-14)
(0 0 6.95523e-16)
(0 0 1.50461e-14)
(0 0 -2.22332e-14)
(0 0 0)
(0 0 2.21868e-14)
(0 0 2.45751e-15)
(0 0 2.22332e-14)
(0 0 2.21868e-14)
(0 0 7.46528e-15)
(0 0 2.21868e-14)
(0 0 5.28597e-15)
(0 0 2.21868e-14)
(0 0 2.21868e-14)
(0 0 7.37254e-15)
(0 0 2.21868e-14)
(0 0 5.28597e-15)
(0 0 2.21868e-14)
(0 0 0)
(-2.13687e-19 0 0)
(-1.44548e-37 0 0)
(-5.02417e-75 0 0)
(0 0 0)
(0 0 0)
(0 0 0)
(0 0 0)
(0 0 0)
(0 0 0)
(0 0 0)
(0 0 0)
(0 0 0)
(0 0 0)
(0 0 0)
(0 0 0)
(0 0 0)
(0 0 0)
(0 0 0)
(0 0 0)
(0 0 -1.29831e-15)
(0 0 5.00777e-15)
(0 0 5.56418e-15)
(0 0 0)
(0 0 1.66926e-15)
(0 0 -2.96756e-15)
(0 0 0)
(0 0 4.63682e-15)
(0 0 0)
(0 0 1.66926e-15)
(0 0 -2.96756e-15)
(0 0 0)
(0 0 4.63682e-15)
(0 0 0)
(0 0 1.66926e-15)
(0 0 -2.96756e-15)
(0 0 0)
(0 0 4.63682e-15)
(0 0 0)
(0 0 5.51782e-15)
(0 0 3.57035e-15)
(0 0 -8.14903e-15)
(0 0 1.9011e-15)
(0 0 0)
(0 0 5.51782e-15)
(0 0 3.57035e-15)
(0 0 -8.14903e-15)
(0 0 1.9011e-15)
(0 0 0)
(0 0 5.61055e-15)
(0 0 0)
(-1.0585e-18 0 -8.38087e-15)
(-1.5108e-32 0 0)
(3.98287e-73 0 0)
(0 0 0)
(0 0 -8.80996e-16)
(0 0 -1.66926e-15)
(0 0 0)
(0 0 -1.76199e-15)
(0 0 -1.15921e-15)
(0 0 0)
(0 0 0)
(0 0 0)
(0 0 0)
(0 0 0)
(0 0 0)
(0 0 0)
(0 0 0)
(0 0 0)
(0 0 0)
(0 0 -1.50925e-14)
(0 0 2.22332e-14)
(0 0 2.21868e-14)
(0 0 8.39264e-15)
(0 0 2.22332e-14)
(0 0 -1.69472e-14)
(0 0 0)
(0 0 2.22332e-14)
(0 0 8.25354e-15)
(0 0 2.22332e-14)
(0 0 -1.69472e-14)
(0 0 0)
(0 0 2.22332e-14)
(0 0 8.25354e-15)
(0 0 2.22332e-14)
(0 0 -1.69472e-14)
(0 0 0)
(0 0 2.22332e-14)
(0 0 8.29991e-15)
(0 0 2.22332e-14)
(0 0 2.21868e-14)
(0 0 0)
(0 0 2.12131e-14)
(0 0 0)
(0 0 2.21868e-14)
(0 0 2.21868e-14)
(0 0 0)
(0 0 2.12131e-14)
(0 0 0)
(0 0 2.21868e-14)
(0 0 0)
(-1.00032e-17 0 0)
(-3.74824e-28 0 0)
(0 0 0)
(0 0 0)
(0 0 -2.9513e-14)
(0 0 -3.30833e-14)
(0 0 -9.64459e-15)
(0 0 -3.32224e-14)
(0 0 -3.04867e-14)
(0 0 -9.27364e-17)
(0 0 0)
(0 0 0)
(0 0 0)
(0 0 0)
(0 0 1.20903e-14)
(0 0 1.66926e-15)
(0 0 0)
(0 0 0)
(0 0 0)
(0 0 7.4535e-15)
(0 0 1.70517e-14)
(0 0 6.53792e-15)
(0 0 1.66808e-14)
(0 0 1.98802e-14)
(0 0 1.03747e-14)
(0 0 1.06993e-14)
(0 0 4.68319e-15)
(0 0 1.61707e-14)
(0 0 1.98338e-14)
(0 0 1.03747e-14)
(0 0 1.06993e-14)
(0 0 4.68319e-15)
(0 0 1.61707e-14)
(0 0 1.98338e-14)
(0 0 1.03747e-14)
(0 0 1.06993e-14)
(0 0 4.68319e-15)
(0 0 1.63562e-14)
(0 0 2.06221e-14)
(0 0 0)
(0 0 -3.46017e-14)
(0 0 -1.99383e-15)
(0 0 -2.22332e-14)
(0 0 0)
(0 0 0)
(0 0 -3.10777e-14)
(0 0 -1.06647e-15)
(0 0 -2.20013e-14)
(0 0 0)
(0 0 0)
(-5.18555e-17 0 1.81064e-14)
(-8.67685e-24 0 0)
(0 0 0)
(0 0 2.22332e-14)
(0 0 0)
(0 0 -1.76199e-15)
(0 0 0)
(0 0 -1.85473e-15)
(0 0 -1.53015e-15)
(0 0 0)
(0 0 1.84774e-14)
(0 0 1.20557e-15)
(0 0 1.75036e-14)
(0 0 -5.59877e-15)
(0 0 1.74227e-14)
(0 0 2.22332e-14)
(0 0 2.17931e-15)
(0 0 1.73182e-14)
(0 0 -7.59261e-15)
(0 0 0)
(0 0 0)
(0 0 0)
(0 0 0)
(0 0 0)
(0 0 0)
(0 0 0)
(0 0 0)
(0 0 0)
(0 0 0)
(0 0 0)
(0 0 0)
(0 0 0)
(0 0 0)
(0 0 0)
(0 0 0)
(0 0 0)
(0 0 0)
(0 0 0)
(0 0 0)
(0 0 0)
(0 0 1.52316e-14)
(0 0 0)
(0 0 -3.61672e-15)
(0 0 0)
(0 0 0)
(0 0 1.54171e-14)
(0 0 0)
(0 0 -3.57035e-15)
(0 0 0)
(0 0 0)
(-1.9718e-16 0 -1.66226e-14)
(-2.25881e-20 0 0)
(0 0 0)
(0 0 2.22332e-14)
(0 0 0)
(0 0 0)
(0 0 0)
(0 0 0)
(0 0 0)
(0 0 0)
(0 0 -2.22332e-14)
(0 0 -8.0217e-15)
(0 0 -2.22332e-14)
(0 0 -1.64026e-14)
(0 0 5.59877e-15)
(0 0 -2.22332e-14)
(0 0 -7.51168e-15)
(0 0 -2.22332e-14)
(0 0 -1.89529e-14)
(0 0 0)
(0 0 0)
(0 0 0)
(0 0 0)
(0 0 0)
(0 0 0)
(0 0 0)
(0 0 0)
(0 0 0)
(0 0 0)
(0 0 0)
(0 0 0)
(0 0 0)
(0 0 0)
(0 0 0)
(0 0 0)
(0 0 0)
(0 0 0)
(0 0 0)
(0 0 0)
(0 0 0)
(0 0 0)
(0 0 0)
(0 0 -1.70399e-14)
(0 0 0)
(0 0 0)
(0 0 0)
(0 0 0)
(0 0 -1.70399e-14)
(0 0 0)
(0 0 0)
(-6.92524e-16 0 0)
(-5.46222e-18 0 0)
(0 0 0)
(0 0 4.21951e-15)
(0 0 0)
(0 0 0)
(0 0 0)
(0 0 0)
(0 0 0)
(0 0 -2.08657e-15)
(0 0 -3.59582e-14)
(0 0 -1.65534e-14)
(0 0 -4.24497e-14)
(0 0 -1.18239e-14)
(0 0 -1.39139e-16)
(0 0 -3.34544e-14)
(0 0 -1.54407e-14)
(0 0 -4.30063e-14)
(0 0 -1.35396e-14)
(0 0 0)
(0 0 0)
(0 0 0)
(0 0 0)
(0 0 0)
(0 0 0)
(0 0 0)
(0 0 0)
(0 0 0)
(0 0 0)
(0 0 0)
(0 0 0)
(0 0 0)
(0 0 0)
(0 0 0)
(0 0 0)
(0 0 0)
(0 0 0)
(0 0 0)
(0 0 0)
(0 0 0)
(0 0 0)
(0 0 0)
(0 0 1.92656e-14)
(0 0 0)
(0 0 0)
(0 0 0)
(0 0 0)
(0 0 1.92656e-14)
(0 0 0)
(0 0 0)
(-4.52271e-15 0 0)
(-1.78615e-16 0 0)
(0 0 0)
(0 0 2.22332e-14)
(0 0 0)
(0 0 0)
(0 0 0)
(0 0 0)
(0 0 0)
(0 0 0)
(0 0 -7.51165e-15)
(0 0 -3.0603e-15)
(0 0 -1.40959e-14)
(0 0 -1.63098e-14)
(0 0 6.94345e-15)
(0 0 -3.75586e-15)
(0 0 -1.06654e-15)
(0 0 -1.46524e-14)
(0 0 -2.00193e-14)
(0 0 0)
(0 0 0)
(0 0 0)
(0 0 0)
(0 0 0)
(0 0 0)
(0 0 0)
(0 0 0)
(0 0 0)
(0 0 0)
(0 0 0)
(0 0 0)
(0 0 0)
(0 0 0)
(0 0 0)
(0 0 0)
(0 0 0)
(0 0 0)
(0 0 0)
(0 0 0)
(0 0 0)
(0 0 2.21404e-14)
(0 0 0)
(0 0 0)
(0 0 0)
(0 0 0)
(0 0 2.21404e-14)
(0 0 0)
(0 0 0)
(0 0 0)
(0 0 0)
(-8.93413e-15 0 -1.69474e-14)
(-1.17136e-15 0 0)
(0 0 0)
(0 0 2.22332e-14)
(0 0 0)
(0 0 0)
(0 0 0)
(0 0 0)
(0 0 0)
(0 0 0)
(0 0 -1.86165e-14)
(0 0 -3.52398e-15)
(0 0 -2.22332e-14)
(0 0 -1.66808e-14)
(0 0 6.98982e-15)
(0 0 -1.50461e-14)
(0 0 -1.9011e-15)
(0 0 -2.22332e-14)
(0 0 -2.02048e-14)
(0 0 0)
(0 0 0)
(0 0 0)
(0 0 0)
(0 0 0)
(0 0 0)
(0 0 0)
(0 0 0)
(0 0 0)
(0 0 0)
(0 0 0)
(0 0 0)
(0 0 0)
(0 0 0)
(0 0 0)
(0 0 0)
(0 0 0)
(0 0 0)
(0 0 0)
(0 0 0)
(0 0 0)
(0 0 5.28597e-15)
(0 0 0)
(0 0 -2.4598e-14)
(0 0 0)
(0 0 0)
(0 0 5.28597e-15)
(0 0 0)
(0 0 -2.4598e-14)
(0 0 0)
(0 0 0)
(-1.08315e-14 0 1.68082e-14)
(-2.17324e-15 0 0)
(0 0 0)
(0 0 2.22332e-14)
(0 0 0)
(0 0 0)
(0 0 0)
(0 0 0)
(0 0 0)
(0 0 0)
(0 0 1.97757e-14)
(0 0 2.13294e-15)
(0 0 1.72254e-14)
(0 0 -7.03619e-15)
(0 0 1.57534e-14)
(0 0 2.22332e-14)
(0 0 3.01393e-15)
(0 0 1.69472e-14)
(0 0 -1.06529e-14)
(0 0 0)
(0 0 0)
(0 0 0)
(0 0 0)
(0 0 0)
(0 0 0)
(0 0 0)
(0 0 0)
(0 0 0)
(0 0 0)
(0 0 0)
(0 0 0)
(0 0 0)
(0 0 0)
(0 0 0)
(0 0 0)
(0 0 0)
(0 0 0)
(0 0 0)
(0 0 0)
(0 0 0)
(0 0 2.21868e-14)
(0 0 0)
(0 0 0)
(0 0 0)
(0 0 0)
(0 0 2.21868e-14)
(0 0 0)
(0 0 0)
(0 0 0)
(0 0 0)
(-3.63666e-17 0 0)
(-2.56785e-20 0 0)
(0 0 0)
(0 0 2.22332e-14)
(0 0 0)
(0 0 0)
(0 0 0)
(0 0 0)
(0 0 0)
(0 0 0)
(0 0 0)
(0 0 0)
(0 0 0)
(0 0 -7.87082e-15)
(0 0 9.12276e-15)
(0 0 0)
(0 0 0)
(0 0 0)
(0 0 -1.15803e-14)
(0 0 0)
(0 0 0)
(0 0 0)
(0 0 0)
(0 0 0)
(0 0 0)
(0 0 0)
(0 0 0)
(0 0 0)
(0 0 0)
(0 0 0)
(0 0 0)
(0 0 0)
(0 0 0)
(0 0 0)
(0 0 0)
(0 0 0)
(0 0 0)
(0 0 0)
(0 0 0)
(0 0 0)
(0 0 2.21868e-14)
(0 0 0)
(0 0 0)
(0 0 0)
(0 0 0)
(0 0 2.21868e-14)
(0 0 0)
(0 0 0)
(0 0 0)
(0 0 0)
(-6.64859e-16 0 0)
(-5.46129e-18 0 0)
(0 0 0)
(0 0 4.21951e-15)
(0 0 0)
(0 0 0)
(0 0 0)
(0 0 0)
(0 0 0)
(0 0 0)
(0 0 -2.66382e-14)
(0 0 -7.78986e-15)
(0 0 -3.05331e-14)
(0 0 -5.65692e-15)
(0 0 0)
(0 0 -2.62672e-14)
(0 0 -8.1608e-15)
(0 0 -3.18778e-14)
(0 0 -7.92896e-15)
(0 0 0)
(0 0 0)
(0 0 0)
(0 0 0)
(0 0 0)
(0 0 0)
(0 0 0)
(0 0 0)
(0 0 0)
(0 0 0)
(0 0 0)
(0 0 0)
(0 0 0)
(0 0 0)
(0 0 0)
(0 0 0)
(0 0 0)
(0 0 0)
(0 0 0)
(0 0 0)
(0 0 0)
(0 0 4.21951e-15)
(0 0 0)
(0 0 2.22332e-14)
(0 0 0)
(0 0 0)
(0 0 4.21951e-15)
(0 0 0)
(0 0 2.22332e-14)
(0 0 0)
(0 0 0)
(-4.5227e-15 0 0)
(-1.78584e-16 0 0)
(0 0 0)
(0 0 2.22332e-14)
(0 0 0)
(0 0 0)
(0 0 0)
(0 0 0)
(0 0 0)
(0 0 0)
(0 0 -4.12677e-15)
(0 0 0)
(0 0 -9.73732e-15)
(0 0 -1.38987e-14)
(0 0 6.94345e-15)
(0 0 -1.66926e-15)
(0 0 0)
(0 0 -1.10356e-14)
(0 0 -1.77472e-14)
(0 0 0)
(0 0 0)
(0 0 0)
(0 0 0)
(0 0 0)
(0 0 0)
(0 0 0)
(0 0 0)
(0 0 0)
(0 0 0)
(0 0 0)
(0 0 0)
(0 0 0)
(0 0 0)
(0 0 0)
(0 0 0)
(0 0 0)
(0 0 0)
(0 0 0)
(0 0 0)
(0 0 0)
(0 0 2.21868e-14)
(0 0 0)
(0 0 0)
(0 0 0)
(0 0 0)
(0 0 2.21868e-14)
(0 0 0)
(0 0 0)
(0 0 0)
(0 0 0)
(-8.93387e-15 0 -1.69474e-14)
(-1.1712e-15 0 0)
(0 0 0)
(0 0 2.22332e-14)
(0 0 0)
(0 0 0)
(0 0 0)
(0 0 0)
(0 0 0)
(0 0 0)
(0 0 -1.75036e-14)
(0 0 -2.45751e-15)
(0 0 -2.22332e-14)
(0 0 -1.64953e-14)
(0 0 6.98982e-15)
(0 0 -1.50461e-14)
(0 0 -1.66926e-15)
(0 0 -2.22332e-14)
(0 0 -2.00657e-14)
(0 0 0)
(0 0 0)
(0 0 0)
(0 0 0)
(0 0 0)
(0 0 0)
(0 0 0)
(0 0 0)
(0 0 0)
(0 0 0)
(0 0 0)
(0 0 0)
(0 0 0)
(0 0 0)
(0 0 0)
(0 0 0)
(0 0 0)
(0 0 0)
(0 0 0)
(0 0 0)
(0 0 0)
(0 0 5.28597e-15)
(0 0 0)
(0 0 -2.48298e-14)
(0 0 0)
(0 0 0)
(0 0 5.28597e-15)
(0 0 0)
(0 0 -2.48298e-14)
(0 0 0)
(0 0 0)
(-1.08315e-14 0 1.68082e-14)
(-2.173e-15 0 0)
(0 0 0)
(0 0 2.22332e-14)
(0 0 0)
(0 0 0)
(0 0 0)
(0 0 0)
(0 0 0)
(0 0 0)
(0 0 1.9822e-14)
(0 0 2.17931e-15)
(0 0 1.72254e-14)
(0 0 -7.03619e-15)
(0 0 1.57534e-14)
(0 0 2.22332e-14)
(0 0 3.01393e-15)
(0 0 1.69472e-14)
(0 0 -1.06529e-14)
(0 0 0)
(0 0 0)
(0 0 0)
(0 0 0)
(0 0 0)
(0 0 0)
(0 0 0)
(0 0 0)
(0 0 0)
(0 0 0)
(0 0 0)
(0 0 0)
(0 0 0)
(0 0 0)
(0 0 0)
(0 0 0)
(0 0 0)
(0 0 0)
(0 0 0)
(0 0 0)
(0 0 0)
(0 0 2.21868e-14)
(0 0 0)
(0 0 0)
(0 0 0)
(0 0 0)
(0 0 2.21868e-14)
(0 0 0)
(0 0 0)
(0 0 0)
(0 0 0)
(-3.63642e-17 0 0)
(-2.56746e-20 0 0)
(0 0 0)
(0 0 2.22332e-14)
(0 0 0)
(0 0 0)
(0 0 0)
(0 0 0)
(0 0 0)
(0 0 0)
(0 0 0)
(0 0 0)
(0 0 0)
(0 0 -7.87082e-15)
(0 0 9.12276e-15)
(0 0 0)
(0 0 0)
(0 0 0)
(0 0 -1.15803e-14)
(0 0 0)
(0 0 0)
(0 0 0)
(0 0 0)
(0 0 0)
(0 0 0)
(0 0 0)
(0 0 0)
(0 0 0)
(0 0 0)
(0 0 0)
(0 0 0)
(0 0 0)
(0 0 0)
(0 0 0)
(0 0 0)
(0 0 0)
(0 0 0)
(0 0 0)
(0 0 0)
(0 0 0)
(0 0 2.21868e-14)
(0 0 0)
(0 0 0)
(0 0 0)
(0 0 0)
(0 0 2.21868e-14)
(0 0 0)
(0 0 0)
(0 0 0)
(0 0 0)
(-6.64861e-16 0 0)
(-5.46164e-18 0 0)
(0 0 0)
(0 0 4.21951e-15)
(0 0 0)
(0 0 0)
(0 0 0)
(0 0 0)
(0 0 0)
(0 0 0)
(0 0 -2.66382e-14)
(0 0 -7.78986e-15)
(0 0 -3.05331e-14)
(0 0 -5.65692e-15)
(0 0 0)
(0 0 -2.62672e-14)
(0 0 -8.1608e-15)
(0 0 -3.18778e-14)
(0 0 -7.92896e-15)
(0 0 0)
(0 0 0)
(0 0 0)
(0 0 0)
(0 0 0)
(0 0 0)
(0 0 0)
(0 0 0)
(0 0 0)
(0 0 0)
(0 0 0)
(0 0 0)
(0 0 0)
(0 0 0)
(0 0 0)
(0 0 0)
(0 0 0)
(0 0 0)
(0 0 0)
(0 0 0)
(0 0 0)
(0 0 4.21951e-15)
(0 0 0)
(0 0 2.22332e-14)
(0 0 0)
(0 0 0)
(0 0 4.21951e-15)
(0 0 0)
(0 0 2.22332e-14)
(0 0 0)
(0 0 0)
(-4.52246e-15 0 0)
(-1.7864e-16 0 0)
(0 0 0)
(0 0 2.22332e-14)
(0 0 0)
(0 0 0)
(0 0 0)
(0 0 0)
(0 0 0)
(0 0 0)
(0 0 -4.12677e-15)
(0 0 0)
(0 0 -9.73732e-15)
(0 0 -1.38987e-14)
(0 0 6.94345e-15)
(0 0 -1.66926e-15)
(0 0 0)
(0 0 -1.10356e-14)
(0 0 -1.77472e-14)
(0 0 0)
(0 0 0)
(0 0 0)
(0 0 0)
(0 0 0)
(0 0 0)
(0 0 0)
(0 0 0)
(0 0 0)
(0 0 0)
(0 0 0)
(0 0 0)
(0 0 0)
(0 0 0)
(0 0 0)
(0 0 0)
(0 0 0)
(0 0 0)
(0 0 0)
(0 0 0)
(0 0 0)
(0 0 2.21868e-14)
(0 0 0)
(0 0 0)
(0 0 0)
(0 0 0)
(0 0 2.21868e-14)
(0 0 0)
(0 0 0)
(0 0 0)
(0 0 0)
(-8.93253e-15 0 -1.69474e-14)
(-1.17187e-15 0 0)
(0 0 0)
(0 0 2.22332e-14)
(0 0 0)
(0 0 0)
(0 0 0)
(0 0 0)
(0 0 0)
(0 0 0)
(0 0 -1.75036e-14)
(0 0 -2.45751e-15)
(0 0 -2.22332e-14)
(0 0 -1.64953e-14)
(0 0 6.98982e-15)
(0 0 -1.50461e-14)
(0 0 -1.66926e-15)
(0 0 -2.22332e-14)
(0 0 -2.00657e-14)
(0 0 0)
(0 0 0)
(0 0 0)
(0 0 0)
(0 0 0)
(0 0 0)
(0 0 0)
(0 0 0)
(0 0 0)
(0 0 0)
(0 0 0)
(0 0 0)
(0 0 0)
(0 0 0)
(0 0 0)
(0 0 0)
(0 0 0)
(0 0 0)
(0 0 0)
(0 0 0)
(0 0 0)
(0 0 5.28597e-15)
(0 0 0)
(0 0 -2.48298e-14)
(0 0 0)
(0 0 0)
(0 0 5.28597e-15)
(0 0 0)
(0 0 -2.48298e-14)
(0 0 0)
(0 0 0)
(-1.08242e-14 0 1.68082e-14)
(-2.17465e-15 0 0)
(0 0 0)
(0 0 2.22332e-14)
(0 0 0)
(0 0 0)
(0 0 0)
(0 0 0)
(0 0 0)
(0 0 0)
(0 0 1.9822e-14)
(0 0 2.17931e-15)
(0 0 1.72254e-14)
(0 0 -7.03619e-15)
(0 0 1.57534e-14)
(0 0 2.22332e-14)
(0 0 3.01393e-15)
(0 0 1.69472e-14)
(0 0 -1.06529e-14)
(0 0 0)
(0 0 0)
(0 0 0)
(0 0 0)
(0 0 0)
(0 0 0)
(0 0 0)
(0 0 0)
(0 0 0)
(0 0 0)
(0 0 0)
(0 0 0)
(0 0 0)
(0 0 0)
(0 0 0)
(0 0 0)
(0 0 0)
(0 0 0)
(0 0 0)
(0 0 0)
(0 0 0)
(0 0 2.21868e-14)
(0 0 0)
(0 0 0)
(0 0 0)
(0 0 0)
(0 0 2.21868e-14)
(0 0 0)
(0 0 0)
(0 0 0)
(0 0 0)
(-9.08208e-19 0 0)
(0 0 0)
(0 0 0)
(0 0 2.22332e-14)
(0 0 0)
(0 0 0)
(0 0 0)
(0 0 0)
(0 0 0)
(0 0 0)
(0 0 0)
(0 0 0)
(0 0 0)
(0 0 -7.82445e-15)
(0 0 9.12276e-15)
(0 0 0)
(0 0 0)
(0 0 0)
(0 0 -1.15803e-14)
(0 0 0)
(0 0 0)
(0 0 0)
(0 0 0)
(0 0 0)
(0 0 0)
(0 0 0)
(0 0 0)
(0 0 0)
(0 0 0)
(0 0 0)
(0 0 0)
(0 0 0)
(0 0 0)
(0 0 0)
(0 0 0)
(0 0 0)
(0 0 0)
(0 0 0)
(0 0 0)
(0 0 0)
(0 0 2.21868e-14)
(0 0 0)
(0 0 0)
(0 0 0)
(0 0 0)
(0 0 2.21868e-14)
(0 0 0)
(0 0 0)
(0 0 0)
(0 0 0)
(-2.12104e-19 0 0)
(0 0 0)
(0 0 0)
(0 0 4.21951e-15)
(0 0 0)
(0 0 0)
(0 0 0)
(0 0 0)
(0 0 0)
(0 0 0)
(0 0 -2.66845e-14)
(0 0 -7.78986e-15)
(0 0 -3.03476e-14)
(0 0 -5.51782e-15)
(0 0 0)
(0 0 -2.64991e-14)
(0 0 -8.20717e-15)
(0 0 -3.18314e-14)
(0 0 -7.83623e-15)
(0 0 0)
(0 0 0)
(0 0 0)
(0 0 0)
(0 0 0)
(0 0 0)
(0 0 0)
(0 0 0)
(0 0 0)
(0 0 0)
(0 0 0)
(0 0 0)
(0 0 0)
(0 0 0)
(0 0 0)
(0 0 0)
(0 0 0)
(0 0 0)
(0 0 0)
(0 0 0)
(0 0 0)
(0 0 4.12677e-15)
(0 0 0)
(0 0 2.22332e-14)
(0 0 0)
(0 0 0)
(0 0 4.12677e-15)
(0 0 0)
(0 0 2.22332e-14)
(0 0 0)
(0 0 0)
(-2.12143e-19 0 0)
(0 0 0)
(0 0 0)
(0 0 2.22332e-14)
(0 0 0)
(0 0 0)
(0 0 0)
(0 0 0)
(0 0 0)
(0 0 0)
(0 0 -4.31224e-15)
(0 0 0)
(0 0 -9.27364e-15)
(0 0 -1.42696e-14)
(0 0 6.94345e-15)
(0 0 -2.50388e-15)
(0 0 0)
(0 0 -1.10356e-14)
(0 0 -1.81182e-14)
(0 0 0)
(0 0 0)
(0 0 0)
(0 0 0)
(0 0 0)
(0 0 0)
(0 0 0)
(0 0 0)
(0 0 0)
(0 0 0)
(0 0 0)
(0 0 0)
(0 0 0)
(0 0 0)
(0 0 0)
(0 0 0)
(0 0 0)
(0 0 0)
(0 0 0)
(0 0 0)
(0 0 0)
(0 0 2.18622e-14)
(0 0 0)
(0 0 0)
(0 0 0)
(0 0 0)
(0 0 2.18622e-14)
(0 0 0)
(0 0 0)
(0 0 0)
(0 0 0)
(-3.42621e-19 0 -2.08421e-14)
(0 0 0)
(0 0 0)
(0 0 2.22332e-14)
(0 0 0)
(0 0 0)
(0 0 0)
(0 0 0)
(0 0 0)
(0 0 0)
(0 0 -2.22332e-14)
(0 0 -6.86249e-15)
(0 0 -2.42734e-14)
(0 0 -1.82109e-14)
(0 0 6.38703e-15)
(0 0 -2.22332e-14)
(0 0 -8.0217e-15)
(0 0 -2.58963e-14)
(0 0 -2.15031e-14)
(0 0 0)
(0 0 0)
(0 0 0)
(0 0 0)
(0 0 0)
(0 0 0)
(0 0 0)
(0 0 0)
(0 0 0)
(0 0 0)
(0 0 0)
(0 0 0)
(0 0 0)
(0 0 0)
(0 0 0)
(0 0 0)
(0 0 0)
(0 0 0)
(0 0 0)
(0 0 0)
(0 0 0)
(0 0 0)
(0 0 0)
(0 0 -1.91729e-14)
(0 0 0)
(0 0 0)
(0 0 0)
(0 0 0)
(0 0 -1.91729e-14)
(0 0 0)
(0 0 0)
(-2.13456e-26 0 0)
(0 0 0)
(0 0 0)
(0 0 0)
(0 0 0)
(0 0 0)
(0 0 0)
(0 0 0)
(0 0 0)
(0 0 0)
(0 0 -3.08577e-14)
(0 0 -8.53175e-15)
(0 0 -3.01158e-14)
(0 0 -1.85473e-16)
(0 0 -9.22727e-15)
(0 0 -3.99922e-14)
(0 0 -1.15457e-14)
(0 0 -3.15996e-14)
(0 0 -7.88259e-16)
(0 0 0)
(0 0 0)
(0 0 0)
(0 0 0)
(0 0 0)
(0 0 -1.9011e-15)
(0 0 -1.94746e-15)
(0 0 0)
(0 0 0)
(0 0 0)
(0 0 -1.99383e-15)
(0 0 -1.99383e-15)
(0 0 0)
(0 0 0)
(0 0 0)
(0 0 -1.94746e-15)
(0 0 -1.85473e-15)
(0 0 0)
(0 0 0)
(0 0 0)
(0 0 0)
(0 0 0)
(0 0 0)
(0 0 1.69472e-14)
(0 0 0)
(0 0 0)
(0 0 0)
(0 0 0)
(0 0 1.69472e-14)
(0 0 0)
(0 0 0)
(-3.4634e-27 0 0)
(0 0 0)
(0 0 0)
(0 0 0)
(0 0 -1.65763e-14)
(0 0 2.10276e-14)
(0 0 1.23685e-14)
(0 0 6.49155e-16)
(0 0 2.22332e-14)
(0 0 1.23685e-14)
(0 0 -3.52398e-15)
(0 0 7.36077e-15)
(0 0 0)
(0 0 2.22214e-14)
(0 0 -3.02549e-14)
(0 0 -1.73417e-14)
(0 0 8.14903e-15)
(0 0 0)
(0 0 2.22214e-14)
(0 0 -1.59735e-14)
(0 0 0)
(0 0 0)
(0 0 -2.29751e-14)
(0 0 -8.67085e-15)
(0 0 -3.32688e-14)
(0 0 -3.34543e-14)
(0 0 -8.20717e-15)
(0 0 -2.52471e-14)
(0 0 -9.45911e-15)
(0 0 -3.35934e-14)
(0 0 -3.3547e-14)
(0 0 -8.25354e-15)
(0 0 -2.52471e-14)
(0 0 -9.41274e-15)
(0 0 -3.35007e-14)
(0 0 -3.31297e-14)
(0 0 -7.32618e-15)
(0 0 -2.26505e-14)
(0 0 0)
(0 0 0)
(0 0 0)
(0 0 0)
(0 0 2.78209e-15)
(0 0 0)
(0 0 0)
(0 0 0)
(0 0 0)
(0 0 2.68936e-15)
(0 0 0)
(0 0 0)
(-2.7075e-27 0 0)
(0 0 0)
(0 0 0)
(0 0 0)
(0 0 0)
(0 0 0)
(0 0 0)
(0 0 0)
(0 0 0)
(0 0 0)
(0 0 -2.45052e-14)
(0 0 -2.82846e-15)
(0 0 -2.18159e-14)
(0 0 0)
(0 0 -9.41278e-15)
(0 0 -3.49845e-14)
(0 0 -6.81623e-15)
(0 0 -2.32997e-14)
(0 0 0)
(0 0 0)
(0 0 0)
(0 0 0)
(0 0 0)
(0 0 0)
(0 0 -2.08657e-15)
(0 0 -2.68936e-15)
(0 0 -1.85473e-15)
(0 0 0)
(0 0 0)
(0 0 -2.17931e-15)
(0 0 -2.73572e-15)
(0 0 -1.9011e-15)
(0 0 0)
(0 0 0)
(0 0 -2.08657e-15)
(0 0 -2.50388e-15)
(0 0 -1.53015e-15)
(0 0 0)
(0 0 0)
(0 0 0)
(0 0 0)
(0 0 0)
(0 0 2.18159e-14)
(0 0 0)
(0 0 -1.25194e-15)
(0 0 0)
(0 0 0)
(0 0 2.14913e-14)
(0 0 0)
(0 0 0)
(-7.38808e-27 0 0)
(0 0 0)
(0 0 0)
(0 0 0)
(0 0 0)
(0 0 0)
(0 0 0)
(0 0 -2.09812e-14)
(0 0 0)
(0 0 0)
(0 0 -8.43901e-15)
(0 0 0)
(0 0 -1.20557e-15)
(0 0 2.21868e-14)
(0 0 0)
(0 0 -1.62753e-14)
(0 0 -4.77624e-15)
(0 0 -3.10684e-15)
(0 0 2.16768e-14)
(0 0 3.47762e-15)
(0 0 1.70399e-14)
(0 0 -1.91265e-14)
(0 0 0)
(0 0 2.21868e-14)
(0 0 0)
(0 0 0)
(0 0 -2.41806e-14)
(0 0 0)
(0 0 2.21868e-14)
(0 0 0)
(0 0 0)
(0 0 -2.41806e-14)
(0 0 0)
(0 0 2.21868e-14)
(0 0 0)
(0 0 0)
(0 0 -2.38561e-14)
(0 0 0)
(0 0 1.92656e-14)
(0 0 -1.69472e-14)
(0 0 -2.68936e-15)
(0 0 -2.14913e-14)
(0 0 0)
(0 0 -2.86784e-14)
(0 0 -3.15068e-14)
(0 0 -6.58428e-15)
(0 0 -2.2465e-14)
(0 0 0)
(0 0 -2.7751e-14)
(0 0 0)
(-1.09761e-26 0 0)
(0 0 0)
(0 0 0)
(0 0 0)
(0 0 0)
(0 0 0)
(0 0 0)
(0 0 0)
(0 0 0)
(0 0 -2.9212e-15)
(0 0 -3.69783e-14)
(0 0 -1.39105e-14)
(0 0 -3.28051e-14)
(0 0 0)
(0 0 -6.86325e-15)
(0 0 -4.50017e-14)
(0 0 -1.89654e-14)
(0 0 -3.50775e-14)
(0 0 0)
(0 0 0)
(0 0 0)
(0 0 0)
(0 0 0)
(0 0 0)
(0 0 0)
(0 0 0)
(0 0 0)
(0 0 0)
(0 0 0)
(0 0 0)
(0 0 0)
(0 0 0)
(0 0 0)
(0 0 0)
(0 0 0)
(0 0 0)
(0 0 0)
(0 0 0)
(0 0 0)
(0 0 0)
(0 0 0)
(0 0 0)
(0 0 2.22332e-14)
(0 0 0)
(0 0 -1.25194e-15)
(0 0 0)
(0 0 0)
(0 0 2.22332e-14)
(0 0 0)
(0 0 0)
(-8.69624e-27 0 0)
(0 0 0)
(0 0 0)
(0 0 0)
(0 0 0)
(0 0 0)
(0 0 0)
(0 0 0)
(0 0 0)
(0 0 0)
(0 0 -3.38252e-14)
(0 0 -1.11284e-14)
(0 0 -3.1785e-14)
(0 0 0)
(0 0 -1.59987e-14)
(0 0 -4.87603e-14)
(0 0 -1.64158e-14)
(0 0 -3.36866e-14)
(0 0 0)
(0 0 0)
(0 0 0)
(0 0 0)
(0 0 0)
(0 0 0)
(0 0 -1.9011e-15)
(0 0 -1.94746e-15)
(0 0 0)
(0 0 0)
(0 0 0)
(0 0 -1.99383e-15)
(0 0 -1.99383e-15)
(0 0 0)
(0 0 0)
(0 0 0)
(0 0 -1.94746e-15)
(0 0 -1.85473e-15)
(0 0 0)
(0 0 0)
(0 0 0)
(0 0 0)
(0 0 0)
(0 0 0)
(0 0 2.22332e-14)
(0 0 0)
(0 0 0)
(0 0 0)
(0 0 0)
(0 0 2.22332e-14)
(0 0 0)
(0 0 0)
(-2.69605e-27 0 0)
(0 0 0)
(0 0 0)
(0 0 0)
(0 0 -1.65763e-14)
(0 0 2.10276e-14)
(0 0 1.23685e-14)
(0 0 6.49155e-16)
(0 0 2.22332e-14)
(0 0 1.23685e-14)
(0 0 -3.89493e-15)
(0 0 7.3144e-15)
(0 0 0)
(0 0 2.22214e-14)
(0 0 -3.2157e-14)
(0 0 -2.03108e-14)
(0 0 8.14903e-15)
(0 0 0)
(0 0 2.22214e-14)
(0 0 -1.59735e-14)
(0 0 0)
(0 0 0)
(0 0 -2.29751e-14)
(0 0 -8.67085e-15)
(0 0 -3.32688e-14)
(0 0 -3.34543e-14)
(0 0 -8.20717e-15)
(0 0 -2.52471e-14)
(0 0 -9.45911e-15)
(0 0 -3.35934e-14)
(0 0 -3.3547e-14)
(0 0 -8.25354e-15)
(0 0 -2.52471e-14)
(0 0 -9.41274e-15)
(0 0 -3.35007e-14)
(0 0 -3.31297e-14)
(0 0 -7.32618e-15)
(0 0 -2.26505e-14)
(0 0 0)
(0 0 0)
(0 0 0)
(0 0 0)
(0 0 4.17314e-15)
(0 0 0)
(0 0 0)
(0 0 0)
(0 0 0)
(0 0 4.12677e-15)
(0 0 0)
(0 0 0)
(-3.30307e-40 0 0)
(0 0 0)
(0 0 0)
(0 0 0)
(0 0 0)
(0 0 0)
(0 0 0)
(0 0 0)
(0 0 0)
(0 0 0)
(0 0 -2.46443e-14)
(0 0 -2.87483e-15)
(0 0 -2.18622e-14)
(0 0 0)
(0 0 -1.01551e-14)
(0 0 -3.61907e-14)
(0 0 -7.09461e-15)
(0 0 -2.33461e-14)
(0 0 0)
(0 0 0)
(0 0 0)
(0 0 0)
(0 0 0)
(0 0 0)
(0 0 -2.08657e-15)
(0 0 -2.68936e-15)
(0 0 -1.85473e-15)
(0 0 0)
(0 0 0)
(0 0 -2.17931e-15)
(0 0 -2.73572e-15)
(0 0 -1.9011e-15)
(0 0 0)
(0 0 0)
(0 0 -2.08657e-15)
(0 0 -2.50388e-15)
(0 0 -1.53015e-15)
(0 0 0)
(0 0 0)
(0 0 0)
(0 0 0)
(0 0 0)
(0 0 2.21404e-14)
(0 0 0)
(0 0 -1.15921e-15)
(0 0 0)
(0 0 0)
(0 0 2.18622e-14)
(0 0 0)
(0 0 0)
(-2.30379e-60 0 0)
(0 0 0)
(0 0 0)
(0 0 0)
(0 0 0)
(0 0 0)
(0 0 0)
(0 0 -2.09812e-14)
(0 0 0)
(0 0 0)
(0 0 -8.57812e-15)
(0 0 0)
(0 0 -1.25194e-15)