/*--------------------------------*- C++ -*----------------------------------*\
  =========                 |
  \\      /  F ield         | OpenFOAM: The Open Source CFD Toolbox
   \\    /   O peration     | Website:  https://openfoam.org
    \\  /    A nd           | Version:  9
     \\/     M anipulation  |
\*---------------------------------------------------------------------------*/
FoamFile
{
    format      ascii;
    class       volVectorField;
    location    "0.008";
    object      rhoU;
}
// * * * * * * * * * * * * * * * * * * * * * * * * * * * * * * * * * * * * * //

dimensions      [1 -2 -1 0 0 0 0];

internalField   nonuniform List<vector> 
62500
(
(0 0 0)
(-2.30407e-17 0 0)
(-2.59435e-18 0 0)
(8.55549e-41 0 0)
(-4.22145e-59 0 0)
(6.68824e-63 0 0)
(1.65378e-75 0 0)
(-3.00792e-91 0 0)
(0 0 0)
(0 0 0)
(0 0 0)
(0 0 0)
(0 0 0)
(0 0 0)
(0 0 0)
(0 0 0)
(0 0 0)
(0 0 0)
(0 0 0)
(0 0 0)
(0 0 0)
(0 0 0)
(0 0 0)
(0 0 0)
(0 0 0)
(0 0 0)
(0 0 0)
(0 0 0)
(0 0 0)
(0 0 0)
(0 0 0)
(0 0 0)
(0 0 0)
(0 0 0)
(0 0 0)
(0 0 0)
(0 0 0)
(0 0 0)
(0 0 0)
(0 0 0)
(0 0 0)
(0 0 0)
(0 0 0)
(0 0 0)
(0 0 0)
(0 0 0)
(0 0 0)
(0 0 0)
(0 0 0)
(0 0 0)
(0 0 0)
(-2.08515e-17 0 0)
(-2.15971e-18 0 0)
(-1.10486e-48 2.9353e-47 0)
(-1.18491e-60 2.79275e-48 0)
(1.35132e-61 1.35896e-31 0)
(1.91255e-74 -3.85724e-16 0)
(-9.18727e-90 0 0)
(0 9.27214e-32 0)
(0 -3.98313e-16 0)
(0 0 0)
(0 0 8.50573e-15)
(0 0 0)
(0 0 8.50573e-15)
(0 -1.38029e-19 0)
(0 0 0)
(0 0 8.50573e-15)
(0 0 0)
(0 0 1.02666e-14)
(0 -1.60517e-18 0)
(0 0 -2.21804e-14)
(0 -3.39008e-29 2.06467e-14)
(0 2.02761e-32 0)
(0 1.6033e-31 0)
(0 -2.32693e-29 2.27486e-14)
(0 0 -2.04195e-14)
(0 0 0)
(0 -5.01382e-33 0)
(0 -1.05573e-40 0)
(0 -2.34762e-29 2.27486e-14)
(0 0 -2.04195e-14)
(0 0 0)
(0 1.39584e-32 0)
(0 -2.86183e-45 0)
(0 -2.32667e-29 2.27486e-14)
(0 0 -2.04195e-14)
(0 0 0)
(0 2.16513e-32 0)
(0 -1.94901e-36 0)
(0 -2.71354e-14 2.66113e-14)
(0 -1.24859e-34 0)
(0 6.07626e-47 0)
(0 -1.86619e-34 0)
(0 -8.72487e-24 0)
(0 -1.98048e-34 0)
(0 -2.26041e-34 0)
(0 -2.72044e-43 0)
(0 -1.8662e-34 0)
(0 -8.72487e-24 0)
(0 -1.98074e-34 0)
(0 0 0)
(-1.31413e-17 0 0)
(-1.12823e-18 0 0)
(6.0853e-48 -6.40085e-56 0)
(-9.88681e-60 4.2155e-49 0)
(-9.9149e-61 1.76004e-51 0)
(2.94185e-73 -1.90198e-16 0)
(-3.92924e-89 0 0)
(0 0 0)
(0 -2.03323e-16 0)
(0 0 0)
(0 0 0)
(0 0 0)
(0 0 0)
(0 0 0)
(0 0 0)
(0 0 0)
(0 0 0)
(0 0 0)
(0 0 0)
(0 0 0)
(0 -9.56424e-34 0)
(0 -2.89663e-33 0)
(0 -1.11809e-36 0)
(0 -8.48259e-34 0)
(0 0 0)
(0 0 0)
(0 0 0)
(0 0 0)
(0 -8.48259e-34 0)
(0 0 0)
(0 0 0)
(0 0 0)
(0 0 0)
(0 -8.48259e-34 0)
(0 0 0)
(0 0 0)
(0 0 0)
(0 0 0)
(0 -2.70544e-14 0)
(0 0 0)
(0 0 0)
(0 0 0)
(0 0 0)
(0 0 0)
(0 0 0)
(0 0 0)
(0 0 0)
(0 0 0)
(0 0 0)
(0 0 0)
(-6.65245e-18 0 0)
(-3.90652e-19 0 0)
(-1.94814e-47 1.22638e-56 0)
(-3.49783e-62 -1.13972e-61 8.50573e-15)
(1.53973e-59 -6.54722e-64 0)
(1.15735e-72 -1.14809e-17 0)
(1.18874e-88 0 0)
(0 0 -1.03802e-14)
(0 -2.58427e-17 0)
(0 0 0)
(0 0 0)
(0 0 0)
(0 0 0)
(0 0 0)
(0 0 -5.6801e-17)
(0 0 0)
(0 0 0)
(0 0 0)
(0 0 0)
(0 0 -1.53367e-15)
(0 -2.52358e-32 -3.2377e-15)
(0 -5.03033e-36 0)
(0 -8.14744e-36 -8.40791e-15)
(0 6.40677e-24 -1.61343e-14)
(0 0 -1.34643e-14)
(0 0 -7.15812e-15)
(0 0 0)
(0 0 -8.40791e-15)
(0 6.50174e-24 -1.61343e-14)
(0 0 -1.34643e-14)
(0 0 -7.15812e-15)
(0 0 0)
(0 0 -8.40791e-15)
(0 6.37617e-24 -1.61343e-14)
(0 0 -1.34643e-14)
(0 0 -7.04447e-15)
(0 0 0)
(0 0 -2.38569e-15)
(0 -1.28997e-14 -2.10168e-15)
(0 0 0)
(0 0 0)
(0 0 0)
(0 0 0)
(0 0 0)
(0 0 0)
(0 0 0)
(0 0 0)
(0 0 0)
(0 0 0)
(0 0 0)
(-4.77034e-18 0 0)
(-1.99421e-19 0 0)
(-1.10042e-46 -6.98552e-59 -8.50573e-15)
(-4.43545e-64 -9.1514e-67 0)
(-1.9268e-59 5.29355e-72 0)
(-1.03413e-73 0 0)
(-7.16449e-89 0 0)
(0 0 0)
(0 -1.18778e-19 0)
(0 0 0)
(0 0 0)
(0 0 0)
(0 0 0)
(0 0 0)
(0 0 -3.55854e-14)
(0 0 -7.95215e-16)
(0 0 0)
(0 0 0)
(0 0 0)
(0 0 -3.67215e-14)
(0 -1.32537e-32 -4.17768e-14)
(0 -6.25852e-37 -1.28372e-14)
(0 1.83859e-28 -5.13218e-14)
(0 -1.14608e-26 -6.11512e-14)
(0 0 -6.11512e-14)
(0 0 -5.08105e-14)
(0 0 -1.31213e-14)
(0 0 -5.14354e-14)
(0 -1.14229e-26 -6.11512e-14)
(0 0 -6.11512e-14)
(0 0 -5.08105e-14)
(0 0 -1.31213e-14)
(0 0 -5.14354e-14)
(0 -1.14229e-26 -6.11512e-14)
(0 0 -6.11512e-14)
(0 0 -5.05265e-14)
(0 0 -1.23828e-14)
(0 0 -4.12657e-14)
(0 -1.2657e-32 -3.93922e-14)
(0 0 -9.09283e-16)
(0 0 0)
(0 0 0)
(0 0 0)
(0 0 0)
(0 0 0)
(0 0 0)
(0 0 0)
(0 0 0)
(0 0 0)
(0 0 0)
(-5.14991e-18 0 0)
(-2.51141e-19 0 0)
(-2.54642e-46 0 0)
(-2.88123e-67 -4.68065e-80 0)
(-8.37084e-57 0 0)
(-4.89479e-73 0 2.67812e-14)
(-4.42016e-87 0 5.05529e-15)
(0 0 2.72356e-14)
(0 -1.52627e-25 2.72356e-14)
(0 0 0)
(0 0 0)
(0 0 0)
(0 0 0)
(0 0 2.5134e-14)
(0 0 -3.85391e-14)
(0 0 -1.47683e-15)
(0 0 0)
(0 0 0)
(0 0 2.72356e-14)
(0 0 0)
(0 -8.91369e-39 -2.55609e-15)
(0 -4.62269e-45 0)
(0 1.25134e-44 -7.49897e-15)
(0 4.10704e-30 -1.26122e-14)
(0 0 -1.25554e-14)
(0 0 -7.38536e-15)
(0 0 0)
(0 0 -7.55577e-15)
(0 4.38667e-30 -1.26122e-14)
(0 0 -1.25554e-14)
(0 0 -7.38536e-15)
(0 0 0)
(0 0 -7.55577e-15)
(0 4.1444e-30 -1.26122e-14)
(0 0 -1.25554e-14)
(0 0 -7.27168e-15)
(0 0 0)
(0 0 -2.49937e-15)
(0 -1.18383e-38 -2.61327e-15)
(0 0 0)
(0 0 2.03059e-14)
(0 0 0)
(0 0 0)
(0 0 0)
(0 0 0)
(0 0 2.03059e-14)
(0 0 0)
(0 0 0)
(0 0 0)
(0 0 0)
(-3.80921e-18 0 0)
(-2.38085e-19 0 0)
(-7.08395e-46 0 0)
(-5.79051e-67 0 0)
(-1.59027e-55 0 -2.67812e-14)
(-9.21961e-73 0 0)
(-1.18282e-86 0 0)
(0 0 -2.01355e-14)
(0 0 0)
(0 0 0)
(0 0 0)
(0 0 0)
(0 0 0)
(0 0 2.64404e-14)
(0 0 -2.93941e-14)
(0 0 0)
(0 0 0)
(0 0 0)
(0 0 2.72356e-14)
(0 0 0)
(0 -2.87814e-47 0)
(0 2.49479e-49 0)
(0 8.36249e-50 0)
(0 0 0)
(0 0 0)
(0 0 0)
(0 0 0)
(0 0 0)
(0 0 0)
(0 0 0)
(0 0 0)
(0 0 0)
(0 0 0)
(0 0 0)
(0 0 0)
(0 0 0)
(0 0 0)
(0 0 0)
(0 -4.03001e-47 0)
(0 0 0)
(0 0 -2.57588e-14)
(0 0 0)
(0 0 0)
(0 0 0)
(0 0 0)
(0 0 -2.57588e-14)
(0 0 0)
(0 0 0)
(0 0 0)
(0 0 0)
(-1.08774e-18 0 0)
(-9.01007e-20 0 0)
(-1.37451e-45 0 0)
(-3.20889e-66 0 0)
(-2.95218e-54 0 -5.05529e-15)
(-9.3577e-70 0 0)
(-3.98489e-86 0 0)
(0 0 0)
(0 0 0)
(0 0 0)
(0 0 0)
(0 0 0)
(0 0 0)
(0 0 3.91927e-15)
(0 0 -3.46486e-15)
(0 0 0)
(0 0 0)
(0 0 0)
(0 0 5.1689e-15)
(0 0 0)
(0 5.10263e-49 0)
(0 3.18902e-51 0)
(0 0 0)
(0 0 0)
(0 0 0)
(0 0 0)
(0 0 0)
(0 0 0)
(0 0 0)
(0 0 0)
(0 0 0)
(0 0 0)
(0 0 0)
(0 0 0)
(0 0 0)
(0 0 0)
(0 0 0)
(0 0 0)
(0 1.07536e-48 0)
(0 0 0)
(0 0 -1.56627e-14)
(0 0 0)
(0 0 0)
(0 0 0)
(0 0 0)
(0 0 -1.56627e-14)
(0 0 0)
(0 0 0)
(0 0 0)
(0 0 0)
(-1.53834e-19 0 0)
(-8.00648e-21 0 0)
(-3.47331e-47 0 1.03802e-14)
(-6.02662e-66 0 0)
(-2.57548e-53 0 -2.72356e-14)
(-1.93341e-68 0 2.01355e-14)
(-2.37949e-85 0 0)
(0 0 0)
(0 0 2.55316e-14)
(0 0 0)
(0 0 0)
(0 0 0)
(0 0 0)
(0 0 2.64972e-14)
(0 0 -2.63268e-14)
(0 0 0)
(0 0 0)
(0 0 0)
(0 0 2.72356e-14)
(0 0 0)
(0 0 0)
(0 0 0)
(0 0 0)
(0 0 0)
(0 0 0)
(0 0 0)
(0 0 0)
(0 0 0)
(0 0 0)
(0 0 0)
(0 0 0)
(0 0 0)
(0 0 0)
(0 0 0)
(0 0 0)
(0 0 0)
(0 0 0)
(0 0 0)
(0 0 0)
(0 0 0)
(0 0 -2.72645e-15)
(0 0 0)
(0 0 2.60996e-14)
(0 0 0)
(0 0 0)
(0 0 -2.72645e-15)
(0 0 0)
(0 0 2.60996e-14)
(0 0 0)
(0 0 0)
(-6.83362e-19 0 0)
(-7.50666e-35 0 0)
(-1.20143e-49 0 0)
(2.08648e-65 0 0)
(-7.25507e-54 0 -2.72356e-14)
(-1.10786e-71 0 0)
(-1.87983e-89 0 0)
(0 0 -2.55316e-14)
(0 0 0)
(0 0 0)
(0 0 0)
(0 0 0)
(0 0 0)
(0 0 2.5702e-14)
(0 0 -2.5702e-14)
(0 0 0)
(0 0 0)
(0 0 0)
(0 0 2.72356e-14)
(0 0 0)
(0 0 0)
(0 0 0)
(0 0 0)
(0 0 0)
(0 0 0)
(0 0 0)
(0 0 0)
(0 0 0)
(0 0 0)
(0 0 0)
(0 0 0)
(0 0 0)
(0 0 0)
(0 0 0)
(0 0 0)
(0 0 0)
(0 0 0)
(0 0 0)
(0 0 0)
(0 0 0)
(0 0 -3.23477e-14)
(0 0 0)
(0 0 0)
(0 0 0)
(0 0 0)
(0 0 -3.23477e-14)
(0 0 0)
(0 0 0)
(0 0 0)
(0 0 0)
(-3.17745e-18 0 0)
(-1.96656e-34 0 0)
(-7.58191e-49 0 0)
(1.55013e-64 0 0)
(1.38592e-63 0 0)
(2.87285e-77 0 0)
(3.69302e-88 0 0)
(0 0 0)
(0 0 0)
(0 0 0)
(0 0 0)
(0 0 0)
(0 0 0)
(0 0 0)
(0 0 0)
(0 0 0)
(0 0 0)
(0 0 0)
(0 0 0)
(0 0 0)
(0 0 0)
(0 0 0)
(0 0 0)
(0 0 0)
(0 0 0)
(0 0 0)
(0 0 0)
(0 0 0)
(0 0 0)
(0 0 0)
(0 0 0)
(0 0 0)
(0 0 0)
(0 0 0)
(0 0 0)
(0 0 0)
(0 0 0)
(0 0 0)
(0 0 0)
(0 0 0)
(0 0 -1.64011e-14)
(0 0 0)
(0 0 0)
(0 0 0)
(0 0 0)
(0 0 -1.64011e-14)
(0 0 0)
(0 0 0)
(0 0 0)
(0 0 0)
(-5.75757e-18 0 -8.50573e-15)
(-4.25721e-34 0 0)
(-4.83804e-49 0 0)
(7.33051e-65 0 0)
(1.52367e-64 0 0)
(3.57527e-78 0 0)
(-5.36406e-95 0 0)
(0 0 0)
(0 0 0)
(0 0 0)
(0 0 0)
(0 0 0)
(0 0 0)
(0 0 0)
(0 0 0)
(0 0 0)
(0 0 0)
(0 0 0)
(0 0 0)
(0 0 -2.05899e-14)
(0 0 2.72356e-14)
(0 0 2.71788e-14)
(0 0 3.63527e-15)
(0 0 2.12147e-14)
(0 0 -2.40548e-14)
(0 0 0)
(0 0 2.71788e-14)
(0 0 3.63527e-15)
(0 0 2.11579e-14)
(0 0 -2.40548e-14)
(0 0 0)
(0 0 2.71788e-14)
(0 0 3.63527e-15)
(0 0 2.11579e-14)
(0 0 -2.40548e-14)
(0 0 0)
(0 0 2.71788e-14)
(0 0 5.1689e-15)
(0 0 2.72356e-14)
(0 0 2.71788e-14)
(0 0 9.08817e-16)
(0 0 2.71788e-14)
(0 0 5.1689e-15)
(0 0 2.71788e-14)
(0 0 2.71788e-14)
(0 0 9.08817e-16)
(0 0 2.71788e-14)
(0 0 5.1689e-15)
(0 0 2.71788e-14)
(0 0 0)
(-5.26062e-18 0 0)
(3.24817e-35 0 0)
(7.22338e-48 0 0)
(1.51673e-64 0 0)
(4.4552e-66 0 0)
(1.45687e-84 0 0)
(0 0 0)
(0 0 0)
(0 0 0)
(0 0 0)
(0 0 0)
(0 0 0)
(0 0 0)
(0 0 0)
(0 0 0)
(0 0 0)
(0 0 0)
(0 0 0)
(0 0 0)
(0 0 -5.6801e-16)
(0 0 6.70252e-15)
(0 0 6.87293e-15)
(0 0 0)
(0 0 3.01046e-15)
(0 0 -2.61285e-15)
(0 0 0)
(0 0 5.5665e-15)
(0 0 0)
(0 0 2.95365e-15)
(0 0 -2.66965e-15)
(0 0 0)
(0 0 5.5665e-15)
(0 0 0)
(0 0 2.95365e-15)
(0 0 -2.66965e-15)
(0 0 0)
(0 0 5.5665e-15)
(0 0 0)
(0 0 6.75932e-15)
(0 0 4.60088e-15)
(0 0 -9.01694e-15)
(0 0 2.61285e-15)
(0 0 0)
(0 0 6.75932e-15)
(0 0 4.60088e-15)
(0 0 -8.96014e-15)
(0 0 2.61285e-15)
(0 0 0)
(0 0 6.87293e-15)
(0 0 0)
(-6.05501e-18 0 -8.50573e-15)
(-1.09654e-33 0 0)
(1.13511e-46 0 0)
(1.36645e-63 0 0)
(-3.28276e-72 0 0)
(-7.13363e-93 0 0)
(0 0 0)
(0 0 0)
(0 0 0)
(0 0 0)
(0 0 0)
(0 0 0)
(0 0 0)
(0 0 0)
(0 0 0)
(0 0 0)
(0 0 0)
(0 0 0)
(0 0 0)
(0 0 -1.85451e-14)
(0 0 2.72356e-14)
(0 0 2.71788e-14)
(0 0 9.20177e-15)
(0 0 2.72356e-14)
(0 0 -2.11011e-14)
(0 0 0)
(0 0 2.72356e-14)
(0 0 9.03137e-15)
(0 0 2.72356e-14)
(0 0 -2.11011e-14)
(0 0 0)
(0 0 2.72356e-14)
(0 0 9.03137e-15)
(0 0 2.72356e-14)
(0 0 -2.11011e-14)
(0 0 0)
(0 0 2.72356e-14)
(0 0 9.14497e-15)
(0 0 2.72356e-14)
(0 0 2.71788e-14)
(0 0 0)
(0 0 2.60996e-14)
(0 0 0)
(0 0 2.71788e-14)
(0 0 2.71788e-14)
(0 0 0)
(0 0 2.60996e-14)
(0 0 0)
(0 0 2.71788e-14)
(0 0 0)
(-3.09938e-18 0 0)
(-5.55089e-32 0 0)
(2.55786e-46 0 0)
(1.58762e-63 0 0)
(-6.06471e-71 0 -2.53044e-14)
(0 0 -2.64404e-14)
(0 0 -3.86247e-15)
(0 0 -2.64972e-14)
(0 0 -2.5702e-14)
(0 0 0)
(0 0 0)
(0 0 0)
(0 0 0)
(0 0 0)
(0 0 8.50573e-15)
(0 0 0)
(0 0 0)
(0 0 0)
(0 0 0)
(0 0 6.8585e-15)
(0 0 1.79347e-14)
(0 0 6.19131e-15)
(0 0 1.62875e-14)
(0 0 2.00931e-14)
(0 0 8.61933e-15)
(0 0 8.78973e-15)
(0 0 3.57847e-15)
(0 0 1.54923e-14)
(0 0 2.00363e-14)
(0 0 8.61933e-15)
(0 0 8.78973e-15)
(0 0 3.57847e-15)
(0 0 1.54923e-14)
(0 0 2.00363e-14)
(0 0 8.61933e-15)
(0 0 8.78973e-15)
(0 0 3.57847e-15)
(0 0 1.60603e-14)
(0 0 2.19108e-14)
(0 0 0)
(0 0 -4.00583e-14)
(0 0 -1.93124e-15)
(0 0 -2.72924e-14)
(0 0 0)
(0 0 0)
(0 0 -3.62526e-14)
(0 0 -7.38414e-16)
(0 0 -2.70084e-14)
(0 0 0)
(0 0 0)
(-7.62751e-18 0 0)
(-9.13567e-31 0 0)
(1.16962e-45 0 0)
(-1.0294e-63 0 2.72356e-14)
(-4.34055e-72 0 2.72356e-14)
(0 0 2.66108e-14)
(0 0 3.69207e-15)
(0 0 2.63836e-14)
(0 0 2.5702e-14)
(0 0 0)
(0 0 0)
(0 0 0)
(0 0 0)
(0 0 -8.50573e-15)
(0 0 0)
(0 0 0)
(0 0 0)
(0 0 0)
(0 0 -1.48106e-14)
(0 0 -2.13428e-14)
(0 0 -6.8585e-15)
(0 0 0)
(0 0 -8.50573e-15)
(0 0 -8.56253e-15)
(0 0 -1.92979e-14)
(0 0 -1.11754e-14)
(0 0 0)
(0 0 -8.50573e-15)
(0 0 -8.56253e-15)
(0 0 -1.92979e-14)
(0 0 -1.11754e-14)
(0 0 0)
(0 0 -8.50573e-15)
(0 0 -8.56253e-15)
(0 0 -1.92979e-14)
(0 0 -1.11754e-14)
(0 0 0)
(0 0 -8.50573e-15)
(0 0 -7.82412e-15)
(0 0 3.01046e-15)
(0 0 2.59292e-14)
(0 0 4.71449e-15)
(0 0 0)
(0 0 0)
(0 0 4.71449e-15)
(0 0 2.55884e-14)
(0 0 4.65769e-15)
(0 0 0)
(0 0 0)
(0 0 0)
(-1.61884e-17 0 -8.50573e-15)
(-2.46903e-29 0 0)
(3.4508e-44 0 0)
(-6.29846e-66 0 0)
(-1.98053e-74 0 0)
(0 0 0)
(0 0 0)
(0 0 0)
(0 0 0)
(0 0 0)
(0 0 0)
(0 0 0)
(0 0 0)
(0 0 0)
(0 0 0)
(0 0 0)
(0 0 0)
(0 0 0)
(0 0 -2.04484e-15)
(0 0 -2.72356e-14)
(0 0 2.56452e-14)
(0 0 2.71788e-14)
(0 0 8.52016e-16)
(0 0 1.84315e-14)
(0 0 -2.72356e-14)
(0 0 0)
(0 0 2.71788e-14)
(0 0 8.52016e-16)
(0 0 1.84315e-14)
(0 0 -2.72356e-14)
(0 0 0)
(0 0 2.71788e-14)
(0 0 8.52016e-16)
(0 0 1.84315e-14)
(0 0 -2.72356e-14)
(0 0 0)
(0 0 2.71788e-14)
(0 0 3.01046e-15)
(0 0 2.72356e-14)
(0 0 2.71788e-14)
(0 0 9.14497e-15)
(0 0 2.71788e-14)
(0 0 6.47532e-15)
(0 0 2.71788e-14)
(0 0 2.71788e-14)
(0 0 9.03137e-15)
(0 0 2.71788e-14)
(0 0 6.47532e-15)
(0 0 2.71788e-14)
(0 0 0)
(-3.6541e-17 0 0)
(-1.13977e-25 0 0)
(1.24557e-43 0 0)
(0 0 0)
(0 0 0)
(0 0 0)
(0 0 0)
(0 0 0)
(0 0 0)
(0 0 0)
(0 0 0)
(0 0 0)
(0 0 0)
(0 0 0)
(0 0 0)
(0 0 0)
(0 0 0)
(0 0 0)
(0 0 0)
(0 0 -1.59043e-15)
(0 0 6.13451e-15)
(0 0 6.81613e-15)
(0 0 0)
(0 0 2.04484e-15)
(0 0 -3.63527e-15)
(0 0 0)
(0 0 5.6801e-15)
(0 0 0)
(0 0 2.04484e-15)
(0 0 -3.63527e-15)
(0 0 0)
(0 0 5.6801e-15)
(0 0 0)
(0 0 2.04484e-15)
(0 0 -3.63527e-15)
(0 0 0)
(0 0 5.6801e-15)
(0 0 0)
(0 0 6.75932e-15)
(0 0 4.37368e-15)
(0 0 -9.98256e-15)
(0 0 2.32884e-15)
(0 0 0)
(0 0 6.75932e-15)
(0 0 4.37368e-15)
(0 0 -9.98256e-15)
(0 0 2.32884e-15)
(0 0 0)
(0 0 6.87293e-15)
(0 0 0)
(-7.69173e-17 0 -1.02666e-14)
(-1.14202e-22 0 0)
(1.85167e-42 0 0)
(0 0 0)
(0 0 -1.07922e-15)
(0 0 -2.04484e-15)
(0 0 0)
(0 0 -2.15844e-15)
(0 0 -1.42003e-15)
(0 0 0)
(0 0 0)
(0 0 0)
(0 0 0)
(0 0 0)
(0 0 0)
(0 0 0)
(0 0 0)
(0 0 0)
(0 0 0)
(0 0 -1.84883e-14)
(0 0 2.72356e-14)
(0 0 2.71788e-14)
(0 0 1.0281e-14)
(0 0 2.72356e-14)
(0 0 -2.07603e-14)
(0 0 0)
(0 0 2.72356e-14)
(0 0 1.01106e-14)
(0 0 2.72356e-14)
(0 0 -2.07603e-14)
(0 0 0)
(0 0 2.72356e-14)
(0 0 1.01106e-14)
(0 0 2.72356e-14)
(0 0 -2.07603e-14)
(0 0 0)
(0 0 2.72356e-14)
(0 0 1.01674e-14)
(0 0 2.72356e-14)
(0 0 2.71788e-14)
(0 0 0)
(0 0 2.5986e-14)
(0 0 0)
(0 0 2.71788e-14)
(0 0 2.71788e-14)
(0 0 0)
(0 0 2.5986e-14)
(0 0 0)
(0 0 2.71788e-14)
(0 0 0)
(-3.2669e-16 0 0)
(-2.49931e-20 0 0)
(0 0 0)
(0 0 0)
(0 0 -3.61534e-14)
(0 0 -4.05271e-14)
(0 0 -1.18146e-14)
(0 0 -4.06975e-14)
(0 0 -3.73462e-14)
(0 0 -1.13602e-16)
(0 0 0)
(0 0 0)
(0 0 0)
(0 0 0)
(0 0 1.48106e-14)
(0 0 2.04484e-15)
(0 0 0)
(0 0 0)
(0 0 0)
(0 0 9.13054e-15)
(0 0 2.08884e-14)
(0 0 8.00895e-15)
(0 0 2.04339e-14)
(0 0 2.43532e-14)
(0 0 1.2709e-14)
(0 0 1.31066e-14)
(0 0 5.73691e-15)
(0 0 1.98091e-14)
(0 0 2.42964e-14)
(0 0 1.2709e-14)
(0 0 1.31066e-14)
(0 0 5.73691e-15)
(0 0 1.98091e-14)
(0 0 2.42964e-14)
(0 0 1.2709e-14)
(0 0 1.31066e-14)
(0 0 5.73691e-15)
(0 0 2.00363e-14)
(0 0 2.5262e-14)
(0 0 0)
(0 0 -4.23871e-14)
(0 0 -2.44244e-15)
(0 0 -2.72356e-14)
(0 0 0)
(0 0 0)
(0 0 -3.80702e-14)
(0 0 -1.30642e-15)
(0 0 -2.69516e-14)
(0 0 0)
(0 0 0)
(-8.36567e-16 0 2.21804e-14)
(-1.5796e-18 0 0)
(0 0 0)
(0 0 2.72356e-14)
(0 0 0)
(0 0 -2.15844e-15)
(0 0 0)
(0 0 -2.27204e-15)
(0 0 -1.87443e-15)
(0 0 0)
(0 0 2.26348e-14)
(0 0 1.47683e-15)
(0 0 2.14419e-14)
(0 0 -6.8585e-15)
(0 0 2.13428e-14)
(0 0 2.72356e-14)
(0 0 2.66965e-15)
(0 0 2.12148e-14)
(0 0 -9.30094e-15)
(0 0 0)
(0 0 0)
(0 0 0)
(0 0 0)
(0 0 0)
(0 0 0)
(0 0 0)
(0 0 0)
(0 0 0)
(0 0 0)
(0 0 0)
(0 0 0)
(0 0 0)
(0 0 0)
(0 0 0)
(0 0 0)
(0 0 0)
(0 0 0)
(0 0 0)
(0 0 0)
(0 0 0)
(0 0 1.86587e-14)
(0 0 0)
(0 0 -4.43048e-15)
(0 0 0)
(0 0 0)
(0 0 1.88859e-14)
(0 0 0)
(0 0 -4.37368e-15)
(0 0 0)
(0 0 0)
(-1.6917e-15 0 -2.03627e-14)
(-3.59767e-17 0 0)
(0 0 0)
(0 0 2.72356e-14)
(0 0 0)
(0 0 0)
(0 0 0)
(0 0 0)
(0 0 0)
(0 0 0)
(0 0 -2.72356e-14)
(0 0 -9.82658e-15)
(0 0 -2.72356e-14)
(0 0 -2.00931e-14)
(0 0 6.8585e-15)
(0 0 -2.72356e-14)
(0 0 -9.20181e-15)
(0 0 -2.72356e-14)
(0 0 -2.32172e-14)
(0 0 0)
(0 0 0)
(0 0 0)
(0 0 0)
(0 0 0)
(0 0 0)
(0 0 0)
(0 0 0)
(0 0 0)
(0 0 0)
(0 0 0)
(0 0 0)
(0 0 0)
(0 0 0)
(0 0 0)
(0 0 0)
(0 0 0)
(0 0 0)
(0 0 0)
(0 0 0)
(0 0 0)
(0 0 0)
(0 0 0)
(0 0 -2.08739e-14)
(0 0 0)
(0 0 0)
(0 0 0)
(0 0 0)
(0 0 -2.08739e-14)
(0 0 0)
(0 0 0)
(-3.25164e-15 0 0)
(-3.47085e-16 0 0)
(0 0 0)
(0 0 5.1689e-15)
(0 0 0)
(0 0 0)
(0 0 0)
(0 0 0)
(0 0 0)
(0 0 -2.55605e-15)
(0 0 -4.40488e-14)
(0 0 -2.0278e-14)
(0 0 -5.20009e-14)
(0 0 -1.44843e-14)
(0 0 -1.70446e-16)
(0 0 -4.09816e-14)
(0 0 -1.89149e-14)
(0 0 -5.26828e-14)
(0 0 -1.6586e-14)
(0 0 0)
(0 0 0)
(0 0 0)
(0 0 0)
(0 0 0)
(0 0 0)
(0 0 0)
(0 0 0)
(0 0 0)
(0 0 0)
(0 0 0)
(0 0 0)
(0 0 0)
(0 0 0)
(0 0 0)
(0 0 0)
(0 0 0)
(0 0 0)
(0 0 0)
(0 0 0)
(0 0 0)
(0 0 0)
(0 0 0)
(0 0 2.36004e-14)
(0 0 0)
(0 0 0)
(0 0 0)
(0 0 0)
(0 0 2.36004e-14)
(0 0 0)
(0 0 0)
(-9.18451e-15 0 0)
(-1.5496e-15 0 0)
(0 0 0)
(0 0 2.72356e-14)
(0 0 0)
(0 0 0)
(0 0 0)
(0 0 0)
(0 0 0)
(0 0 0)
(0 0 -9.20177e-15)
(0 0 -3.74887e-15)
(0 0 -1.72675e-14)
(0 0 -1.99795e-14)
(0 0 8.50573e-15)
(0 0 -4.60093e-15)
(0 0 -1.30651e-15)
(0 0 -1.79492e-14)
(0 0 -2.45237e-14)
(0 0 0)
(0 0 0)
(0 0 0)
(0 0 0)
(0 0 0)
(0 0 0)
(0 0 0)
(0 0 0)
(0 0 0)
(0 0 0)
(0 0 0)
(0 0 0)
(0 0 0)
(0 0 0)
(0 0 0)
(0 0 0)
(0 0 0)
(0 0 0)
(0 0 0)
(0 0 0)
(0 0 0)
(0 0 2.7122e-14)
(0 0 0)
(0 0 0)
(0 0 0)
(0 0 0)
(0 0 2.7122e-14)
(0 0 0)
(0 0 0)
(0 0 0)
(0 0 0)
(-1.31843e-14 0 -2.09311e-14)
(-3.34115e-15 0 0)
(0 0 0)
(0 0 2.72356e-14)
(0 0 0)
(0 0 0)
(0 0 0)
(0 0 0)
(0 0 0)
(0 0 0)
(0 0 -2.28052e-14)
(0 0 -4.31688e-15)
(0 0 -2.72356e-14)
(0 0 -2.04339e-14)
(0 0 8.56253e-15)
(0 0 -1.84315e-14)
(0 0 -2.32884e-15)
(0 0 -2.72356e-14)
(0 0 -2.47508e-14)
(0 0 0)
(0 0 0)
(0 0 0)
(0 0 0)
(0 0 0)
(0 0 0)
(0 0 0)
(0 0 0)
(0 0 0)
(0 0 0)
(0 0 0)
(0 0 0)
(0 0 0)
(0 0 0)
(0 0 0)
(0 0 0)
(0 0 0)
(0 0 0)
(0 0 0)
(0 0 0)
(0 0 0)
(0 0 6.47532e-15)
(0 0 0)
(0 0 -3.01325e-14)
(0 0 0)
(0 0 0)
(0 0 6.47532e-15)
(0 0 0)
(0 0 -3.01325e-14)
(0 0 0)
(0 0 0)
(-1.40965e-14 0 2.06469e-14)
(-3.98757e-15 0 0)
(0 0 0)
(0 0 2.72356e-14)
(0 0 0)
(0 0 0)
(0 0 0)
(0 0 0)
(0 0 0)
(0 0 0)
(0 0 2.42252e-14)
(0 0 2.61285e-15)
(0 0 2.11011e-14)
(0 0 -8.61933e-15)
(0 0 1.92979e-14)
(0 0 2.72356e-14)
(0 0 3.69207e-15)
(0 0 2.07603e-14)
(0 0 -1.30498e-14)
(0 0 0)
(0 0 0)
(0 0 0)
(0 0 0)
(0 0 0)
(0 0 0)
(0 0 0)
(0 0 0)
(0 0 0)
(0 0 0)
(0 0 0)
(0 0 0)
(0 0 0)
(0 0 0)
(0 0 0)
(0 0 0)
(0 0 0)
(0 0 0)
(0 0 0)
(0 0 0)
(0 0 0)
(0 0 2.71788e-14)
(0 0 0)
(0 0 0)
(0 0 0)
(0 0 0)
(0 0 2.71788e-14)
(0 0 0)
(0 0 0)
(0 0 0)
(0 0 0)
(-1.12892e-15 0 0)
(-6.12693e-17 0 0)
(0 0 0)
(0 0 2.72356e-14)
(0 0 0)
(0 0 0)
(0 0 0)
(0 0 0)
(0 0 0)
(0 0 0)
(0 0 0)
(0 0 0)
(0 0 0)
(0 0 -9.64175e-15)
(0 0 1.11754e-14)
(0 0 0)
(0 0 0)
(0 0 0)
(0 0 -1.41858e-14)
(0 0 0)
(0 0 0)
(0 0 0)
(0 0 0)
(0 0 0)
(0 0 0)
(0 0 0)
(0 0 0)
(0 0 0)
(0 0 0)
(0 0 0)
(0 0 0)
(0 0 0)
(0 0 0)
(0 0 0)
(0 0 0)
(0 0 0)
(0 0 0)
(0 0 0)
(0 0 0)
(0 0 0)
(0 0 2.71788e-14)
(0 0 0)
(0 0 0)
(0 0 0)
(0 0 0)
(0 0 2.71788e-14)
(0 0 0)
(0 0 0)
(0 0 0)
(0 0 0)
(-3.2307e-15 0 0)
(-3.54705e-16 0 0)
(0 0 0)
(0 0 5.1689e-15)
(0 0 0)
(0 0 0)
(0 0 0)
(0 0 0)
(0 0 0)
(0 0 0)
(0 0 -3.26317e-14)
(0 0 -9.54258e-15)
(0 0 -3.7403e-14)
(0 0 -6.92973e-15)
(0 0 0)
(0 0 -3.21773e-14)
(0 0 -9.99698e-15)
(0 0 -3.90503e-14)
(0 0 -9.71298e-15)
(0 0 0)
(0 0 0)
(0 0 0)
(0 0 0)
(0 0 0)
(0 0 0)
(0 0 0)
(0 0 0)
(0 0 0)
(0 0 0)
(0 0 0)
(0 0 0)
(0 0 0)
(0 0 0)
(0 0 0)
(0 0 0)
(0 0 0)
(0 0 0)
(0 0 0)
(0 0 0)
(0 0 0)
(0 0 5.1689e-15)
(0 0 0)
(0 0 2.72356e-14)
(0 0 0)
(0 0 0)
(0 0 5.1689e-15)
(0 0 0)
(0 0 2.72356e-14)
(0 0 0)
(0 0 0)
(-9.23804e-15 0 0)
(-1.55083e-15 0 0)
(0 0 0)
(0 0 2.72356e-14)
(0 0 0)
(0 0 0)
(0 0 0)
(0 0 0)
(0 0 0)
(0 0 0)
(0 0 -5.05529e-15)
(0 0 0)
(0 0 -1.19282e-14)
(0 0 -1.70259e-14)
(0 0 8.50573e-15)
(0 0 -2.04484e-15)
(0 0 0)
(0 0 -1.35186e-14)
(0 0 -2.17404e-14)
(0 0 0)
(0 0 0)
(0 0 0)
(0 0 0)
(0 0 0)
(0 0 0)
(0 0 0)
(0 0 0)
(0 0 0)
(0 0 0)
(0 0 0)
(0 0 0)
(0 0 0)
(0 0 0)
(0 0 0)
(0 0 0)
(0 0 0)
(0 0 0)
(0 0 0)
(0 0 0)
(0 0 0)
(0 0 2.71788e-14)
(0 0 0)
(0 0 0)
(0 0 0)
(0 0 0)
(0 0 2.71788e-14)
(0 0 0)
(0 0 0)
(0 0 0)
(0 0 0)
(-1.31895e-14 0 -2.09311e-14)
(-3.34116e-15 0 0)
(0 0 0)
(0 0 2.72356e-14)
(0 0 0)
(0 0 0)
(0 0 0)
(0 0 0)
(0 0 0)
(0 0 0)
(0 0 -2.14419e-14)
(0 0 -3.01046e-15)
(0 0 -2.72356e-14)
(0 0 -2.02067e-14)
(0 0 8.56253e-15)
(0 0 -1.84315e-14)
(0 0 -2.04484e-15)
(0 0 -2.72356e-14)
(0 0 -2.45804e-14)
(0 0 0)
(0 0 0)
(0 0 0)
(0 0 0)
(0 0 0)
(0 0 0)
(0 0 0)
(0 0 0)
(0 0 0)
(0 0 0)
(0 0 0)
(0 0 0)
(0 0 0)
(0 0 0)
(0 0 0)
(0 0 0)
(0 0 0)
(0 0 0)
(0 0 0)
(0 0 0)
(0 0 0)
(0 0 6.47532e-15)
(0 0 0)
(0 0 -3.04165e-14)
(0 0 0)
(0 0 0)
(0 0 6.47532e-15)
(0 0 0)
(0 0 -3.04165e-14)
(0 0 0)
(0 0 0)
(-1.40969e-14 0 2.06469e-14)
(-3.98784e-15 0 0)
(0 0 0)
(0 0 2.72356e-14)
(0 0 0)
(0 0 0)
(0 0 0)
(0 0 0)
(0 0 0)
(0 0 0)
(0 0 2.4282e-14)
(0 0 2.66965e-15)
(0 0 2.11011e-14)
(0 0 -8.61933e-15)
(0 0 1.92979e-14)
(0 0 2.72356e-14)
(0 0 3.69207e-15)
(0 0 2.07603e-14)
(0 0 -1.30498e-14)
(0 0 0)
(0 0 0)
(0 0 0)
(0 0 0)
(0 0 0)
(0 0 0)
(0 0 0)
(0 0 0)
(0 0 0)
(0 0 0)
(0 0 0)
(0 0 0)
(0 0 0)
(0 0 0)
(0 0 0)
(0 0 0)
(0 0 0)
(0 0 0)
(0 0 0)
(0 0 0)
(0 0 0)
(0 0 2.71788e-14)
(0 0 0)
(0 0 0)
(0 0 0)
(0 0 0)
(0 0 2.71788e-14)
(0 0 0)
(0 0 0)
(0 0 0)
(0 0 0)
(-1.13003e-15 0 0)
(-6.21087e-17 0 0)
(0 0 0)
(0 0 2.72356e-14)
(0 0 0)
(0 0 0)
(0 0 0)
(0 0 0)
(0 0 0)
(0 0 0)
(0 0 0)
(0 0 0)
(0 0 0)
(0 0 -9.64175e-15)
(0 0 1.11754e-14)
(0 0 0)
(0 0 0)
(0 0 0)
(0 0 -1.41858e-14)
(0 0 0)
(0 0 0)
(0 0 0)
(0 0 0)
(0 0 0)
(0 0 0)
(0 0 0)
(0 0 0)
(0 0 0)
(0 0 0)
(0 0 0)
(0 0 0)
(0 0 0)
(0 0 0)
(0 0 0)
(0 0 0)
(0 0 0)
(0 0 0)
(0 0 0)
(0 0 0)
(0 0 0)
(0 0 2.71788e-14)
(0 0 0)
(0 0 0)
(0 0 0)
(0 0 0)
(0 0 2.71788e-14)
(0 0 0)
(0 0 0)
(0 0 0)
(0 0 0)
(-3.22075e-15 0 0)
(-3.59197e-16 0 0)
(0 0 0)
(0 0 5.1689e-15)
(0 0 0)
(0 0 0)
(0 0 0)
(0 0 0)
(0 0 0)
(0 0 0)
(0 0 -3.26317e-14)
(0 0 -9.54258e-15)
(0 0 -3.7403e-14)
(0 0 -6.92973e-15)
(0 0 0)
(0 0 -3.21773e-14)
(0 0 -9.99698e-15)
(0 0 -3.90503e-14)
(0 0 -9.71298e-15)
(0 0 0)
(0 0 0)
(0 0 0)
(0 0 0)
(0 0 0)
(0 0 0)
(0 0 0)
(0 0 0)
(0 0 0)
(0 0 0)
(0 0 0)
(0 0 0)
(0 0 0)
(0 0 0)
(0 0 0)
(0 0 0)
(0 0 0)
(0 0 0)
(0 0 0)
(0 0 0)
(0 0 0)
(0 0 5.1689e-15)
(0 0 0)
(0 0 2.72356e-14)
(0 0 0)
(0 0 0)
(0 0 5.1689e-15)
(0 0 0)
(0 0 2.72356e-14)
(0 0 0)
(0 0 0)
(-9.14081e-15 0 0)
(-1.55462e-15 0 0)
(0 0 0)
(0 0 2.72356e-14)
(0 0 0)
(0 0 0)
(0 0 0)
(0 0 0)
(0 0 0)
(0 0 0)
(0 0 -5.05529e-15)
(0 0 0)
(0 0 -1.19282e-14)
(0 0 -1.70259e-14)
(0 0 8.50573e-15)
(0 0 -2.04484e-15)
(0 0 0)
(0 0 -1.35186e-14)
(0 0 -2.17404e-14)
(0 0 0)
(0 0 0)
(0 0 0)
(0 0 0)
(0 0 0)
(0 0 0)
(0 0 0)
(0 0 0)
(0 0 0)
(0 0 0)
(0 0 0)
(0 0 0)
(0 0 0)
(0 0 0)
(0 0 0)
(0 0 0)
(0 0 0)
(0 0 0)
(0 0 0)
(0 0 0)
(0 0 0)
(0 0 2.71788e-14)
(0 0 0)
(0 0 0)
(0 0 0)
(0 0 0)
(0 0 2.71788e-14)
(0 0 0)
(0 0 0)
(0 0 0)
(0 0 0)
(-1.29718e-14 0 -2.08743e-14)
(-3.29242e-15 0 0)
(0 0 0)
(0 0 2.72356e-14)
(0 0 0)
(0 0 0)
(0 0 0)
(0 0 0)
(0 0 0)
(0 0 0)
(0 0 -2.14419e-14)
(0 0 -3.01046e-15)
(0 0 -2.72356e-14)
(0 0 -2.02067e-14)
(0 0 8.56253e-15)
(0 0 -1.84315e-14)
(0 0 -2.04484e-15)
(0 0 -2.72356e-14)
(0 0 -2.45804e-14)
(0 0 0)
(0 0 0)
(0 0 0)
(0 0 0)
(0 0 0)
(0 0 0)
(0 0 0)
(0 0 0)
(0 0 0)
(0 0 0)
(0 0 0)
(0 0 0)
(0 0 0)
(0 0 0)
(0 0 0)
(0 0 0)
(0 0 0)
(0 0 0)
(0 0 0)
(0 0 0)
(0 0 0)
(0 0 6.47532e-15)
(0 0 0)
(0 0 -3.04165e-14)
(0 0 0)
(0 0 0)
(0 0 6.47532e-15)
(0 0 0)
(0 0 -3.04165e-14)
(0 0 0)
(0 0 0)
(-1.36424e-14 0 2.06469e-14)
(-3.85519e-15 0 0)
(0 0 0)
(0 0 2.72356e-14)
(0 0 0)
(0 0 0)
(0 0 0)
(0 0 0)
(0 0 0)
(0 0 0)
(0 0 2.4282e-14)
(0 0 2.66965e-15)
(0 0 2.11011e-14)
(0 0 -8.61933e-15)
(0 0 1.92979e-14)
(0 0 2.72356e-14)
(0 0 3.69207e-15)
(0 0 2.07603e-14)
(0 0 -1.30498e-14)
(0 0 0)
(0 0 0)
(0 0 0)
(0 0 0)
(0 0 0)
(0 0 0)
(0 0 0)
(0 0 0)
(0 0 0)
(0 0 0)
(0 0 0)
(0 0 0)
(0 0 0)
(0 0 0)
(0 0 0)
(0 0 0)
(0 0 0)
(0 0 0)
(0 0 0)
(0 0 0)
(0 0 0)
(0 0 2.71788e-14)
(0 0 0)
(0 0 0)
(0 0 0)
(0 0 0)
(0 0 2.71788e-14)
(0 0 0)
(0 0 0)
(0 0 0)
(0 0 0)
(-8.79592e-17 0 0)
(0 0 0)
(0 0 0)
(0 0 2.72356e-14)
(0 0 0)
(0 0 0)
(0 0 0)
(0 0 0)
(0 0 0)
(0 0 0)
(0 0 0)
(0 0 0)
(0 0 0)
(0 0 -9.58495e-15)
(0 0 1.11754e-14)
(0 0 0)
(0 0 0)
(0 0 0)
(0 0 -1.41858e-14)
(0 0 0)
(0 0 0)
(0 0 0)
(0 0 0)
(0 0 0)
(0 0 0)
(0 0 0)
(0 0 0)
(0 0 0)
(0 0 0)
(0 0 0)
(0 0 0)
(0 0 0)
(0 0 0)
(0 0 0)
(0 0 0)
(0 0 0)
(0 0 0)
(0 0 0)
(0 0 0)
(0 0 0)
(0 0 2.71788e-14)
(0 0 0)
(0 0 0)
(0 0 0)
(0 0 0)
(0 0 2.71788e-14)
(0 0 0)
(0 0 0)
(0 0 0)
(0 0 0)
(-3.43585e-17 0 0)
(0 0 0)
(0 0 0)
(0 0 5.1689e-15)
(0 0 0)
(0 0 0)
(0 0 0)
(0 0 0)
(0 0 0)
(0 0 0)
(0 0 -3.26885e-14)
(0 0 -9.54258e-15)
(0 0 -3.71758e-14)
(0 0 -6.75932e-15)
(0 0 0)
(0 0 -3.24613e-14)
(0 0 -1.00538e-14)
(0 0 -3.89935e-14)
(0 0 -9.59938e-15)
(0 0 0)
(0 0 0)
(0 0 0)
(0 0 0)
(0 0 0)
(0 0 0)
(0 0 0)
(0 0 0)
(0 0 0)
(0 0 0)
(0 0 0)
(0 0 0)
(0 0 0)
(0 0 0)
(0 0 0)
(0 0 0)
(0 0 0)
(0 0 0)
(0 0 0)
(0 0 0)
(0 0 0)
(0 0 5.05529e-15)
(0 0 0)
(0 0 2.72356e-14)
(0 0 0)
(0 0 0)
(0 0 5.05529e-15)
(0 0 0)
(0 0 2.72356e-14)
(0 0 0)
(0 0 0)
(-8.11644e-18 0 0)
(0 0 0)
(0 0 0)
(0 0 2.72356e-14)
(0 0 0)
(0 0 0)
(0 0 0)
(0 0 0)
(0 0 0)
(0 0 0)
(0 0 -5.2825e-15)
(0 0 0)
(0 0 -1.13602e-14)
(0 0 -1.74803e-14)
(0 0 8.50573e-15)
(0 0 -3.06726e-15)
(0 0 0)
(0 0 -1.35186e-14)
(0 0 -2.21948e-14)
(0 0 0)
(0 0 0)
(0 0 0)
(0 0 0)
(0 0 0)
(0 0 0)
(0 0 0)
(0 0 0)
(0 0 0)
(0 0 0)
(0 0 0)
(0 0 0)
(0 0 0)
(0 0 0)
(0 0 0)
(0 0 0)
(0 0 0)
(0 0 0)
(0 0 0)
(0 0 0)
(0 0 0)
(0 0 2.67812e-14)
(0 0 0)
(0 0 0)
(0 0 0)
(0 0 0)
(0 0 2.67812e-14)
(0 0 0)
(0 0 0)
(0 0 0)
(0 0 0)
(-3.17934e-18 0 -2.55316e-14)
(0 0 0)
(0 0 0)
(0 0 2.72356e-14)
(0 0 0)
(0 0 0)
(0 0 0)
(0 0 0)
(0 0 0)
(0 0 0)
(0 0 -2.72356e-14)
(0 0 -8.40655e-15)
(0 0 -2.97349e-14)
(0 0 -2.23084e-14)
(0 0 7.82412e-15)
(0 0 -2.72356e-14)
(0 0 -9.82658e-15)
(0 0 -3.17229e-14)
(0 0 -2.63413e-14)
(0 0 0)
(0 0 0)
(0 0 0)
(0 0 0)
(0 0 0)
(0 0 0)
(0 0 0)
(0 0 0)
(0 0 0)
(0 0 0)
(0 0 0)
(0 0 0)
(0 0 0)
(0 0 0)
(0 0 0)
(0 0 0)
(0 0 0)
(0 0 0)
(0 0 0)
(0 0 0)
(0 0 0)
(0 0 0)
(0 0 0)
(0 0 -2.34868e-14)
(0 0 0)
(0 0 0)
(0 0 0)
(0 0 0)
(0 0 -2.34868e-14)
(0 0 0)
(0 0 0)
(-1.53357e-20 0 0)
(0 0 0)
(0 0 0)
(0 0 0)
(0 0 0)
(0 0 0)
(0 0 0)
(0 0 0)
(0 0 0)
(0 0 0)
(0 0 -3.78006e-14)
(0 0 -1.04514e-14)
(0 0 -3.68918e-14)
(0 0 -2.27204e-16)
(0 0 -1.13034e-14)
(0 0 -4.89904e-14)
(0 0 -1.41435e-14)
(0 0 -3.87095e-14)
(0 0 -9.65618e-16)
(0 0 0)
(0 0 0)
(0 0 0)
(0 0 0)
(0 0 0)
(0 0 -2.32884e-15)
(0 0 -2.38564e-15)
(0 0 0)
(0 0 0)
(0 0 0)
(0 0 -2.44244e-15)
(0 0 -2.44244e-15)
(0 0 0)
(0 0 0)
(0 0 0)
(0 0 -2.38564e-15)
(0 0 -2.27204e-15)
(0 0 0)
(0 0 0)
(0 0 0)
(0 0 0)
(0 0 0)
(0 0 0)
(0 0 2.07603e-14)
(0 0 0)
(0 0 0)
(0 0 0)
(0 0 0)
(0 0 2.07603e-14)
(0 0 0)
(0 0 0)
(-1.47161e-20 0 0)
(0 0 0)
(0 0 0)
(0 0 0)
(0 0 -2.03059e-14)
(0 0 2.57588e-14)
(0 0 1.51515e-14)
(0 0 7.95215e-16)
(0 0 2.72356e-14)
(0 0 1.51515e-14)
(0 0 -4.31688e-15)
(0 0 9.01694e-15)
(0 0 0)
(0 0 2.72212e-14)
(0 0 -3.70622e-14)
(0 0 -2.12436e-14)
(0 0 9.98256e-15)
(0 0 0)
(0 0 2.72212e-14)
(0 0 -1.95675e-14)
(0 0 0)
(0 0 0)
(0 0 -2.81445e-14)
(0 0 -1.06218e-14)
(0 0 -4.07543e-14)
(0 0 -4.09815e-14)
(0 0 -1.00538e-14)
(0 0 -3.09277e-14)
(0 0 -1.15874e-14)
(0 0 -4.11519e-14)
(0 0 -4.10951e-14)
(0 0 -1.01106e-14)
(0 0 -3.09277e-14)
(0 0 -1.15306e-14)
(0 0 -4.10383e-14)
(0 0 -4.05839e-14)
(0 0 -8.97457e-15)
(0 0 -2.77469e-14)
(0 0 0)
(0 0 0)
(0 0 0)
(0 0 0)
(0 0 3.40806e-15)
(0 0 0)
(0 0 0)
(0 0 0)
(0 0 0)
(0 0 3.29446e-15)
(0 0 0)
(0 0 0)
(-1.76615e-20 0 0)
(0 0 0)
(0 0 0)
(0 0 0)
(0 0 0)
(0 0 0)
(0 0 0)
(0 0 0)
(0 0 0)
(0 0 0)
(0 0 -3.00189e-14)
(0 0 -3.46486e-15)
(0 0 -2.67244e-14)
(0 0 0)
(0 0 -1.15307e-14)
(0 0 -4.2856e-14)
(0 0 -8.34988e-15)
(0 0 -2.85422e-14)
(0 0 0)
(0 0 0)
(0 0 0)
(0 0 0)
(0 0 0)
(0 0 0)
(0 0 -2.55605e-15)
(0 0 -3.29446e-15)
(0 0 -2.27204e-15)
(0 0 0)
(0 0 0)
(0 0 -2.66965e-15)
(0 0 -3.35126e-15)
(0 0 -2.32884e-15)
(0 0 0)
(0 0 0)
(0 0 -2.55605e-15)
(0 0 -3.06726e-15)
(0 0 -1.87443e-15)
(0 0 0)
(0 0 0)
(0 0 0)
(0 0 0)
(0 0 0)
(0 0 2.67244e-14)
(0 0 0)
(0 0 -1.53363e-15)
(0 0 0)
(0 0 0)
(0 0 2.63268e-14)
(0 0 0)
(0 0 0)
(-1.29546e-20 0 0)
(0 0 0)
(0 0 0)
(0 0 0)
(0 0 0)
(0 0 0)
(0 0 0)
(0 0 -2.5702e-14)
(0 0 0)
(0 0 0)
(0 0 -1.03378e-14)
(0 0 0)
(0 0 -1.47683e-15)
(0 0 2.71788e-14)
(0 0 0)
(0 0 -1.99372e-14)
(0 0 -5.85089e-15)
(0 0 -3.80588e-15)
(0 0 2.6554e-14)
(0 0 4.26008e-15)
(0 0 2.08739e-14)
(0 0 -2.343e-14)
(0 0 0)
(0 0 2.71788e-14)
(0 0 0)
(0 0 0)
(0 0 -2.96213e-14)
(0 0 0)
(0 0 2.71788e-14)
(0 0 0)
(0 0 0)
(0 0 -2.96213e-14)
(0 0 0)
(0 0 2.71788e-14)
(0 0 0)
(0 0 0)
(0 0 -2.92237e-14)
(0 0 0)
(0 0 2.36004e-14)
(0 0 -2.07603e-14)
(0 0 -3.29446e-15)
(0 0 -2.63268e-14)
(0 0 0)
(0 0 -3.5131e-14)
(0 0 -3.85959e-14)
(0 0 -8.06575e-15)
(0 0 -2.75197e-14)
(0 0 0)
(0 0 -3.3995e-14)
(0 0 0)
(-6.2333e-21 0 0)
(0 0 0)
(0 0 0)
(0 0 0)
(0 0 0)
(0 0 0)
(0 0 0)
(0 0 0)
(0 0 0)
(0 0 -3.57847e-15)
(0 0 -4.52984e-14)
(0 0 -1.70403e-14)
(0 0 -4.01863e-14)
(0 0 0)
(0 0 -8.40749e-15)
(0 0 -5.5127e-14)
(0 0 -2.32326e-14)
(0 0 -4.29699e-14)
(0 0 0)
(0 0 0)
(0 0 0)
(0 0 0)
(0 0 0)
(0 0 0)
(0 0 0)
(0 0 0)
(0 0 0)
(0 0 0)
(0 0 0)
(0 0 0)
(0 0 0)
(0 0 0)
(0 0 0)
(0 0 0)
(0 0 0)
(0 0 0)
(0 0 0)
(0 0 0)
(0 0 0)
(0 0 0)
(0 0 0)
(0 0 0)
(0 0 2.72356e-14)
(0 0 0)
(0 0 -1.53363e-15)
(0 0 0)
(0 0 0)
(0 0 2.72356e-14)
(0 0 0)
(0 0 0)
(-1.71701e-21 0 0)
(0 0 0)
(0 0 0)
(0 0 0)
(0 0 0)
(0 0 0)
(0 0 0)
(0 0 0)
(0 0 0)
(0 0 0)
(0 0 -4.14359e-14)
(0 0 -1.36323e-14)
(0 0 -3.89367e-14)
(0 0 0)
(0 0 -1.95984e-14)
(0 0 -5.97314e-14)
(0 0 -2.01093e-14)
(0 0 -4.12661e-14)
(0 0 0)
(0 0 0)
(0 0 0)
(0 0 0)
(0 0 0)
(0 0 0)
(0 0 -2.32884e-15)
(0 0 -2.38564e-15)
(0 0 0)
(0 0 0)
(0 0 0)
(0 0 -2.44244e-15)
(0 0 -2.44244e-15)
(0 0 0)
(0 0 0)
(0 0 0)
(0 0 -2.38564e-15)
(0 0 -2.27204e-15)
(0 0 0)
(0 0 0)
(0 0 0)
(0 0 0)
(0 0 0)
(0 0 0)
(0 0 2.72356e-14)
(0 0 0)
(0 0 0)
(0 0 0)
(0 0 0)
(0 0 2.72356e-14)
(0 0 0)
(0 0 0)
(-1.95588e-22 0 0)
(0 0 0)
(0 0 0)
(0 0 0)
(0 0 -2.03059e-14)
(0 0 2.57588e-14)
(0 0 1.51515e-14)
(0 0 7.95215e-16)
(0 0 2.72356e-14)
(0 0 1.51515e-14)
(0 0 -4.77129e-15)
(0 0 8.96014e-15)
(0 0 0)
(0 0 2.72212e-14)
(0 0 -3.93923e-14)
(0 0 -2.48808e-14)
(0 0 9.98256e-15)
(0 0 0)
(0 0 2.72212e-14)
(0 0 -1.95675e-14)
(0 0 0)
(0 0 0)
(0 0 -2.81445e-14)
(0 0 -1.06218e-14)
(0 0 -4.07543e-14)
(0 0 -4.09815e-14)
(0 0 -1.00538e-14)
(0 0 -3.09277e-14)
(0 0 -1.15874e-14)
(0 0 -4.11519e-14)
(0 0 -4.10951e-14)
(0 0 -1.01106e-14)
(0 0 -3.09277e-14)
(0 0 -1.15306e-14)
(0 0 -4.10383e-14)
(0 0 -4.05839e-14)
(0 0 -8.97457e-15)
(0 0 -2.77469e-14)
(0 0 0)
(0 0 0)
(0 0 0)
(0 0 0)
(0 0 5.11209e-15)
(0 0 0)
(0 0 0)
(0 0 0)
(0 0 0)
(0 0 5.05529e-15)
(0 0 0)
(0 0 0)
(-2.10597e-35 0 0)
(0 0 0)