/*--------------------------------*- C++ -*----------------------------------*\
  =========                 |
  \\      /  F ield         | OpenFOAM: The Open Source CFD Toolbox
   \\    /   O peration     | Website:  https://openfoam.org
    \\  /    A nd           | Version:  9
     \\/     M anipulation  |
\*---------------------------------------------------------------------------*/
FoamFile
{
    format      ascii;
    class       volVectorField;
    location    "0.008";
    object      U;
}
// * * * * * * * * * * * * * * * * * * * * * * * * * * * * * * * * * * * * * //

dimensions      [0 1 -1 0 0 0 0];

internalField   nonuniform List<vector> 
62500
(
(0 0 0)
(-1.88087e-17 0 0)
(-2.11784e-18 0 0)
(6.98407e-41 0 0)
(-3.44608e-59 0 0)
(5.45979e-63 0 0)
(1.35003e-75 0 0)
(-2.45545e-91 0 0)
(0 0 0)
(0 0 0)
(0 0 0)
(0 0 0)
(0 0 0)
(0 0 0)
(0 0 0)
(0 0 0)
(0 0 0)
(0 0 0)
(0 0 0)
(0 0 0)
(0 0 0)
(0 0 0)
(0 0 0)
(0 0 0)
(0 0 0)
(0 0 0)
(0 0 0)
(0 0 0)
(0 0 0)
(0 0 0)
(0 0 0)
(0 0 0)
(0 0 0)
(0 0 0)
(0 0 0)
(0 0 0)
(0 0 0)
(0 0 0)
(0 0 0)
(0 0 0)
(0 0 0)
(0 0 0)
(0 0 0)
(0 0 0)
(0 0 0)
(0 0 0)
(0 0 0)
(0 0 0)
(0 0 0)
(0 0 0)
(0 0 0)
(-1.70217e-17 0 0)
(-1.76303e-18 0 0)
(-9.01928e-49 2.39617e-47 0)
(-9.67275e-61 2.27979e-48 0)
(1.10312e-61 1.10936e-31 0)
(1.56127e-74 -3.14877e-16 0)
(-7.49981e-90 0 0)
(0 7.5691e-32 0)
(0 -3.25153e-16 0)
(0 0 0)
(0 0 6.94345e-15)
(0 0 0)
(0 0 6.94345e-15)
(0 -1.12677e-19 0)
(0 0 0)
(0 0 6.94345e-15)
(0 0 0)
(0 0 8.38087e-15)
(0 -1.31034e-18 0)
(0 0 -1.81064e-14)
(0 -2.76741e-29 1.68545e-14)
(0 1.65519e-32 0)
(0 1.30882e-31 0)
(0 -1.89954e-29 1.85703e-14)
(0 0 -1.6669e-14)
(0 0 0)
(0 -4.09291e-33 0)
(0 -8.61819e-41 0)
(0 -1.91643e-29 1.85703e-14)
(0 0 -1.6669e-14)
(0 0 0)
(0 1.13946e-32 0)
(0 -2.33619e-45 0)
(0 -1.89932e-29 1.85703e-14)
(0 0 -1.6669e-14)
(0 0 0)
(0 1.76745e-32 0)
(0 -1.59103e-36 0)
(0 -2.21513e-14 2.17235e-14)
(0 -1.01926e-34 0)
(0 4.96021e-47 0)
(0 -1.52342e-34 0)
(0 -7.12234e-24 0)
(0 -1.61671e-34 0)
(0 -1.84524e-34 0)
(0 -2.22077e-43 0)
(0 -1.52343e-34 0)
(0 -7.12234e-24 0)
(0 -1.61693e-34 0)
(0 0 0)
(-1.07276e-17 0 0)
(-9.21005e-19 0 0)
(4.9676e-48 -5.22519e-56 0)
(-8.07087e-60 3.44122e-49 0)
(-8.0938e-61 1.43676e-51 0)
(2.40151e-73 -1.55264e-16 0)
(-3.20755e-89 0 0)
(0 0 0)
(0 -1.65978e-16 0)
(0 0 0)
(0 0 0)
(0 0 0)
(0 0 0)
(0 0 0)
(0 0 0)
(0 0 0)
(0 0 0)
(0 0 0)
(0 0 0)
(0 0 0)
(0 -7.80754e-34 0)
(0 -2.36459e-33 0)
(0 -9.12724e-37 0)
(0 -6.92456e-34 0)
(0 0 0)
(0 0 0)
(0 0 0)
(0 0 0)
(0 -6.92456e-34 0)
(0 0 0)
(0 0 0)
(0 0 0)
(0 0 0)
(0 -6.92456e-34 0)
(0 0 0)
(0 0 0)
(0 0 0)
(0 0 0)
(0 -2.20853e-14 0)
(0 0 0)
(0 0 0)
(0 0 0)
(0 0 0)
(0 0 0)
(0 0 0)
(0 0 0)
(0 0 0)
(0 0 0)
(0 0 0)
(0 0 0)
(-5.43057e-18 0 0)
(-3.189e-19 0 0)
(-1.59032e-47 1.00113e-56 0)
(-2.85537e-62 -9.30384e-62 6.94345e-15)
(1.25693e-59 -5.34467e-64 0)
(9.44777e-73 -9.3722e-18 0)
(9.70402e-89 0 0)
(0 0 -8.4736e-15)
(0 -2.10961e-17 0)
(0 0 0)
(0 0 0)
(0 0 0)
(0 0 0)
(0 0 0)
(0 0 -4.63682e-17)
(0 0 0)
(0 0 0)
(0 0 0)
(0 0 0)
(0 0 -1.25198e-15)
(0 -2.06007e-32 -2.64302e-15)
(0 -4.10639e-36 0)
(0 -6.65097e-36 -6.8636e-15)
(0 5.23002e-24 -1.31709e-14)
(0 0 -1.09913e-14)
(0 0 -5.84336e-15)
(0 0 0)
(0 0 -6.8636e-15)
(0 5.30755e-24 -1.31709e-14)
(0 0 -1.09913e-14)
(0 0 -5.84336e-15)
(0 0 0)
(0 0 -6.8636e-15)
(0 5.20504e-24 -1.31709e-14)
(0 0 -1.09913e-14)
(0 0 -5.75059e-15)
(0 0 0)
(0 0 -1.9475e-15)
(0 -1.05304e-14 -1.71566e-15)
(0 0 0)
(0 0 0)
(0 0 0)
(0 0 0)
(0 0 0)
(0 0 0)
(0 0 0)
(0 0 0)
(0 0 0)
(0 0 0)
(0 0 0)
(-3.89416e-18 0 0)
(-1.62793e-19 0 0)
(-8.98303e-47 -5.70246e-59 -6.94345e-15)
(-3.62077e-64 -7.47053e-67 0)
(-1.5729e-59 4.32126e-72 0)
(-8.44185e-74 0 0)
(-5.84857e-89 0 0)
(0 0 0)
(0 -9.69615e-20 0)
(0 0 0)
(0 0 0)
(0 0 0)
(0 0 0)
(0 0 0)
(0 0 -2.90493e-14)
(0 0 -6.49155e-16)
(0 0 0)
(0 0 0)
(0 0 0)
(0 0 -2.99767e-14)
(0 -1.08193e-32 -3.41035e-14)
(0 -5.109e-37 -1.04793e-14)
(0 1.50089e-28 -4.18953e-14)
(0 -9.35579e-27 -4.99193e-14)
(0 0 -4.99193e-14)
(0 0 -4.1478e-14)
(0 0 -1.07113e-14)
(0 0 -4.19881e-14)
(0 -9.32482e-27 -4.99193e-14)
(0 0 -4.99193e-14)
(0 0 -4.1478e-14)
(0 0 -1.07113e-14)
(0 0 -4.19881e-14)
(0 -9.32482e-27 -4.99193e-14)
(0 0 -4.99193e-14)
(0 0 -4.12461e-14)
(0 0 -1.01084e-14)
(0 0 -3.36863e-14)
(0 -1.03323e-32 -3.21569e-14)
(0 0 -7.42272e-16)
(0 0 0)
(0 0 0)
(0 0 0)
(0 0 0)
(0 0 0)
(0 0 0)
(0 0 0)
(0 0 0)
(0 0 0)
(0 0 0)
(-4.20401e-18 0 0)
(-2.05013e-19 0 0)
(-2.07871e-46 0 0)
(-2.35203e-67 -3.82094e-80 0)
(-6.83334e-57 0 0)
(-3.99574e-73 0 2.18622e-14)
(-3.60829e-87 0 4.12677e-15)
(0 0 2.22332e-14)
(0 -1.24593e-25 2.22332e-14)
(0 0 0)
(0 0 0)
(0 0 0)
(0 0 0)
(0 0 2.05176e-14)
(0 0 -3.14605e-14)
(0 0 -1.20557e-15)
(0 0 0)
(0 0 0)
(0 0 2.22332e-14)
(0 0 0)
(0 -7.27648e-39 -2.0866e-15)
(0 -3.77362e-45 0)
(0 1.0215e-44 -6.12161e-15)
(0 3.35269e-30 -1.02957e-14)
(0 0 -1.02493e-14)
(0 0 -6.02887e-15)
(0 0 0)
(0 0 -6.16797e-15)
(0 3.58095e-30 -1.02957e-14)
(0 0 -1.02493e-14)
(0 0 -6.02887e-15)
(0 0 0)
(0 0 -6.16797e-15)
(0 3.38319e-30 -1.02957e-14)
(0 0 -1.02493e-14)
(0 0 -5.93606e-15)
(0 0 0)
(0 0 -2.0403e-15)
(0 -9.66391e-39 -2.13328e-15)
(0 0 0)
(0 0 1.65763e-14)
(0 0 0)
(0 0 0)
(0 0 0)
(0 0 0)
(0 0 1.65763e-14)
(0 0 0)
(0 0 0)
(0 0 0)
(0 0 0)
(-3.10956e-18 0 0)
(-1.94355e-19 0 0)
(-5.78282e-46 0 0)
(-4.72694e-67 0 0)
(-1.29818e-55 0 -2.18622e-14)
(-7.52621e-73 0 0)
(-9.65568e-87 0 0)
(0 0 -1.64372e-14)
(0 0 0)
(0 0 0)
(0 0 0)
(0 0 0)
(0 0 0)
(0 0 2.1584e-14)
(0 0 -2.39952e-14)
(0 0 0)
(0 0 0)
(0 0 0)
(0 0 2.22332e-14)
(0 0 0)
(0 -2.34951e-47 0)
(0 2.03656e-49 0)
(0 6.82652e-50 0)
(0 0 0)
(0 0 0)
(0 0 0)
(0 0 0)
(0 0 0)
(0 0 0)
(0 0 0)
(0 0 0)
(0 0 0)
(0 0 0)
(0 0 0)
(0 0 0)
(0 0 0)
(0 0 0)
(0 0 0)
(0 -3.2898e-47 0)
(0 0 0)
(0 0 -2.10276e-14)
(0 0 0)
(0 0 0)
(0 0 0)
(0 0 0)
(0 0 -2.10276e-14)
(0 0 0)
(0 0 0)
(0 0 0)
(0 0 0)
(-8.87954e-19 0 0)
(-7.35516e-20 0 0)
(-1.12205e-45 0 0)
(-2.6195e-66 0 0)
(-2.40994e-54 0 -4.12677e-15)
(-7.63894e-70 0 0)
(-3.25297e-86 0 0)
(0 0 0)
(0 0 0)
(0 0 0)
(0 0 0)
(0 0 0)
(0 0 0)
(0 0 3.19941e-15)
(0 0 -2.82846e-15)
(0 0 0)
(0 0 0)
(0 0 0)
(0 0 4.21951e-15)
(0 0 0)
(0 4.16542e-49 0)
(0 2.60328e-51 0)
(0 0 0)
(0 0 0)
(0 0 0)
(0 0 0)
(0 0 0)
(0 0 0)
(0 0 0)
(0 0 0)
(0 0 0)
(0 0 0)
(0 0 0)
(0 0 0)
(0 0 0)
(0 0 0)
(0 0 0)
(0 0 0)
(0 8.77844e-49 0)
(0 0 0)
(0 0 -1.27858e-14)
(0 0 0)
(0 0 0)
(0 0 0)
(0 0 0)
(0 0 -1.27858e-14)
(0 0 0)
(0 0 0)
(0 0 0)
(0 0 0)
(-1.25579e-19 0 0)
(-6.5359e-21 0 0)
(-2.83535e-47 0 8.4736e-15)
(-4.91969e-66 0 0)
(-2.10243e-53 0 -2.22332e-14)
(-1.57829e-68 0 1.64372e-14)
(-1.94244e-85 0 0)
(0 0 0)
(0 0 2.08421e-14)
(0 0 0)
(0 0 0)
(0 0 0)
(0 0 0)
(0 0 2.16304e-14)
(0 0 -2.14913e-14)
(0 0 0)
(0 0 0)
(0 0 0)
(0 0 2.22332e-14)
(0 0 0)
(0 0 0)
(0 0 0)
(0 0 0)
(0 0 0)
(0 0 0)
(0 0 0)
(0 0 0)
(0 0 0)
(0 0 0)
(0 0 0)
(0 0 0)
(0 0 0)
(0 0 0)
(0 0 0)
(0 0 0)
(0 0 0)
(0 0 0)
(0 0 0)
(0 0 0)
(0 0 0)
(0 0 -2.22567e-15)
(0 0 0)
(0 0 2.13058e-14)
(0 0 0)
(0 0 0)
(0 0 -2.22567e-15)
(0 0 0)
(0 0 2.13058e-14)
(0 0 0)
(0 0 0)
(-5.57846e-19 0 0)
(-6.12788e-35 0 0)
(-9.80757e-50 0 0)
(1.70325e-65 0 0)
(-5.92251e-54 0 -2.22332e-14)
(-9.04373e-72 0 0)
(-1.53455e-89 0 0)
(0 0 -2.08421e-14)
(0 0 0)
(0 0 0)
(0 0 0)
(0 0 0)
(0 0 0)
(0 0 2.09812e-14)
(0 0 -2.09812e-14)
(0 0 0)
(0 0 0)
(0 0 0)
(0 0 2.22332e-14)
(0 0 0)
(0 0 0)
(0 0 0)
(0 0 0)
(0 0 0)
(0 0 0)
(0 0 0)
(0 0 0)
(0 0 0)
(0 0 0)
(0 0 0)
(0 0 0)
(0 0 0)
(0 0 0)
(0 0 0)
(0 0 0)
(0 0 0)
(0 0 0)
(0 0 0)
(0 0 0)
(0 0 0)
(0 0 -2.64063e-14)
(0 0 0)
(0 0 0)
(0 0 0)
(0 0 0)
(0 0 -2.64063e-14)
(0 0 0)
(0 0 0)
(0 0 0)
(0 0 0)
(-2.59383e-18 0 0)
(-1.60536e-34 0 0)
(-6.18932e-49 0 0)
(1.26541e-64 0 0)
(1.13136e-63 0 0)
(2.34518e-77 0 0)
(3.01471e-88 0 0)
(0 0 0)
(0 0 0)
(0 0 0)
(0 0 0)
(0 0 0)
(0 0 0)
(0 0 0)
(0 0 0)
(0 0 0)
(0 0 0)
(0 0 0)
(0 0 0)
(0 0 0)
(0 0 0)
(0 0 0)
(0 0 0)
(0 0 0)
(0 0 0)
(0 0 0)
(0 0 0)
(0 0 0)
(0 0 0)
(0 0 0)
(0 0 0)
(0 0 0)
(0 0 0)
(0 0 0)
(0 0 0)
(0 0 0)
(0 0 0)
(0 0 0)
(0 0 0)
(0 0 0)
(0 0 -1.33886e-14)
(0 0 0)
(0 0 0)
(0 0 0)
(0 0 0)
(0 0 -1.33886e-14)
(0 0 0)
(0 0 0)
(0 0 0)
(0 0 0)
(-4.70006e-18 0 -6.94345e-15)
(-3.47528e-34 0 0)
(-3.94942e-49 0 0)
(5.98409e-65 0 0)
(1.24382e-64 0 0)
(2.91859e-78 0 0)
(-4.37882e-95 0 0)
(0 0 0)
(0 0 0)
(0 0 0)
(0 0 0)
(0 0 0)
(0 0 0)
(0 0 0)
(0 0 0)
(0 0 0)
(0 0 0)
(0 0 0)
(0 0 0)
(0 0 -1.68081e-14)
(0 0 2.22332e-14)
(0 0 2.21868e-14)
(0 0 2.96756e-15)
(0 0 1.73182e-14)
(0 0 -1.96366e-14)
(0 0 0)
(0 0 2.21868e-14)
(0 0 2.96756e-15)
(0 0 1.72718e-14)
(0 0 -1.96366e-14)
(0 0 0)
(0 0 2.21868e-14)
(0 0 2.96756e-15)
(0 0 1.72718e-14)
(0 0 -1.96366e-14)
(0 0 0)
(0 0 2.21868e-14)
(0 0 4.21951e-15)
(0 0 2.22332e-14)
(0 0 2.21868e-14)
(0 0 7.41891e-16)
(0 0 2.21868e-14)
(0 0 4.21951e-15)
(0 0 2.21868e-14)
(0 0 2.21868e-14)
(0 0 7.41891e-16)
(0 0 2.21868e-14)
(0 0 4.21951e-15)
(0 0 2.21868e-14)
(0 0 0)
(-4.29438e-18 0 0)
(2.65157e-35 0 0)
(5.89664e-48 0 0)
(1.23815e-64 0 0)
(3.6369e-66 0 0)
(1.18928e-84 0 0)
(0 0 0)
(0 0 0)
(0 0 0)
(0 0 0)
(0 0 0)
(0 0 0)
(0 0 0)
(0 0 0)
(0 0 0)
(0 0 0)
(0 0 0)
(0 0 0)
(0 0 0)
(0 0 -4.63682e-16)
(0 0 5.47145e-15)
(0 0 5.61055e-15)
(0 0 0)
(0 0 2.45751e-15)
(0 0 -2.13294e-15)
(0 0 0)
(0 0 4.54408e-15)
(0 0 0)
(0 0 2.41115e-15)
(0 0 -2.17931e-15)
(0 0 0)
(0 0 4.54408e-15)
(0 0 0)
(0 0 2.41115e-15)
(0 0 -2.17931e-15)
(0 0 0)
(0 0 4.54408e-15)
(0 0 0)
(0 0 5.51782e-15)
(0 0 3.75582e-15)
(0 0 -7.36077e-15)
(0 0 2.13294e-15)
(0 0 0)
(0 0 5.51782e-15)
(0 0 3.75582e-15)
(0 0 -7.3144e-15)
(0 0 2.13294e-15)
(0 0 0)
(0 0 5.61055e-15)
(0 0 0)
(-4.94287e-18 0 -6.94345e-15)
(-8.95136e-34 0 0)
(9.26622e-47 0 0)
(1.11547e-63 0 0)
(-2.6798e-72 0 0)
(-5.82337e-93 0 0)
(0 0 0)
(0 0 0)
(0 0 0)
(0 0 0)
(0 0 0)
(0 0 0)
(0 0 0)
(0 0 0)
(0 0 0)
(0 0 0)
(0 0 0)
(0 0 0)
(0 0 0)
(0 0 -1.51388e-14)
(0 0 2.22332e-14)
(0 0 2.21868e-14)
(0 0 7.51165e-15)
(0 0 2.22332e-14)
(0 0 -1.72254e-14)
(0 0 0)
(0 0 2.22332e-14)
(0 0 7.37254e-15)
(0 0 2.22332e-14)
(0 0 -1.72254e-14)
(0 0 0)
(0 0 2.22332e-14)
(0 0 7.37254e-15)
(0 0 2.22332e-14)
(0 0 -1.72254e-14)
(0 0 0)
(0 0 2.22332e-14)
(0 0 7.46528e-15)
(0 0 2.22332e-14)
(0 0 2.21868e-14)
(0 0 0)
(0 0 2.13058e-14)
(0 0 0)
(0 0 2.21868e-14)
(0 0 2.21868e-14)
(0 0 0)
(0 0 2.13058e-14)
(0 0 0)
(0 0 2.21868e-14)
(0 0 0)
(-2.53011e-18 0 0)
(-4.53134e-32 0 0)
(2.08805e-46 0 0)
(1.29602e-63 0 0)
(-4.95078e-71 0 -2.06567e-14)
(0 0 -2.1584e-14)
(0 0 -3.15304e-15)
(0 0 -2.16304e-14)
(0 0 -2.09812e-14)
(0 0 0)
(0 0 0)
(0 0 0)
(0 0 0)
(0 0 0)
(0 0 6.94345e-15)
(0 0 0)
(0 0 0)
(0 0 0)
(0 0 0)
(0 0 5.59877e-15)
(0 0 1.46406e-14)
(0 0 5.05413e-15)
(0 0 1.32959e-14)
(0 0 1.64026e-14)
(0 0 7.03619e-15)
(0 0 7.17529e-15)
(0 0 2.9212e-15)
(0 0 1.26467e-14)
(0 0 1.63562e-14)
(0 0 7.03619e-15)
(0 0 7.17529e-15)
(0 0 2.9212e-15)
(0 0 1.26467e-14)
(0 0 1.63562e-14)
(0 0 7.03619e-15)
(0 0 7.17529e-15)
(0 0 2.9212e-15)
(0 0 1.31104e-14)
(0 0 1.78863e-14)
(0 0 0)
(0 0 -3.27006e-14)
(0 0 -1.57652e-15)
(0 0 -2.22795e-14)
(0 0 0)
(0 0 0)
(0 0 -2.95939e-14)
(0 0 -6.02787e-16)
(0 0 -2.20477e-14)
(0 0 0)
(0 0 0)
(-6.22654e-18 0 0)
(-7.45769e-31 0 0)
(9.5479e-46 0 0)
(-8.40325e-64 0 2.22332e-14)
(-3.5433e-72 0 2.22332e-14)
(0 0 2.17231e-14)
(0 0 3.01393e-15)
(0 0 2.15377e-14)
(0 0 2.09812e-14)
(0 0 0)
(0 0 0)
(0 0 0)
(0 0 0)
(0 0 -6.94345e-15)
(0 0 0)
(0 0 0)
(0 0 0)
(0 0 0)
(0 0 -1.20903e-14)
(0 0 -1.74227e-14)
(0 0 -5.59877e-15)
(0 0 0)
(0 0 -6.94345e-15)
(0 0 -6.98982e-15)
(0 0 -1.57534e-14)
(0 0 -9.12276e-15)
(0 0 0)
(0 0 -6.94345e-15)
(0 0 -6.98982e-15)
(0 0 -1.57534e-14)
(0 0 -9.12276e-15)
(0 0 0)
(0 0 -6.94345e-15)
(0 0 -6.98982e-15)
(0 0 -1.57534e-14)
(0 0 -9.12276e-15)
(0 0 0)
(0 0 -6.94345e-15)
(0 0 -6.38703e-15)
(0 0 2.45751e-15)
(0 0 2.11667e-14)
(0 0 3.84856e-15)
(0 0 0)
(0 0 0)
(0 0 3.84856e-15)
(0 0 2.08885e-14)
(0 0 3.80219e-15)
(0 0 0)
(0 0 0)
(0 0 0)
(-1.3215e-17 0 -6.94345e-15)
(-2.01554e-29 0 0)
(2.81698e-44 0 0)
(-5.1416e-66 0 0)
(-1.61676e-74 0 0)
(0 0 0)
(0 0 0)
(0 0 0)
(0 0 0)
(0 0 0)
(0 0 0)
(0 0 0)
(0 0 0)
(0 0 0)
(0 0 0)
(0 0 0)
(0 0 0)
(0 0 0)
(0 0 -1.66926e-15)
(0 0 -2.22332e-14)
(0 0 2.09349e-14)
(0 0 2.21868e-14)
(0 0 6.95523e-16)
(0 0 1.50461e-14)
(0 0 -2.22332e-14)
(0 0 0)
(0 0 2.21868e-14)
(0 0 6.95523e-16)
(0 0 1.50461e-14)
(0 0 -2.22332e-14)
(0 0 0)
(0 0 2.21868e-14)
(0 0 6.95523e-16)
(0 0 1.50461e-14)
(0 0 -2.22332e-14)
(0 0 0)
(0 0 2.21868e-14)
(0 0 2.45751e-15)
(0 0 2.22332e-14)
(0 0 2.21868e-14)
(0 0 7.46528e-15)
(0 0 2.21868e-14)
(0 0 5.28597e-15)
(0 0 2.21868e-14)
(0 0 2.21868e-14)
(0 0 7.37254e-15)
(0 0 2.21868e-14)
(0 0 5.28597e-15)
(0 0 2.21868e-14)
(0 0 0)
(-2.98294e-17 0 0)
(-9.30423e-26 0 0)
(1.01679e-43 0 0)
(0 0 0)
(0 0 0)
(0 0 0)
(0 0 0)
(0 0 0)
(0 0 0)
(0 0 0)
(0 0 0)
(0 0 0)
(0 0 0)
(0 0 0)
(0 0 0)
(0 0 0)
(0 0 0)
(0 0 0)
(0 0 0)
(0 0 -1.29831e-15)
(0 0 5.00777e-15)
(0 0 5.56418e-15)
(0 0 0)
(0 0 1.66926e-15)
(0 0 -2.96756e-15)
(0 0 0)
(0 0 4.63682e-15)
(0 0 0)
(0 0 1.66926e-15)
(0 0 -2.96756e-15)
(0 0 0)
(0 0 4.63682e-15)
(0 0 0)
(0 0 1.66926e-15)
(0 0 -2.96756e-15)
(0 0 0)
(0 0 4.63682e-15)
(0 0 0)
(0 0 5.51782e-15)
(0 0 3.57035e-15)
(0 0 -8.14903e-15)
(0 0 1.9011e-15)
(0 0 0)
(0 0 5.51782e-15)
(0 0 3.57035e-15)
(0 0 -8.14903e-15)
(0 0 1.9011e-15)
(0 0 0)
(0 0 5.61055e-15)
(0 0 0)
(-6.27896e-17 0 -8.38087e-15)
(-9.32258e-23 0 0)
(1.51157e-42 0 0)
(0 0 0)
(0 0 -8.80996e-16)
(0 0 -1.66926e-15)
(0 0 0)
(0 0 -1.76199e-15)
(0 0 -1.15921e-15)
(0 0 0)
(0 0 0)
(0 0 0)
(0 0 0)
(0 0 0)
(0 0 0)
(0 0 0)
(0 0 0)
(0 0 0)
(0 0 0)
(0 0 -1.50925e-14)
(0 0 2.22332e-14)
(0 0 2.21868e-14)
(0 0 8.39264e-15)
(0 0 2.22332e-14)
(0 0 -1.69472e-14)
(0 0 0)
(0 0 2.22332e-14)
(0 0 8.25354e-15)
(0 0 2.22332e-14)
(0 0 -1.69472e-14)
(0 0 0)
(0 0 2.22332e-14)
(0 0 8.25354e-15)
(0 0 2.22332e-14)
(0 0 -1.69472e-14)
(0 0 0)
(0 0 2.22332e-14)
(0 0 8.29991e-15)
(0 0 2.22332e-14)
(0 0 2.21868e-14)
(0 0 0)
(0 0 2.12131e-14)
(0 0 0)
(0 0 2.21868e-14)
(0 0 2.21868e-14)
(0 0 0)
(0 0 2.12131e-14)
(0 0 0)
(0 0 2.21868e-14)
(0 0 0)
(-2.66685e-16 0 0)
(-2.04025e-20 0 0)
(0 0 0)
(0 0 0)
(0 0 -2.9513e-14)
(0 0 -3.30833e-14)
(0 0 -9.64459e-15)
(0 0 -3.32224e-14)
(0 0 -3.04867e-14)
(0 0 -9.27364e-17)
(0 0 0)
(0 0 0)
(0 0 0)
(0 0 0)
(0 0 1.20903e-14)
(0 0 1.66926e-15)
(0 0 0)
(0 0 0)
(0 0 0)
(0 0 7.4535e-15)
(0 0 1.70517e-14)
(0 0 6.53792e-15)
(0 0 1.66808e-14)
(0 0 1.98802e-14)
(0 0 1.03747e-14)
(0 0 1.06993e-14)
(0 0 4.68319e-15)
(0 0 1.61707e-14)
(0 0 1.98338e-14)
(0 0 1.03747e-14)
(0 0 1.06993e-14)
(0 0 4.68319e-15)
(0 0 1.61707e-14)
(0 0 1.98338e-14)
(0 0 1.03747e-14)
(0 0 1.06993e-14)
(0 0 4.68319e-15)
(0 0 1.63562e-14)
(0 0 2.06221e-14)
(0 0 0)
(0 0 -3.46017e-14)
(0 0 -1.99383e-15)
(0 0 -2.22332e-14)
(0 0 0)
(0 0 0)
(0 0 -3.10777e-14)
(0 0 -1.06647e-15)
(0 0 -2.20013e-14)
(0 0 0)
(0 0 0)
(-6.82912e-16 0 1.81064e-14)
(-1.28947e-18 0 0)
(0 0 0)
(0 0 2.22332e-14)
(0 0 0)
(0 0 -1.76199e-15)
(0 0 0)
(0 0 -1.85473e-15)
(0 0 -1.53015e-15)
(0 0 0)
(0 0 1.84774e-14)
(0 0 1.20557e-15)
(0 0 1.75036e-14)
(0 0 -5.59877e-15)
(0 0 1.74227e-14)
(0 0 2.22332e-14)
(0 0 2.17931e-15)
(0 0 1.73182e-14)
(0 0 -7.59261e-15)
(0 0 0)
(0 0 0)
(0 0 0)
(0 0 0)
(0 0 0)
(0 0 0)
(0 0 0)
(0 0 0)
(0 0 0)
(0 0 0)
(0 0 0)
(0 0 0)
(0 0 0)
(0 0 0)
(0 0 0)
(0 0 0)
(0 0 0)
(0 0 0)
(0 0 0)
(0 0 0)
(0 0 0)
(0 0 1.52316e-14)
(0 0 0)
(0 0 -3.61672e-15)
(0 0 0)
(0 0 0)
(0 0 1.54171e-14)
(0 0 0)
(0 0 -3.57035e-15)
(0 0 0)
(0 0 0)
(-1.38098e-15 0 -1.66226e-14)
(-2.93688e-17 0 0)
(0 0 0)
(0 0 2.22332e-14)
(0 0 0)
(0 0 0)
(0 0 0)
(0 0 0)
(0 0 0)
(0 0 0)
(0 0 -2.22332e-14)
(0 0 -8.0217e-15)
(0 0 -2.22332e-14)
(0 0 -1.64026e-14)
(0 0 5.59877e-15)
(0 0 -2.22332e-14)
(0 0 -7.51168e-15)
(0 0 -2.22332e-14)
(0 0 -1.89529e-14)
(0 0 0)
(0 0 0)
(0 0 0)
(0 0 0)
(0 0 0)
(0 0 0)
(0 0 0)
(0 0 0)
(0 0 0)
(0 0 0)
(0 0 0)
(0 0 0)
(0 0 0)
(0 0 0)
(0 0 0)
(0 0 0)
(0 0 0)
(0 0 0)
(0 0 0)
(0 0 0)
(0 0 0)
(0 0 0)
(0 0 0)
(0 0 -1.70399e-14)
(0 0 0)
(0 0 0)
(0 0 0)
(0 0 0)
(0 0 -1.70399e-14)
(0 0 0)
(0 0 0)
(-2.6544e-15 0 0)
(-2.83335e-16 0 0)
(0 0 0)
(0 0 4.21951e-15)
(0 0 0)
(0 0 0)
(0 0 0)
(0 0 0)
(0 0 0)
(0 0 -2.08657e-15)
(0 0 -3.59582e-14)
(0 0 -1.65534e-14)
(0 0 -4.24497e-14)
(0 0 -1.18239e-14)
(0 0 -1.39139e-16)
(0 0 -3.34544e-14)
(0 0 -1.54407e-14)
(0 0 -4.30063e-14)
(0 0 -1.35396e-14)
(0 0 0)
(0 0 0)
(0 0 0)
(0 0 0)
(0 0 0)
(0 0 0)
(0 0 0)
(0 0 0)
(0 0 0)
(0 0 0)
(0 0 0)
(0 0 0)
(0 0 0)
(0 0 0)
(0 0 0)
(0 0 0)
(0 0 0)
(0 0 0)
(0 0 0)
(0 0 0)
(0 0 0)
(0 0 0)
(0 0 0)
(0 0 1.92656e-14)
(0 0 0)
(0 0 0)
(0 0 0)
(0 0 0)
(0 0 1.92656e-14)
(0 0 0)
(0 0 0)
(-7.49756e-15 0 0)
(-1.26498e-15 0 0)
(0 0 0)
(0 0 2.22332e-14)
(0 0 0)
(0 0 0)
(0 0 0)
(0 0 0)
(0 0 0)
(0 0 0)
(0 0 -7.51165e-15)
(0 0 -3.0603e-15)
(0 0 -1.40959e-14)
(0 0 -1.63098e-14)
(0 0 6.94345e-15)
(0 0 -3.75586e-15)
(0 0 -1.06654e-15)
(0 0 -1.46524e-14)
(0 0 -2.00193e-14)
(0 0 0)
(0 0 0)
(0 0 0)
(0 0 0)
(0 0 0)
(0 0 0)
(0 0 0)
(0 0 0)
(0 0 0)
(0 0 0)
(0 0 0)
(0 0 0)
(0 0 0)
(0 0 0)
(0 0 0)
(0 0 0)
(0 0 0)
(0 0 0)
(0 0 0)
(0 0 0)
(0 0 0)
(0 0 2.21404e-14)
(0 0 0)
(0 0 0)
(0 0 0)
(0 0 0)
(0 0 2.21404e-14)
(0 0 0)
(0 0 0)
(0 0 0)
(0 0 0)
(-1.07627e-14 0 -1.70866e-14)
(-2.72747e-15 0 0)
(0 0 0)
(0 0 2.22332e-14)
(0 0 0)
(0 0 0)
(0 0 0)
(0 0 0)
(0 0 0)
(0 0 0)
(0 0 -1.86165e-14)
(0 0 -3.52398e-15)
(0 0 -2.22332e-14)
(0 0 -1.66808e-14)
(0 0 6.98982e-15)
(0 0 -1.50461e-14)
(0 0 -1.9011e-15)
(0 0 -2.22332e-14)
(0 0 -2.02048e-14)
(0 0 0)
(0 0 0)
(0 0 0)
(0 0 0)
(0 0 0)
(0 0 0)
(0 0 0)
(0 0 0)
(0 0 0)
(0 0 0)
(0 0 0)
(0 0 0)
(0 0 0)
(0 0 0)
(0 0 0)
(0 0 0)
(0 0 0)
(0 0 0)
(0 0 0)
(0 0 0)
(0 0 0)
(0 0 5.28597e-15)
(0 0 0)
(0 0 -2.4598e-14)
(0 0 0)
(0 0 0)
(0 0 5.28597e-15)
(0 0 0)
(0 0 -2.4598e-14)
(0 0 0)
(0 0 0)
(-1.15073e-14 0 1.68546e-14)
(-3.25516e-15 0 0)
(0 0 0)
(0 0 2.22332e-14)
(0 0 0)
(0 0 0)
(0 0 0)
(0 0 0)
(0 0 0)
(0 0 0)
(0 0 1.97757e-14)
(0 0 2.13294e-15)
(0 0 1.72254e-14)
(0 0 -7.03619e-15)
(0 0 1.57534e-14)
(0 0 2.22332e-14)
(0 0 3.01393e-15)
(0 0 1.69472e-14)
(0 0 -1.06529e-14)
(0 0 0)
(0 0 0)
(0 0 0)
(0 0 0)
(0 0 0)
(0 0 0)
(0 0 0)
(0 0 0)
(0 0 0)
(0 0 0)
(0 0 0)
(0 0 0)
(0 0 0)
(0 0 0)
(0 0 0)
(0 0 0)
(0 0 0)
(0 0 0)
(0 0 0)
(0 0 0)
(0 0 0)
(0 0 2.21868e-14)
(0 0 0)
(0 0 0)
(0 0 0)
(0 0 0)
(0 0 2.21868e-14)
(0 0 0)
(0 0 0)
(0 0 0)
(0 0 0)
(-9.21568e-16 0 0)
(-5.00158e-17 0 0)
(0 0 0)
(0 0 2.22332e-14)
(0 0 0)
(0 0 0)
(0 0 0)
(0 0 0)
(0 0 0)
(0 0 0)
(0 0 0)
(0 0 0)
(0 0 0)
(0 0 -7.87082e-15)
(0 0 9.12276e-15)
(0 0 0)
(0 0 0)
(0 0 0)
(0 0 -1.15803e-14)
(0 0 0)
(0 0 0)
(0 0 0)
(0 0 0)
(0 0 0)
(0 0 0)
(0 0 0)
(0 0 0)
(0 0 0)
(0 0 0)
(0 0 0)
(0 0 0)
(0 0 0)
(0 0 0)
(0 0 0)
(0 0 0)
(0 0 0)
(0 0 0)
(0 0 0)
(0 0 0)
(0 0 0)
(0 0 2.21868e-14)
(0 0 0)
(0 0 0)
(0 0 0)
(0 0 0)
(0 0 2.21868e-14)
(0 0 0)
(0 0 0)
(0 0 0)
(0 0 0)
(-2.6373e-15 0 0)
(-2.89555e-16 0 0)
(0 0 0)
(0 0 4.21951e-15)
(0 0 0)
(0 0 0)
(0 0 0)
(0 0 0)
(0 0 0)
(0 0 0)
(0 0 -2.66382e-14)
(0 0 -7.78986e-15)
(0 0 -3.05331e-14)
(0 0 -5.65692e-15)
(0 0 0)
(0 0 -2.62672e-14)
(0 0 -8.1608e-15)
(0 0 -3.18778e-14)
(0 0 -7.92896e-15)
(0 0 0)
(0 0 0)
(0 0 0)
(0 0 0)
(0 0 0)
(0 0 0)
(0 0 0)
(0 0 0)
(0 0 0)
(0 0 0)
(0 0 0)
(0 0 0)
(0 0 0)
(0 0 0)
(0 0 0)
(0 0 0)
(0 0 0)
(0 0 0)
(0 0 0)
(0 0 0)
(0 0 0)
(0 0 4.21951e-15)
(0 0 0)
(0 0 2.22332e-14)
(0 0 0)
(0 0 0)
(0 0 4.21951e-15)
(0 0 0)
(0 0 2.22332e-14)
(0 0 0)
(0 0 0)
(-7.54126e-15 0 0)
(-1.26598e-15 0 0)
(0 0 0)
(0 0 2.22332e-14)
(0 0 0)
(0 0 0)
(0 0 0)
(0 0 0)
(0 0 0)
(0 0 0)
(0 0 -4.12677e-15)
(0 0 0)
(0 0 -9.73732e-15)
(0 0 -1.38987e-14)
(0 0 6.94345e-15)
(0 0 -1.66926e-15)
(0 0 0)
(0 0 -1.10356e-14)
(0 0 -1.77472e-14)
(0 0 0)
(0 0 0)
(0 0 0)
(0 0 0)
(0 0 0)
(0 0 0)
(0 0 0)
(0 0 0)
(0 0 0)
(0 0 0)
(0 0 0)
(0 0 0)
(0 0 0)
(0 0 0)
(0 0 0)
(0 0 0)
(0 0 0)
(0 0 0)
(0 0 0)
(0 0 0)
(0 0 0)
(0 0 2.21868e-14)
(0 0 0)
(0 0 0)
(0 0 0)
(0 0 0)
(0 0 2.21868e-14)
(0 0 0)
(0 0 0)
(0 0 0)
(0 0 0)
(-1.0767e-14 0 -1.70866e-14)
(-2.72748e-15 0 0)
(0 0 0)
(0 0 2.22332e-14)
(0 0 0)
(0 0 0)
(0 0 0)
(0 0 0)
(0 0 0)
(0 0 0)
(0 0 -1.75036e-14)
(0 0 -2.45751e-15)
(0 0 -2.22332e-14)
(0 0 -1.64953e-14)
(0 0 6.98982e-15)
(0 0 -1.50461e-14)
(0 0 -1.66926e-15)
(0 0 -2.22332e-14)
(0 0 -2.00657e-14)
(0 0 0)
(0 0 0)
(0 0 0)
(0 0 0)
(0 0 0)
(0 0 0)
(0 0 0)
(0 0 0)
(0 0 0)
(0 0 0)
(0 0 0)
(0 0 0)
(0 0 0)
(0 0 0)
(0 0 0)
(0 0 0)
(0 0 0)
(0 0 0)
(0 0 0)
(0 0 0)
(0 0 0)
(0 0 5.28597e-15)
(0 0 0)
(0 0 -2.48298e-14)
(0 0 0)
(0 0 0)
(0 0 5.28597e-15)
(0 0 0)
(0 0 -2.48298e-14)
(0 0 0)
(0 0 0)
(-1.15077e-14 0 1.68546e-14)
(-3.25538e-15 0 0)
(0 0 0)
(0 0 2.22332e-14)
(0 0 0)
(0 0 0)
(0 0 0)
(0 0 0)
(0 0 0)
(0 0 0)
(0 0 1.9822e-14)
(0 0 2.17931e-15)
(0 0 1.72254e-14)
(0 0 -7.03619e-15)
(0 0 1.57534e-14)
(0 0 2.22332e-14)
(0 0 3.01393e-15)
(0 0 1.69472e-14)
(0 0 -1.06529e-14)
(0 0 0)
(0 0 0)
(0 0 0)
(0 0 0)
(0 0 0)
(0 0 0)
(0 0 0)
(0 0 0)
(0 0 0)
(0 0 0)
(0 0 0)
(0 0 0)
(0 0 0)
(0 0 0)
(0 0 0)
(0 0 0)
(0 0 0)
(0 0 0)
(0 0 0)
(0 0 0)
(0 0 0)
(0 0 2.21868e-14)
(0 0 0)
(0 0 0)
(0 0 0)
(0 0 0)
(0 0 2.21868e-14)
(0 0 0)
(0 0 0)
(0 0 0)
(0 0 0)
(-9.22471e-16 0 0)
(-5.0701e-17 0 0)
(0 0 0)
(0 0 2.22332e-14)
(0 0 0)
(0 0 0)
(0 0 0)
(0 0 0)
(0 0 0)
(0 0 0)
(0 0 0)
(0 0 0)
(0 0 0)
(0 0 -7.87082e-15)
(0 0 9.12276e-15)
(0 0 0)
(0 0 0)
(0 0 0)
(0 0 -1.15803e-14)
(0 0 0)
(0 0 0)
(0 0 0)
(0 0 0)
(0 0 0)
(0 0 0)
(0 0 0)
(0 0 0)
(0 0 0)
(0 0 0)
(0 0 0)
(0 0 0)
(0 0 0)
(0 0 0)
(0 0 0)
(0 0 0)
(0 0 0)
(0 0 0)
(0 0 0)
(0 0 0)
(0 0 0)
(0 0 2.21868e-14)
(0 0 0)
(0 0 0)
(0 0 0)
(0 0 0)
(0 0 2.21868e-14)
(0 0 0)
(0 0 0)
(0 0 0)
(0 0 0)
(-2.62918e-15 0 0)
(-2.93222e-16 0 0)
(0 0 0)
(0 0 4.21951e-15)
(0 0 0)
(0 0 0)
(0 0 0)
(0 0 0)
(0 0 0)
(0 0 0)
(0 0 -2.66382e-14)
(0 0 -7.78986e-15)
(0 0 -3.05331e-14)
(0 0 -5.65692e-15)
(0 0 0)
(0 0 -2.62672e-14)
(0 0 -8.1608e-15)
(0 0 -3.18778e-14)
(0 0 -7.92896e-15)
(0 0 0)
(0 0 0)
(0 0 0)
(0 0 0)
(0 0 0)
(0 0 0)
(0 0 0)
(0 0 0)
(0 0 0)
(0 0 0)
(0 0 0)
(0 0 0)
(0 0 0)
(0 0 0)
(0 0 0)
(0 0 0)
(0 0 0)
(0 0 0)
(0 0 0)
(0 0 0)
(0 0 0)
(0 0 4.21951e-15)
(0 0 0)
(0 0 2.22332e-14)
(0 0 0)
(0 0 0)
(0 0 4.21951e-15)
(0 0 0)
(0 0 2.22332e-14)
(0 0 0)
(0 0 0)
(-7.46189e-15 0 0)
(-1.26908e-15 0 0)
(0 0 0)
(0 0 2.22332e-14)
(0 0 0)
(0 0 0)
(0 0 0)
(0 0 0)
(0 0 0)
(0 0 0)
(0 0 -4.12677e-15)
(0 0 0)
(0 0 -9.73732e-15)
(0 0 -1.38987e-14)
(0 0 6.94345e-15)
(0 0 -1.66926e-15)
(0 0 0)
(0 0 -1.10356e-14)
(0 0 -1.77472e-14)
(0 0 0)
(0 0 0)
(0 0 0)
(0 0 0)
(0 0 0)
(0 0 0)
(0 0 0)
(0 0 0)
(0 0 0)
(0 0 0)
(0 0 0)
(0 0 0)
(0 0 0)
(0 0 0)
(0 0 0)
(0 0 0)
(0 0 0)
(0 0 0)
(0 0 0)
(0 0 0)
(0 0 0)
(0 0 2.21868e-14)
(0 0 0)
(0 0 0)
(0 0 0)
(0 0 0)
(0 0 2.21868e-14)
(0 0 0)
(0 0 0)
(0 0 0)
(0 0 0)
(-1.05892e-14 0 -1.70402e-14)
(-2.68769e-15 0 0)
(0 0 0)
(0 0 2.22332e-14)
(0 0 0)
(0 0 0)
(0 0 0)
(0 0 0)
(0 0 0)
(0 0 0)
(0 0 -1.75036e-14)
(0 0 -2.45751e-15)
(0 0 -2.22332e-14)
(0 0 -1.64953e-14)
(0 0 6.98982e-15)
(0 0 -1.50461e-14)
(0 0 -1.66926e-15)
(0 0 -2.22332e-14)
(0 0 -2.00657e-14)
(0 0 0)
(0 0 0)
(0 0 0)
(0 0 0)
(0 0 0)
(0 0 0)
(0 0 0)
(0 0 0)
(0 0 0)
(0 0 0)
(0 0 0)
(0 0 0)
(0 0 0)
(0 0 0)
(0 0 0)
(0 0 0)
(0 0 0)
(0 0 0)
(0 0 0)
(0 0 0)
(0 0 0)
(0 0 5.28597e-15)
(0 0 0)
(0 0 -2.48298e-14)
(0 0 0)
(0 0 0)
(0 0 5.28597e-15)
(0 0 0)
(0 0 -2.48298e-14)
(0 0 0)
(0 0 0)
(-1.11366e-14 0 1.68546e-14)
(-3.1471e-15 0 0)
(0 0 0)
(0 0 2.22332e-14)
(0 0 0)
(0 0 0)
(0 0 0)
(0 0 0)
(0 0 0)
(0 0 0)
(0 0 1.9822e-14)
(0 0 2.17931e-15)
(0 0 1.72254e-14)
(0 0 -7.03619e-15)
(0 0 1.57534e-14)
(0 0 2.22332e-14)
(0 0 3.01393e-15)
(0 0 1.69472e-14)
(0 0 -1.06529e-14)
(0 0 0)
(0 0 0)
(0 0 0)
(0 0 0)
(0 0 0)
(0 0 0)
(0 0 0)
(0 0 0)
(0 0 0)
(0 0 0)
(0 0 0)
(0 0 0)
(0 0 0)
(0 0 0)
(0 0 0)
(0 0 0)
(0 0 0)
(0 0 0)
(0 0 0)
(0 0 0)
(0 0 0)
(0 0 2.21868e-14)
(0 0 0)
(0 0 0)
(0 0 0)
(0 0 0)
(0 0 2.21868e-14)
(0 0 0)
(0 0 0)
(0 0 0)
(0 0 0)
(-7.18034e-17 0 0)
(0 0 0)
(0 0 0)
(0 0 2.22332e-14)
(0 0 0)
(0 0 0)
(0 0 0)
(0 0 0)
(0 0 0)
(0 0 0)
(0 0 0)
(0 0 0)
(0 0 0)
(0 0 -7.82445e-15)
(0 0 9.12276e-15)
(0 0 0)
(0 0 0)
(0 0 0)
(0 0 -1.15803e-14)
(0 0 0)
(0 0 0)
(0 0 0)
(0 0 0)
(0 0 0)
(0 0 0)
(0 0 0)
(0 0 0)
(0 0 0)
(0 0 0)
(0 0 0)
(0 0 0)
(0 0 0)
(0 0 0)
(0 0 0)
(0 0 0)
(0 0 0)
(0 0 0)
(0 0 0)
(0 0 0)
(0 0 0)
(0 0 2.21868e-14)
(0 0 0)
(0 0 0)
(0 0 0)
(0 0 0)
(0 0 2.21868e-14)
(0 0 0)
(0 0 0)
(0 0 0)
(0 0 0)
(-2.80478e-17 0 0)
(0 0 0)
(0 0 0)
(0 0 4.21951e-15)
(0 0 0)
(0 0 0)
(0 0 0)
(0 0 0)
(0 0 0)
(0 0 0)
(0 0 -2.66845e-14)
(0 0 -7.78986e-15)
(0 0 -3.03476e-14)
(0 0 -5.51782e-15)
(0 0 0)
(0 0 -2.64991e-14)
(0 0 -8.20717e-15)
(0 0 -3.18314e-14)
(0 0 -7.83623e-15)
(0 0 0)
(0 0 0)
(0 0 0)
(0 0 0)
(0 0 0)
(0 0 0)
(0 0 0)
(0 0 0)
(0 0 0)
(0 0 0)
(0 0 0)
(0 0 0)
(0 0 0)
(0 0 0)
(0 0 0)
(0 0 0)
(0 0 0)
(0 0 0)
(0 0 0)
(0 0 0)
(0 0 0)
(0 0 4.12677e-15)
(0 0 0)
(0 0 2.22332e-14)
(0 0 0)
(0 0 0)
(0 0 4.12677e-15)
(0 0 0)
(0 0 2.22332e-14)
(0 0 0)
(0 0 0)
(-6.62567e-18 0 0)
(0 0 0)
(0 0 0)
(0 0 2.22332e-14)
(0 0 0)
(0 0 0)
(0 0 0)
(0 0 0)
(0 0 0)
(0 0 0)
(0 0 -4.31224e-15)
(0 0 0)
(0 0 -9.27364e-15)
(0 0 -1.42696e-14)
(0 0 6.94345e-15)
(0 0 -2.50388e-15)
(0 0 0)
(0 0 -1.10356e-14)
(0 0 -1.81182e-14)
(0 0 0)
(0 0 0)
(0 0 0)
(0 0 0)
(0 0 0)
(0 0 0)
(0 0 0)
(0 0 0)
(0 0 0)
(0 0 0)
(0 0 0)
(0 0 0)
(0 0 0)
(0 0 0)
(0 0 0)
(0 0 0)
(0 0 0)
(0 0 0)
(0 0 0)
(0 0 0)
(0 0 0)
(0 0 2.18622e-14)
(0 0 0)
(0 0 0)
(0 0 0)
(0 0 0)
(0 0 2.18622e-14)
(0 0 0)
(0 0 0)
(0 0 0)
(0 0 0)
(-2.59538e-18 0 -2.08421e-14)
(0 0 0)
(0 0 0)
(0 0 2.22332e-14)
(0 0 0)
(0 0 0)
(0 0 0)
(0 0 0)
(0 0 0)
(0 0 0)
(0 0 -2.22332e-14)
(0 0 -6.86249e-15)
(0 0 -2.42734e-14)
(0 0 -1.82109e-14)
(0 0 6.38703e-15)
(0 0 -2.22332e-14)
(0 0 -8.0217e-15)
(0 0 -2.58963e-14)
(0 0 -2.15031e-14)
(0 0 0)
(0 0 0)
(0 0 0)
(0 0 0)
(0 0 0)
(0 0 0)
(0 0 0)
(0 0 0)
(0 0 0)
(0 0 0)
(0 0 0)
(0 0 0)
(0 0 0)
(0 0 0)
(0 0 0)
(0 0 0)
(0 0 0)
(0 0 0)
(0 0 0)
(0 0 0)
(0 0 0)
(0 0 0)
(0 0 0)
(0 0 -1.91729e-14)
(0 0 0)
(0 0 0)
(0 0 0)
(0 0 0)
(0 0 -1.91729e-14)
(0 0 0)
(0 0 0)
(-1.25189e-20 0 0)
(0 0 0)
(0 0 0)
(0 0 0)
(0 0 0)
(0 0 0)
(0 0 0)
(0 0 0)
(0 0 0)
(0 0 0)
(0 0 -3.08577e-14)
(0 0 -8.53175e-15)
(0 0 -3.01158e-14)
(0 0 -1.85473e-16)
(0 0 -9.22727e-15)
(0 0 -3.99922e-14)
(0 0 -1.15457e-14)
(0 0 -3.15996e-14)
(0 0 -7.88259e-16)
(0 0 0)
(0 0 0)
(0 0 0)
(0 0 0)
(0 0 0)
(0 0 -1.9011e-15)
(0 0 -1.94746e-15)
(0 0 0)
(0 0 0)
(0 0 0)
(0 0 -1.99383e-15)
(0 0 -1.99383e-15)
(0 0 0)
(0 0 0)
(0 0 0)
(0 0 -1.94746e-15)
(0 0 -1.85473e-15)
(0 0 0)
(0 0 0)
(0 0 0)
(0 0 0)
(0 0 0)
(0 0 0)
(0 0 1.69472e-14)
(0 0 0)
(0 0 0)
(0 0 0)
(0 0 0)
(0 0 1.69472e-14)
(0 0 0)
(0 0 0)
(-1.20132e-20 0 0)
(0 0 0)
(0 0 0)
(0 0 0)
(0 0 -1.65763e-14)
(0 0 2.10276e-14)
(0 0 1.23685e-14)
(0 0 6.49155e-16)
(0 0 2.22332e-14)
(0 0 1.23685e-14)
(0 0 -3.52398e-15)
(0 0 7.36077e-15)
(0 0 0)
(0 0 2.22214e-14)
(0 0 -3.02549e-14)
(0 0 -1.73417e-14)
(0 0 8.14903e-15)
(0 0 0)
(0 0 2.22214e-14)
(0 0 -1.59735e-14)
(0 0 0)
(0 0 0)
(0 0 -2.29751e-14)
(0 0 -8.67085e-15)
(0 0 -3.32688e-14)
(0 0 -3.34543e-14)
(0 0 -8.20717e-15)
(0 0 -2.52471e-14)
(0 0 -9.45911e-15)
(0 0 -3.35934e-14)
(0 0 -3.3547e-14)
(0 0 -8.25354e-15)
(0 0 -2.52471e-14)
(0 0 -9.41274e-15)
(0 0 -3.35007e-14)
(0 0 -3.31297e-14)
(0 0 -7.32618e-15)
(0 0 -2.26505e-14)
(0 0 0)
(0 0 0)
(0 0 0)
(0 0 0)
(0 0 2.78209e-15)
(0 0 0)
(0 0 0)
(0 0 0)
(0 0 0)
(0 0 2.68936e-15)
(0 0 0)
(0 0 0)
(-1.44176e-20 0 0)
(0 0 0)
(0 0 0)
(0 0 0)
(0 0 0)
(0 0 0)
(0 0 0)
(0 0 0)
(0 0 0)
(0 0 0)
(0 0 -2.45052e-14)
(0 0 -2.82846e-15)
(0 0 -2.18159e-14)
(0 0 0)
(0 0 -9.41278e-15)
(0 0 -3.49845e-14)
(0 0 -6.81623e-15)
(0 0 -2.32997e-14)
(0 0 0)
(0 0 0)
(0 0 0)
(0 0 0)
(0 0 0)
(0 0 0)
(0 0 -2.08657e-15)
(0 0 -2.68936e-15)
(0 0 -1.85473e-15)
(0 0 0)
(0 0 0)
(0 0 -2.17931e-15)
(0 0 -2.73572e-15)
(0 0 -1.9011e-15)
(0 0 0)
(0 0 0)
(0 0 -2.08657e-15)
(0 0 -2.50388e-15)
(0 0 -1.53015e-15)
(0 0 0)
(0 0 0)
(0 0 0)
(0 0 0)
(0 0 0)
(0 0 2.18159e-14)
(0 0 0)
(0 0 -1.25194e-15)
(0 0 0)
(0 0 0)
(0 0 2.14913e-14)
(0 0 0)
(0 0 0)
(-1.05752e-20 0 0)
(0 0 0)
(0 0 0)
(0 0 0)
(0 0 0)
(0 0 0)
(0 0 0)
(0 0 -2.09812e-14)
(0 0 0)
(0 0 0)
(0 0 -8.43901e-15)
(0 0 0)
(0 0 -1.20557e-15)
(0 0 2.21868e-14)
(0 0 0)
(0 0 -1.62753e-14)
(0 0 -4.77624e-15)
(0 0 -3.10684e-15)
(0 0 2.16768e-14)
(0 0 3.47762e-15)
(0 0 1.70399e-14)
(0 0 -1.91265e-14)
(0 0 0)
(0 0 2.21868e-14)
(0 0 0)
(0 0 0)
(0 0 -2.41806e-14)
(0 0 0)
(0 0 2.21868e-14)
(0 0 0)
(0 0 0)
(0 0 -2.41806e-14)
(0 0 0)
(0 0 2.21868e-14)
(0 0 0)
(0 0 0)
(0 0 -2.38561e-14)
(0 0 0)
(0 0 1.92656e-14)
(0 0 -1.69472e-14)
(0 0 -2.68936e-15)
(0 0 -2.14913e-14)
(0 0 0)
(0 0 -2.86784e-14)
(0 0 -3.15068e-14)
(0 0 -6.58428e-15)
(0 0 -2.2465e-14)
(0 0 0)
(0 0 -2.7751e-14)
(0 0 0)
(-5.08841e-21 0 0)
(0 0 0)
(0 0 0)
(0 0 0)
(0 0 0)
(0 0 0)
(0 0 0)
(0 0 0)
(0 0 0)
(0 0 -2.9212e-15)
(0 0 -3.69783e-14)
(0 0 -1.39105e-14)
(0 0 -3.28051e-14)
(0 0 0)
(0 0 -6.86325e-15)
(0 0 -4.50017e-14)
(0 0 -1.89654e-14)
(0 0 -3.50775e-14)
(0 0 0)
(0 0 0)
(0 0 0)
(0 0 0)
(0 0 0)
(0 0 0)
(0 0 0)
(0 0 0)
(0 0 0)
(0 0 0)
(0 0 0)
(0 0 0)
(0 0 0)
(0 0 0)
(0 0 0)
(0 0 0)
(0 0 0)
(0 0 0)
(0 0 0)
(0 0 0)
(0 0 0)
(0 0 0)
(0 0 0)
(0 0 0)
(0 0 2.22332e-14)
(0 0 0)
(0 0 -1.25194e-15)
(0 0 0)
(0 0 0)
(0 0 2.22332e-14)
(0 0 0)
(0 0 0)
(-1.40164e-21 0 0)
(0 0 0)
(0 0 0)
(0 0 0)
(0 0 0)
(0 0 0)
(0 0 0)
(0 0 0)
(0 0 0)
(0 0 0)
(0 0 -3.38252e-14)
(0 0 -1.11284e-14)
(0 0 -3.1785e-14)
(0 0 0)
(0 0 -1.59987e-14)
(0 0 -4.87603e-14)
(0 0 -1.64158e-14)
(0 0 -3.36866e-14)
(0 0 0)
(0 0 0)
(0 0 0)
(0 0 0)
(0 0 0)
(0 0 0)
(0 0 -1.9011e-15)
(0 0 -1.94746e-15)
(0 0 0)
(0 0 0)
(0 0 0)
(0 0 -1.99383e-15)
(0 0 -1.99383e-15)
(0 0 0)
(0 0 0)
(0 0 0)
(0 0 -1.94746e-15)
(0 0 -1.85473e-15)
(0 0 0)
(0 0 0)
(0 0 0)
(0 0 0)
(0 0 0)
(0 0 0)
(0 0 2.22332e-14)
(0 0 0)
(0 0 0)
(0 0 0)
(0 0 0)
(0 0 2.22332e-14)
(0 0 0)
(0 0 0)
(-1.59663e-22 0 0)
(0 0 0)
(0 0 0)
(0 0 0)
(0 0 -1.65763e-14)
(0 0 2.10276e-14)
(0 0 1.23685e-14)
(0 0 6.49155e-16)
(0 0 2.22332e-14)
(0 0 1.23685e-14)
(0 0 -3.89493e-15)
(0 0 7.3144e-15)
(0 0 0)
(0 0 2.22214e-14)
(0 0 -3.2157e-14)
(0 0 -2.03108e-14)
(0 0 8.14903e-15)
(0 0 0)
(0 0 2.22214e-14)
(0 0 -1.59735e-14)
(0 0 0)
(0 0 0)
(0 0 -2.29751e-14)
(0 0 -8.67085e-15)
(0 0 -3.32688e-14)
(0 0 -3.34543e-14)
(0 0 -8.20717e-15)
(0 0 -2.52471e-14)
(0 0 -9.45911e-15)
(0 0 -3.35934e-14)
(0 0 -3.3547e-14)
(0 0 -8.25354e-15)
(0 0 -2.52471e-14)
(0 0 -9.41274e-15)
(0 0 -3.35007e-14)
(0 0 -3.31297e-14)
(0 0 -7.32618e-15)
(0 0 -2.26505e-14)
(0 0 0)
(0 0 0)
(0 0 0)
(0 0 0)
(0 0 4.17314e-15)
(0 0 0)
(0 0 0)
(0 0 0)
(0 0 0)
(0 0 4.12677e-15)
(0 0 0)
(0 0 0)
(-1.71916e-35 0 0)