/*--------------------------------*- C++ -*----------------------------------*\
  =========                 |
  \\      /  F ield         | OpenFOAM: The Open Source CFD Toolbox
   \\    /   O peration     | Website:  https://openfoam.org
    \\  /    A nd           | Version:  9
     \\/     M anipulation  |
\*---------------------------------------------------------------------------*/
FoamFile
{
    format      ascii;
    class       volVectorField;
    location    "0.005";
    object      rhoU;
}
// * * * * * * * * * * * * * * * * * * * * * * * * * * * * * * * * * * * * * //

dimensions      [1 -2 -1 0 0 0 0];

internalField   nonuniform List<vector> 
62500
(
(0 0 0)
(-6.31911e-20 0 0)
(-6.93918e-22 0 0)
(1.12931e-51 0 0)
(7.12776e-75 0 0)
(-4.17289e-84 0 0)
(0 0 0)
(0 0 0)
(0 0 0)
(0 0 0)
(0 0 0)
(0 0 0)
(0 0 0)
(0 0 0)
(0 0 0)
(0 0 0)
(0 0 0)
(0 0 0)
(0 0 0)
(0 0 0)
(0 0 0)
(0 0 0)
(0 0 0)
(0 0 0)
(0 0 0)
(0 0 0)
(0 0 0)
(0 0 0)
(0 0 0)
(0 0 0)
(0 0 0)
(0 0 0)
(0 0 0)
(0 0 0)
(0 0 0)
(0 0 0)
(0 0 0)
(0 0 0)
(0 0 0)
(0 0 0)
(0 0 0)
(0 0 0)
(0 0 0)
(0 0 0)
(0 0 0)
(0 0 0)
(0 0 0)
(0 0 0)
(0 0 0)
(0 0 0)
(0 0 0)
(-1.11533e-19 0 0)
(-1.45286e-21 0 0)
(-5.19867e-58 1.11797e-54 0)
(-1.36847e-75 1.00931e-53 0)
(-1.00437e-82 4.31446e-37 0)
(0 -1.60783e-17 0)
(0 0 0)
(0 3.24503e-37 0)
(0 -1.74444e-17 0)
(0 0 0)
(0 0 8.50573e-15)
(0 0 0)
(0 0 8.50573e-15)
(0 -5.9304e-22 0)
(0 0 0)
(0 0 8.50573e-15)
(0 0 0)
(0 0 1.02666e-14)
(0 -6.3416e-20 0)
(0 0 -2.21804e-14)
(0 1.3895e-31 2.06467e-14)
(0 2.50145e-32 0)
(0 1.8952e-32 0)
(0 2.2813e-31 2.27486e-14)
(0 0 -2.04195e-14)
(0 0 0)
(0 -2.74437e-39 0)
(0 6.26359e-48 0)
(0 4.08093e-32 2.27486e-14)
(0 0 -2.04195e-14)
(0 0 0)
(0 1.41055e-32 0)
(0 -9.65309e-50 0)
(0 2.30377e-31 2.27486e-14)
(0 0 -2.04195e-14)
(0 0 0)
(0 1.91848e-32 0)
(0 -1.09215e-44 0)
(0 -2.64686e-14 2.66113e-14)
(0 -2.15026e-40 0)
(0 6.85071e-59 0)
(0 -2.37626e-40 0)
(0 -4.19692e-28 0)
(0 -1.6456e-40 0)
(0 -3.07193e-40 0)
(0 2.56332e-50 0)
(0 -2.3783e-40 0)
(0 -4.19692e-28 0)
(0 -1.64982e-40 0)
(0 0 0)
(-1.04982e-19 0 0)
(-1.2487e-21 0 0)
(6.40592e-57 4.88902e-62 0)
(-4.30776e-73 5.56545e-55 0)
(6.62631e-82 3.2761e-64 0)
(0 -2.65669e-18 0)
(0 0 0)
(0 0 0)
(0 -3.15266e-18 0)
(0 0 0)
(0 0 0)
(0 0 0)
(0 0 0)
(0 0 0)
(0 0 0)
(0 0 0)
(0 0 0)
(0 0 0)
(0 0 0)
(0 0 0)
(0 -1.64526e-40 0)
(0 -1.0939e-43 0)
(0 -4.75454e-46 0)
(0 -1.3725e-40 0)
(0 0 0)
(0 0 0)
(0 0 0)
(0 0 0)
(0 -1.3725e-40 0)
(0 0 0)
(0 0 0)
(0 0 0)
(0 0 0)
(0 -1.3725e-40 0)
(0 0 0)
(0 0 0)
(0 0 0)
(0 0 0)
(0 -2.56121e-14 0)
(0 0 0)
(0 0 0)
(0 0 0)
(0 0 0)
(0 0 0)
(0 0 0)
(0 0 0)
(0 0 0)
(0 0 0)
(0 0 0)
(0 0 0)
(-5.57142e-20 0 0)
(-5.00786e-22 0 0)
(-3.42915e-56 -1.72426e-84 0)
(-7.27539e-72 -6.90899e-69 8.50573e-15)
(-2.81363e-85 -2.49746e-91 0)
(0 -9.14639e-21 0)
(0 0 0)
(0 0 -1.03802e-14)
(0 -1.56227e-20 0)
(0 0 0)
(0 0 0)
(0 0 0)
(0 0 0)
(0 0 0)
(0 0 -5.6801e-17)
(0 0 0)
(0 0 0)
(0 0 0)
(0 0 0)
(0 0 -1.53367e-15)
(0 -4.89049e-40 -3.2377e-15)
(0 -9.73949e-48 0)
(0 4.24797e-43 -8.40791e-15)
(0 8.95765e-34 -1.61343e-14)
(0 0 -1.34643e-14)
(0 0 -7.15812e-15)
(0 0 0)
(0 0 -8.40791e-15)
(0 9.00185e-34 -1.61343e-14)
(0 0 -1.34643e-14)
(0 0 -7.15812e-15)
(0 0 0)
(0 0 -8.40791e-15)
(0 9.00185e-34 -1.61343e-14)
(0 0 -1.34643e-14)
(0 0 -7.04447e-15)
(0 0 0)
(0 0 -2.38569e-15)
(0 -8.94235e-15 -2.10168e-15)
(0 0 0)
(0 0 0)
(0 0 0)
(0 0 0)
(0 0 0)
(0 0 0)
(0 0 0)
(0 0 0)
(0 0 0)
(0 0 0)
(0 0 0)
(-2.8358e-20 0 0)
(-1.59439e-22 0 0)
(-3.18999e-55 0 -8.50573e-15)
(-1.05808e-74 0 0)
(-1.256e-82 0 0)
(0 0 0)
(0 0 0)
(0 0 0)
(0 -4.79683e-29 0)
(0 0 0)
(0 0 0)
(0 0 0)
(0 0 0)
(0 0 0)
(0 0 -3.55854e-14)
(0 0 -7.95215e-16)
(0 0 0)
(0 0 0)
(0 0 0)
(0 0 -3.67215e-14)
(0 -1.07194e-41 -4.17768e-14)
(0 -5.6868e-50 -1.28372e-14)
(0 5.49805e-52 -5.13218e-14)
(0 -6.36982e-36 -6.11512e-14)
(0 0 -6.11512e-14)
(0 0 -5.08105e-14)
(0 0 -1.31213e-14)
(0 0 -5.14354e-14)
(0 -6.40782e-36 -6.11512e-14)
(0 0 -6.11512e-14)
(0 0 -5.08105e-14)
(0 0 -1.31213e-14)
(0 0 -5.14354e-14)
(0 -6.40782e-36 -6.11512e-14)
(0 0 -6.11512e-14)
(0 0 -5.05265e-14)
(0 0 -1.23828e-14)
(0 0 -4.12089e-14)
(0 -1.12628e-41 -3.92217e-14)
(0 0 -8.52439e-16)
(0 0 0)
(0 0 0)
(0 0 0)
(0 0 0)
(0 0 0)
(0 0 0)
(0 0 0)
(0 0 0)
(0 0 0)
(0 0 0)
(-3.42041e-20 0 0)
(-2.34907e-22 0 0)
(-9.74412e-55 0 0)
(1.5599e-74 0 0)
(-2.40122e-79 0 0)
(0 0 2.67812e-14)
(0 0 5.05529e-15)
(0 0 2.72356e-14)
(0 0 2.72356e-14)
(0 0 0)
(0 0 0)
(0 0 0)
(0 0 0)
(0 0 2.5134e-14)
(0 0 -3.85391e-14)
(0 0 -1.47683e-15)
(0 0 0)
(0 0 0)
(0 0 2.72356e-14)
(0 0 0)
(0 1.65087e-49 -2.55609e-15)
(0 0 0)
(0 0 -7.49897e-15)
(0 2.3539e-49 -1.26122e-14)
(0 0 -1.25554e-14)
(0 0 -7.38536e-15)
(0 0 0)
(0 0 -7.55577e-15)
(0 -3.14378e-49 -1.26122e-14)
(0 0 -1.25554e-14)
(0 0 -7.38536e-15)
(0 0 0)
(0 0 -7.55577e-15)
(0 -3.14262e-49 -1.26122e-14)
(0 0 -1.25554e-14)
(0 0 -7.27168e-15)
(0 0 0)
(0 0 -2.44253e-15)
(0 1.58642e-49 -2.49958e-15)
(0 0 0)
(0 0 2.03059e-14)
(0 0 0)
(0 0 0)
(0 0 0)
(0 0 0)
(0 0 2.03059e-14)
(0 0 0)
(0 0 0)
(0 0 0)
(0 0 0)
(-3.85321e-20 0 0)
(-4.06217e-22 0 0)
(-4.34381e-54 0 0)
(-1.07918e-73 0 0)
(-9.81224e-78 0 -2.67812e-14)
(0 0 0)
(0 0 0)
(0 0 -2.01355e-14)
(0 0 0)
(0 0 0)
(0 0 0)
(0 0 0)
(0 0 0)
(0 0 2.64404e-14)
(0 0 -2.93941e-14)
(0 0 0)
(0 0 0)
(0 0 0)
(0 0 2.72356e-14)
(0 0 0)
(0 0 0)
(0 0 0)
(0 0 0)
(0 0 0)
(0 0 0)
(0 0 0)
(0 0 0)
(0 0 0)
(0 0 0)
(0 0 0)
(0 0 0)
(0 0 0)
(0 0 0)
(0 0 0)
(0 0 0)
(0 0 0)
(0 0 0)
(0 0 0)
(0 0 0)
(0 0 0)
(0 0 -2.57588e-14)
(0 0 0)
(0 0 0)
(0 0 0)
(0 0 0)
(0 0 -2.57588e-14)
(0 0 0)
(0 0 0)
(0 0 0)
(0 0 0)
(-1.5029e-20 0 0)
(-1.34599e-22 0 0)
(-1.64761e-53 0 0)
(-1.5683e-73 0 0)
(-3.63582e-76 0 -5.05529e-15)
(0 0 0)
(0 0 0)
(0 0 0)
(0 0 0)
(0 0 0)
(0 0 0)
(0 0 0)
(0 0 0)
(0 0 3.91927e-15)
(0 0 -3.46486e-15)
(0 0 0)
(0 0 0)
(0 0 0)
(0 0 5.1689e-15)
(0 0 0)
(0 0 0)
(0 0 0)
(0 0 0)
(0 0 0)
(0 0 0)
(0 0 0)
(0 0 0)
(0 0 0)
(0 0 0)
(0 0 0)
(0 0 0)
(0 0 0)
(0 0 0)
(0 0 0)
(0 0 0)
(0 0 0)
(0 0 0)
(0 0 0)
(0 0 0)
(0 0 0)
(0 0 -1.56627e-14)
(0 0 0)
(0 0 0)
(0 0 0)
(0 0 0)
(0 0 -1.56627e-14)
(0 0 0)
(0 0 0)
(0 0 0)
(0 0 0)
(-1.91193e-21 0 0)
(-1.43734e-23 0 0)
(-2.5158e-55 0 1.03802e-14)
(1.14666e-72 0 0)
(-4.83144e-75 0 -2.72356e-14)
(0 0 2.01355e-14)
(0 0 0)
(0 0 0)
(0 0 2.55316e-14)
(0 0 0)
(0 0 0)
(0 0 0)
(0 0 0)
(0 0 2.64972e-14)
(0 0 -2.63268e-14)
(0 0 0)
(0 0 0)
(0 0 0)
(0 0 2.72356e-14)
(0 0 0)
(0 0 0)
(0 0 0)
(0 0 0)
(0 0 0)
(0 0 0)
(0 0 0)
(0 0 0)
(0 0 0)
(0 0 0)
(0 0 0)
(0 0 0)
(0 0 0)
(0 0 0)
(0 0 0)
(0 0 0)
(0 0 0)
(0 0 0)
(0 0 0)
(0 0 0)
(0 0 0)
(0 0 -2.72645e-15)
(0 0 0)
(0 0 2.60996e-14)
(0 0 0)
(0 0 0)
(0 0 -2.72645e-15)
(0 0 0)
(0 0 2.60996e-14)
(0 0 0)
(0 0 0)
(-8.38206e-21 0 0)
(-1.05142e-39 0 0)
(3.09435e-58 0 0)
(3.70891e-73 0 0)
(-2.34377e-75 0 -2.72356e-14)
(0 0 0)
(0 0 0)
(0 0 -2.55316e-14)
(0 0 0)
(0 0 0)
(0 0 0)
(0 0 0)
(0 0 0)
(0 0 2.5702e-14)
(0 0 -2.5702e-14)
(0 0 0)
(0 0 0)
(0 0 0)
(0 0 2.72356e-14)
(0 0 0)
(0 0 0)
(0 0 0)
(0 0 0)
(0 0 0)
(0 0 0)
(0 0 0)
(0 0 0)
(0 0 0)
(0 0 0)
(0 0 0)
(0 0 0)
(0 0 0)
(0 0 0)
(0 0 0)
(0 0 0)
(0 0 0)
(0 0 0)
(0 0 0)
(0 0 0)
(0 0 0)
(0 0 -3.23477e-14)
(0 0 0)
(0 0 0)
(0 0 0)
(0 0 0)
(0 0 -3.23477e-14)
(0 0 0)
(0 0 0)
(0 0 0)
(0 0 0)
(-1.19393e-19 0 0)
(-4.23708e-39 0 0)
(-5.23214e-57 0 0)
(-6.19173e-74 0 0)
(-2.91466e-85 0 0)
(0 0 0)
(0 0 0)
(0 0 0)
(0 0 0)
(0 0 0)
(0 0 0)
(0 0 0)
(0 0 0)
(0 0 0)
(0 0 0)
(0 0 0)
(0 0 0)
(0 0 0)
(0 0 0)
(0 0 0)
(0 0 0)
(0 0 0)
(0 0 0)
(0 0 0)
(0 0 0)
(0 0 0)
(0 0 0)
(0 0 0)
(0 0 0)
(0 0 0)
(0 0 0)
(0 0 0)
(0 0 0)
(0 0 0)
(0 0 0)
(0 0 0)
(0 0 0)
(0 0 0)
(0 0 0)
(0 0 0)
(0 0 -1.64011e-14)
(0 0 0)
(0 0 0)
(0 0 0)
(0 0 0)
(0 0 -1.64011e-14)
(0 0 0)
(0 0 0)
(0 0 0)
(0 0 0)
(-3.81353e-19 0 -8.50573e-15)
(-4.83074e-38 0 0)
(9.40847e-57 0 0)
(-2.30077e-73 0 0)
(-6.33505e-85 0 0)
(0 0 0)
(0 0 0)
(0 0 0)
(0 0 0)
(0 0 0)
(0 0 0)
(0 0 0)
(0 0 0)
(0 0 0)
(0 0 0)
(0 0 0)
(0 0 0)
(0 0 0)
(0 0 0)
(0 0 -2.05899e-14)
(0 0 2.72356e-14)
(0 0 2.71788e-14)
(0 0 3.63527e-15)
(0 0 2.12147e-14)
(0 0 -2.40548e-14)
(0 0 0)
(0 0 2.71788e-14)
(0 0 3.63527e-15)
(0 0 2.11579e-14)
(0 0 -2.40548e-14)
(0 0 0)
(0 0 2.71788e-14)
(0 0 3.63527e-15)
(0 0 2.11579e-14)
(0 0 -2.40548e-14)
(0 0 0)
(0 0 2.71788e-14)
(0 0 5.1689e-15)
(0 0 2.72356e-14)
(0 0 2.71788e-14)
(0 0 9.08817e-16)
(0 0 2.71788e-14)
(0 0 5.1689e-15)
(0 0 2.71788e-14)
(0 0 2.71788e-14)
(0 0 9.08817e-16)
(0 0 2.71788e-14)
(0 0 5.1689e-15)
(0 0 2.71788e-14)
(0 0 0)
(-5.78465e-19 0 0)
(-2.61305e-37 0 0)
(-1.34199e-55 0 0)
(-1.05159e-72 0 0)
(2.97735e-87 0 0)
(0 0 0)
(0 0 0)
(0 0 0)
(0 0 0)
(0 0 0)
(0 0 0)
(0 0 0)
(0 0 0)
(0 0 0)
(0 0 0)
(0 0 0)
(0 0 0)
(0 0 0)
(0 0 0)
(0 0 -5.6801e-16)
(0 0 6.70252e-15)
(0 0 6.87293e-15)
(0 0 0)
(0 0 3.01046e-15)
(0 0 -2.61285e-15)
(0 0 0)
(0 0 5.5665e-15)
(0 0 0)
(0 0 2.95365e-15)
(0 0 -2.66965e-15)
(0 0 0)
(0 0 5.5665e-15)
(0 0 0)
(0 0 2.95365e-15)
(0 0 -2.66965e-15)
(0 0 0)
(0 0 5.5665e-15)
(0 0 0)
(0 0 6.75932e-15)
(0 0 4.60088e-15)
(0 0 -9.01694e-15)
(0 0 2.61285e-15)
(0 0 0)
(0 0 6.75932e-15)
(0 0 4.60088e-15)
(0 0 -8.96014e-15)
(0 0 2.61285e-15)
(0 0 0)
(0 0 6.87293e-15)
(0 0 0)
(-1.0626e-18 0 -8.50573e-15)
(-1.67732e-36 0 0)
(-1.18291e-57 0 0)
(-8.74852e-72 0 0)
(1.22398e-86 0 0)
(0 0 0)
(0 0 0)
(0 0 0)
(0 0 0)
(0 0 0)
(0 0 0)
(0 0 0)
(0 0 0)
(0 0 0)
(0 0 0)
(0 0 0)
(0 0 0)
(0 0 0)
(0 0 0)
(0 0 -1.85451e-14)
(0 0 2.72356e-14)
(0 0 2.71788e-14)
(0 0 9.20177e-15)
(0 0 2.72356e-14)
(0 0 -2.11011e-14)
(0 0 0)
(0 0 2.72356e-14)
(0 0 9.03137e-15)
(0 0 2.72356e-14)
(0 0 -2.11011e-14)
(0 0 0)
(0 0 2.72356e-14)
(0 0 9.03137e-15)
(0 0 2.72356e-14)
(0 0 -2.11011e-14)
(0 0 0)
(0 0 2.72356e-14)
(0 0 9.14497e-15)
(0 0 2.72356e-14)
(0 0 2.71788e-14)
(0 0 0)
(0 0 2.60996e-14)
(0 0 0)
(0 0 2.71788e-14)
(0 0 2.71788e-14)
(0 0 0)
(0 0 2.60996e-14)
(0 0 0)
(0 0 2.71788e-14)
(0 0 0)
(-2.20797e-19 0 0)
(9.80484e-37 0 0)
(2.1241e-57 0 0)
(-6.20231e-73 0 0)
(-3.82709e-87 0 -2.53044e-14)
(0 0 -2.64404e-14)
(0 0 -3.86247e-15)
(0 0 -2.64972e-14)
(0 0 -2.5702e-14)
(0 0 0)
(0 0 0)
(0 0 0)
(0 0 0)
(0 0 0)
(0 0 8.50573e-15)
(0 0 0)
(0 0 0)
(0 0 0)
(0 0 0)
(0 0 6.8585e-15)
(0 0 1.79347e-14)
(0 0 6.19131e-15)
(0 0 1.62875e-14)
(0 0 2.00931e-14)
(0 0 8.61933e-15)
(0 0 8.78973e-15)
(0 0 3.57847e-15)
(0 0 1.54923e-14)
(0 0 2.00363e-14)
(0 0 8.61933e-15)
(0 0 8.78973e-15)
(0 0 3.57847e-15)
(0 0 1.54923e-14)
(0 0 2.00363e-14)
(0 0 8.61933e-15)
(0 0 8.78973e-15)
(0 0 3.57847e-15)
(0 0 1.60603e-14)
(0 0 2.19108e-14)
(0 0 0)
(0 0 -4.00583e-14)
(0 0 -1.93124e-15)
(0 0 -2.72924e-14)
(0 0 0)
(0 0 0)
(0 0 -3.62526e-14)
(0 0 -7.38414e-16)
(0 0 -2.70084e-14)
(0 0 0)
(0 0 0)
(-8.34006e-19 0 0)
(7.27654e-35 0 0)
(1.8154e-56 0 0)
(4.72829e-72 0 2.72356e-14)
(-1.08435e-87 0 2.72356e-14)
(0 0 2.66108e-14)
(0 0 3.69207e-15)
(0 0 2.63836e-14)
(0 0 2.5702e-14)
(0 0 0)
(0 0 0)
(0 0 0)
(0 0 0)
(0 0 -8.50573e-15)
(0 0 0)
(0 0 0)
(0 0 0)
(0 0 0)
(0 0 -1.48106e-14)
(0 0 -2.13428e-14)
(0 0 -6.8585e-15)
(0 0 0)
(0 0 -8.50573e-15)
(0 0 -8.56253e-15)
(0 0 -1.92979e-14)
(0 0 -1.11754e-14)
(0 0 0)
(0 0 -8.50573e-15)
(0 0 -8.56253e-15)
(0 0 -1.92979e-14)
(0 0 -1.11754e-14)
(0 0 0)
(0 0 -8.50573e-15)
(0 0 -8.56253e-15)
(0 0 -1.92979e-14)
(0 0 -1.11754e-14)
(0 0 0)
(0 0 -8.50573e-15)
(0 0 -7.82412e-15)
(0 0 3.01046e-15)
(0 0 2.59292e-14)
(0 0 4.71449e-15)
(0 0 0)
(0 0 0)
(0 0 4.71449e-15)
(0 0 2.55884e-14)
(0 0 4.65769e-15)
(0 0 0)
(0 0 0)
(0 0 0)
(-2.25825e-18 0 -8.50573e-15)
(6.08191e-34 0 0)
(3.02697e-54 0 0)
(1.15488e-71 0 0)
(9.96599e-89 0 0)
(0 0 0)
(0 0 0)
(0 0 0)
(0 0 0)
(0 0 0)
(0 0 0)
(0 0 0)
(0 0 0)
(0 0 0)
(0 0 0)
(0 0 0)
(0 0 0)
(0 0 0)
(0 0 -2.04484e-15)
(0 0 -2.72356e-14)
(0 0 2.56452e-14)
(0 0 2.71788e-14)
(0 0 8.52016e-16)
(0 0 1.84315e-14)
(0 0 -2.72356e-14)
(0 0 0)
(0 0 2.71788e-14)
(0 0 8.52016e-16)
(0 0 1.84315e-14)
(0 0 -2.72356e-14)
(0 0 0)
(0 0 2.71788e-14)
(0 0 8.52016e-16)
(0 0 1.84315e-14)
(0 0 -2.72356e-14)
(0 0 0)
(0 0 2.71788e-14)
(0 0 3.01046e-15)
(0 0 2.72356e-14)
(0 0 2.71788e-14)
(0 0 9.14497e-15)
(0 0 2.71788e-14)
(0 0 6.47532e-15)
(0 0 2.71788e-14)
(0 0 2.71788e-14)
(0 0 9.03137e-15)
(0 0 2.71788e-14)
(0 0 6.47532e-15)
(0 0 2.71788e-14)
(0 0 0)
(-7.48425e-18 0 0)
(-9.74761e-31 0 0)
(3.63464e-53 0 0)
(0 0 0)
(0 0 0)
(0 0 0)
(0 0 0)
(0 0 0)
(0 0 0)
(0 0 0)
(0 0 0)
(0 0 0)
(0 0 0)
(0 0 0)
(0 0 0)
(0 0 0)
(0 0 0)
(0 0 0)
(0 0 0)
(0 0 -1.59043e-15)
(0 0 6.13451e-15)
(0 0 6.81613e-15)
(0 0 0)
(0 0 2.04484e-15)
(0 0 -3.63527e-15)
(0 0 0)
(0 0 5.6801e-15)
(0 0 0)
(0 0 2.04484e-15)
(0 0 -3.63527e-15)
(0 0 0)
(0 0 5.6801e-15)
(0 0 0)
(0 0 2.04484e-15)
(0 0 -3.63527e-15)
(0 0 0)
(0 0 5.6801e-15)
(0 0 0)
(0 0 6.75932e-15)
(0 0 4.37368e-15)
(0 0 -9.98256e-15)
(0 0 2.32884e-15)
(0 0 0)
(0 0 6.75932e-15)
(0 0 4.37368e-15)
(0 0 -9.98256e-15)
(0 0 2.32884e-15)
(0 0 0)
(0 0 6.87293e-15)
(0 0 0)
(-2.18123e-17 0 -1.02666e-14)
(-1.59548e-26 0 0)
(3.49522e-52 0 0)
(0 0 0)
(0 0 -1.07922e-15)
(0 0 -2.04484e-15)
(0 0 0)
(0 0 -2.15844e-15)
(0 0 -1.42003e-15)
(0 0 0)
(0 0 0)
(0 0 0)
(0 0 0)
(0 0 0)
(0 0 0)
(0 0 0)
(0 0 0)
(0 0 0)
(0 0 0)
(0 0 -1.84883e-14)
(0 0 2.72356e-14)
(0 0 2.71788e-14)
(0 0 1.0281e-14)
(0 0 2.72356e-14)
(0 0 -2.07603e-14)
(0 0 0)
(0 0 2.72356e-14)
(0 0 1.01106e-14)
(0 0 2.72356e-14)
(0 0 -2.07603e-14)
(0 0 0)
(0 0 2.72356e-14)
(0 0 1.01106e-14)
(0 0 2.72356e-14)
(0 0 -2.07603e-14)
(0 0 0)
(0 0 2.72356e-14)
(0 0 1.01674e-14)
(0 0 2.72356e-14)
(0 0 2.71788e-14)
(0 0 0)
(0 0 2.5986e-14)
(0 0 0)
(0 0 2.71788e-14)
(0 0 2.71788e-14)
(0 0 0)
(0 0 2.5986e-14)
(0 0 0)
(0 0 2.71788e-14)
(0 0 0)
(-1.23441e-16 0 0)
(-7.98575e-23 0 0)
(0 0 0)
(0 0 0)
(0 0 -3.61534e-14)
(0 0 -4.05271e-14)
(0 0 -1.18146e-14)
(0 0 -4.06975e-14)
(0 0 -3.73462e-14)
(0 0 -1.13602e-16)
(0 0 0)
(0 0 0)
(0 0 0)
(0 0 0)
(0 0 1.48106e-14)
(0 0 2.04484e-15)
(0 0 0)
(0 0 0)
(0 0 0)
(0 0 9.13054e-15)
(0 0 2.08884e-14)
(0 0 8.00895e-15)
(0 0 2.04339e-14)
(0 0 2.43532e-14)
(0 0 1.2709e-14)
(0 0 1.31066e-14)
(0 0 5.73691e-15)
(0 0 1.98091e-14)
(0 0 2.42964e-14)
(0 0 1.2709e-14)
(0 0 1.31066e-14)
(0 0 5.73691e-15)
(0 0 1.98091e-14)
(0 0 2.42964e-14)
(0 0 1.2709e-14)
(0 0 1.31066e-14)
(0 0 5.73691e-15)
(0 0 2.00363e-14)
(0 0 2.5262e-14)
(0 0 0)
(0 0 -4.23871e-14)
(0 0 -2.44244e-15)
(0 0 -2.72356e-14)
(0 0 0)
(0 0 0)
(0 0 -3.80702e-14)
(0 0 -1.30642e-15)
(0 0 -2.69516e-14)
(0 0 0)
(0 0 0)
(-3.99625e-16 0 2.21804e-14)
(-5.10112e-20 0 0)
(0 0 0)
(0 0 2.72356e-14)
(0 0 0)
(0 0 -2.15844e-15)
(0 0 0)
(0 0 -2.27204e-15)
(0 0 -1.87443e-15)
(0 0 0)
(0 0 2.26348e-14)
(0 0 1.47683e-15)
(0 0 2.14419e-14)
(0 0 -6.8585e-15)
(0 0 2.13428e-14)
(0 0 2.72356e-14)
(0 0 2.66965e-15)
(0 0 2.12148e-14)
(0 0 -9.30094e-15)
(0 0 0)
(0 0 0)
(0 0 0)
(0 0 0)
(0 0 0)
(0 0 0)
(0 0 0)
(0 0 0)
(0 0 0)
(0 0 0)
(0 0 0)
(0 0 0)
(0 0 0)
(0 0 0)
(0 0 0)
(0 0 0)
(0 0 0)
(0 0 0)
(0 0 0)
(0 0 0)
(0 0 0)
(0 0 1.86587e-14)
(0 0 0)
(0 0 -4.43048e-15)
(0 0 0)
(0 0 0)
(0 0 1.88859e-14)
(0 0 0)
(0 0 -4.37368e-15)
(0 0 0)
(0 0 0)
(-9.77901e-16 0 -2.03627e-14)
(-5.52556e-18 0 0)
(0 0 0)
(0 0 2.72356e-14)
(0 0 0)
(0 0 0)
(0 0 0)
(0 0 0)
(0 0 0)
(0 0 0)
(0 0 -2.72356e-14)
(0 0 -9.82658e-15)
(0 0 -2.72356e-14)
(0 0 -2.00931e-14)
(0 0 6.8585e-15)
(0 0 -2.72356e-14)
(0 0 -9.20181e-15)
(0 0 -2.72356e-14)
(0 0 -2.32172e-14)
(0 0 0)
(0 0 0)
(0 0 0)
(0 0 0)
(0 0 0)
(0 0 0)
(0 0 0)
(0 0 0)
(0 0 0)
(0 0 0)
(0 0 0)
(0 0 0)
(0 0 0)
(0 0 0)
(0 0 0)
(0 0 0)
(0 0 0)
(0 0 0)
(0 0 0)
(0 0 0)
(0 0 0)
(0 0 0)
(0 0 0)
(0 0 -2.08739e-14)
(0 0 0)
(0 0 0)
(0 0 0)
(0 0 0)
(0 0 -2.08739e-14)
(0 0 0)
(0 0 0)
(-2.27228e-15 0 0)
(-1.36354e-16 0 0)
(0 0 0)
(0 0 5.1689e-15)
(0 0 0)
(0 0 0)
(0 0 0)
(0 0 0)
(0 0 0)
(0 0 -2.55605e-15)
(0 0 -4.40488e-14)
(0 0 -2.0278e-14)
(0 0 -5.20009e-14)
(0 0 -1.44843e-14)
(0 0 -1.70446e-16)
(0 0 -4.09816e-14)
(0 0 -1.89149e-14)
(0 0 -5.26828e-14)
(0 0 -1.6586e-14)
(0 0 0)
(0 0 0)
(0 0 0)
(0 0 0)
(0 0 0)
(0 0 0)
(0 0 0)
(0 0 0)
(0 0 0)
(0 0 0)
(0 0 0)
(0 0 0)
(0 0 0)
(0 0 0)
(0 0 0)
(0 0 0)
(0 0 0)
(0 0 0)
(0 0 0)
(0 0 0)
(0 0 0)
(0 0 0)
(0 0 0)
(0 0 2.36004e-14)
(0 0 0)
(0 0 0)
(0 0 0)
(0 0 0)
(0 0 2.36004e-14)
(0 0 0)
(0 0 0)
(-8.14414e-15 0 0)
(-1.00744e-15 0 0)
(0 0 0)
(0 0 2.72356e-14)
(0 0 0)
(0 0 0)
(0 0 0)
(0 0 0)
(0 0 0)
(0 0 0)
(0 0 -9.20177e-15)
(0 0 -3.74887e-15)
(0 0 -1.72675e-14)
(0 0 -1.99795e-14)
(0 0 8.50573e-15)
(0 0 -4.60093e-15)
(0 0 -1.30651e-15)
(0 0 -1.79492e-14)
(0 0 -2.45237e-14)
(0 0 0)
(0 0 0)
(0 0 0)
(0 0 0)
(0 0 0)
(0 0 0)
(0 0 0)
(0 0 0)
(0 0 0)
(0 0 0)
(0 0 0)
(0 0 0)
(0 0 0)
(0 0 0)
(0 0 0)
(0 0 0)
(0 0 0)
(0 0 0)
(0 0 0)
(0 0 0)
(0 0 0)
(0 0 2.7122e-14)
(0 0 0)
(0 0 0)
(0 0 0)
(0 0 0)
(0 0 2.7122e-14)
(0 0 0)
(0 0 0)
(0 0 0)
(0 0 0)
(-1.26232e-14 0 -2.08743e-14)
(-2.77501e-15 0 0)
(0 0 0)
(0 0 2.72356e-14)
(0 0 0)
(0 0 0)
(0 0 0)
(0 0 0)
(0 0 0)
(0 0 0)
(0 0 -2.28052e-14)
(0 0 -4.31688e-15)
(0 0 -2.72356e-14)
(0 0 -2.04339e-14)
(0 0 8.56253e-15)
(0 0 -1.84315e-14)
(0 0 -2.32884e-15)
(0 0 -2.72356e-14)
(0 0 -2.47508e-14)
(0 0 0)
(0 0 0)
(0 0 0)
(0 0 0)
(0 0 0)
(0 0 0)
(0 0 0)
(0 0 0)
(0 0 0)
(0 0 0)
(0 0 0)
(0 0 0)
(0 0 0)
(0 0 0)
(0 0 0)
(0 0 0)
(0 0 0)
(0 0 0)
(0 0 0)
(0 0 0)
(0 0 0)
(0 0 6.47532e-15)
(0 0 0)
(0 0 -3.01325e-14)
(0 0 0)
(0 0 0)
(0 0 6.47532e-15)
(0 0 0)
(0 0 -3.01325e-14)
(0 0 0)
(0 0 0)
(-1.37296e-14 0 2.06469e-14)
(-3.63605e-15 0 0)
(0 0 0)
(0 0 2.72356e-14)
(0 0 0)
(0 0 0)
(0 0 0)
(0 0 0)
(0 0 0)
(0 0 0)
(0 0 2.42252e-14)
(0 0 2.61285e-15)
(0 0 2.11011e-14)
(0 0 -8.61933e-15)
(0 0 1.92979e-14)
(0 0 2.72356e-14)
(0 0 3.69207e-15)
(0 0 2.07603e-14)
(0 0 -1.30498e-14)
(0 0 0)
(0 0 0)
(0 0 0)
(0 0 0)
(0 0 0)
(0 0 0)
(0 0 0)
(0 0 0)
(0 0 0)
(0 0 0)
(0 0 0)
(0 0 0)
(0 0 0)
(0 0 0)
(0 0 0)
(0 0 0)
(0 0 0)
(0 0 0)
(0 0 0)
(0 0 0)
(0 0 0)
(0 0 2.71788e-14)
(0 0 0)
(0 0 0)
(0 0 0)
(0 0 0)
(0 0 2.71788e-14)
(0 0 0)
(0 0 0)
(0 0 0)
(0 0 0)
(-4.05382e-16 0 0)
(-7.49635e-18 0 0)
(0 0 0)
(0 0 2.72356e-14)
(0 0 0)
(0 0 0)
(0 0 0)
(0 0 0)
(0 0 0)
(0 0 0)
(0 0 0)
(0 0 0)
(0 0 0)
(0 0 -9.64175e-15)
(0 0 1.11754e-14)
(0 0 0)
(0 0 0)
(0 0 0)
(0 0 -1.41858e-14)
(0 0 0)
(0 0 0)
(0 0 0)
(0 0 0)
(0 0 0)
(0 0 0)
(0 0 0)
(0 0 0)
(0 0 0)
(0 0 0)
(0 0 0)
(0 0 0)
(0 0 0)
(0 0 0)
(0 0 0)
(0 0 0)
(0 0 0)
(0 0 0)
(0 0 0)
(0 0 0)
(0 0 0)
(0 0 2.71788e-14)
(0 0 0)
(0 0 0)
(0 0 0)
(0 0 0)
(0 0 2.71788e-14)
(0 0 0)
(0 0 0)
(0 0 0)
(0 0 0)
(-2.17551e-15 0 0)
(-1.3673e-16 0 0)
(0 0 0)
(0 0 5.1689e-15)
(0 0 0)
(0 0 0)
(0 0 0)
(0 0 0)
(0 0 0)
(0 0 0)
(0 0 -3.26317e-14)
(0 0 -9.54258e-15)
(0 0 -3.7403e-14)
(0 0 -6.92973e-15)
(0 0 0)
(0 0 -3.21773e-14)
(0 0 -9.99698e-15)
(0 0 -3.90503e-14)
(0 0 -9.71298e-15)
(0 0 0)
(0 0 0)
(0 0 0)
(0 0 0)
(0 0 0)
(0 0 0)
(0 0 0)
(0 0 0)
(0 0 0)
(0 0 0)
(0 0 0)
(0 0 0)
(0 0 0)
(0 0 0)
(0 0 0)
(0 0 0)
(0 0 0)
(0 0 0)
(0 0 0)
(0 0 0)
(0 0 0)
(0 0 5.1689e-15)
(0 0 0)
(0 0 2.72356e-14)
(0 0 0)
(0 0 0)
(0 0 5.1689e-15)
(0 0 0)
(0 0 2.72356e-14)
(0 0 0)
(0 0 0)
(-8.15436e-15 0 0)
(-1.00743e-15 0 0)
(0 0 0)
(0 0 2.72356e-14)
(0 0 0)
(0 0 0)
(0 0 0)
(0 0 0)
(0 0 0)
(0 0 0)
(0 0 -5.05529e-15)
(0 0 0)
(0 0 -1.19282e-14)
(0 0 -1.70259e-14)
(0 0 8.50573e-15)
(0 0 -2.04484e-15)
(0 0 0)
(0 0 -1.35186e-14)
(0 0 -2.17404e-14)
(0 0 0)
(0 0 0)
(0 0 0)
(0 0 0)
(0 0 0)
(0 0 0)
(0 0 0)
(0 0 0)
(0 0 0)
(0 0 0)
(0 0 0)
(0 0 0)
(0 0 0)
(0 0 0)
(0 0 0)
(0 0 0)
(0 0 0)
(0 0 0)
(0 0 0)
(0 0 0)
(0 0 0)
(0 0 2.71788e-14)
(0 0 0)
(0 0 0)
(0 0 0)
(0 0 0)
(0 0 2.71788e-14)
(0 0 0)
(0 0 0)
(0 0 0)
(0 0 0)
(-1.26239e-14 0 -2.08743e-14)
(-2.77474e-15 0 0)
(0 0 0)
(0 0 2.72356e-14)
(0 0 0)
(0 0 0)
(0 0 0)
(0 0 0)
(0 0 0)
(0 0 0)
(0 0 -2.14419e-14)
(0 0 -3.01046e-15)
(0 0 -2.72356e-14)
(0 0 -2.02067e-14)
(0 0 8.56253e-15)
(0 0 -1.84315e-14)
(0 0 -2.04484e-15)
(0 0 -2.72356e-14)
(0 0 -2.45804e-14)
(0 0 0)
(0 0 0)
(0 0 0)
(0 0 0)
(0 0 0)
(0 0 0)
(0 0 0)
(0 0 0)
(0 0 0)
(0 0 0)
(0 0 0)
(0 0 0)
(0 0 0)
(0 0 0)
(0 0 0)
(0 0 0)
(0 0 0)
(0 0 0)
(0 0 0)
(0 0 0)
(0 0 0)
(0 0 6.47532e-15)
(0 0 0)
(0 0 -3.04165e-14)
(0 0 0)
(0 0 0)
(0 0 6.47532e-15)
(0 0 0)
(0 0 -3.04165e-14)
(0 0 0)
(0 0 0)
(-1.37299e-14 0 2.06469e-14)
(-3.63559e-15 0 0)
(0 0 0)
(0 0 2.72356e-14)
(0 0 0)
(0 0 0)
(0 0 0)
(0 0 0)
(0 0 0)
(0 0 0)
(0 0 2.4282e-14)
(0 0 2.66965e-15)
(0 0 2.11011e-14)
(0 0 -8.61933e-15)
(0 0 1.92979e-14)
(0 0 2.72356e-14)
(0 0 3.69207e-15)
(0 0 2.07603e-14)
(0 0 -1.30498e-14)
(0 0 0)
(0 0 0)
(0 0 0)
(0 0 0)
(0 0 0)
(0 0 0)
(0 0 0)
(0 0 0)
(0 0 0)
(0 0 0)
(0 0 0)
(0 0 0)
(0 0 0)
(0 0 0)
(0 0 0)
(0 0 0)
(0 0 0)
(0 0 0)
(0 0 0)
(0 0 0)
(0 0 0)
(0 0 2.71788e-14)
(0 0 0)
(0 0 0)
(0 0 0)
(0 0 0)
(0 0 2.71788e-14)
(0 0 0)
(0 0 0)
(0 0 0)
(0 0 0)
(-4.05532e-16 0 0)
(-7.50207e-18 0 0)
(0 0 0)
(0 0 2.72356e-14)
(0 0 0)
(0 0 0)
(0 0 0)
(0 0 0)
(0 0 0)
(0 0 0)
(0 0 0)
(0 0 0)
(0 0 0)
(0 0 -9.64175e-15)
(0 0 1.11754e-14)
(0 0 0)
(0 0 0)
(0 0 0)
(0 0 -1.41858e-14)
(0 0 0)
(0 0 0)
(0 0 0)
(0 0 0)
(0 0 0)
(0 0 0)
(0 0 0)
(0 0 0)
(0 0 0)
(0 0 0)
(0 0 0)
(0 0 0)
(0 0 0)
(0 0 0)
(0 0 0)
(0 0 0)
(0 0 0)
(0 0 0)
(0 0 0)
(0 0 0)
(0 0 0)
(0 0 2.71788e-14)
(0 0 0)
(0 0 0)
(0 0 0)
(0 0 0)
(0 0 2.71788e-14)
(0 0 0)
(0 0 0)
(0 0 0)
(0 0 0)
(-2.17547e-15 0 0)
(-1.36912e-16 0 0)
(0 0 0)
(0 0 5.1689e-15)
(0 0 0)
(0 0 0)
(0 0 0)
(0 0 0)
(0 0 0)
(0 0 0)
(0 0 -3.26317e-14)
(0 0 -9.54258e-15)
(0 0 -3.7403e-14)
(0 0 -6.92973e-15)
(0 0 0)
(0 0 -3.21773e-14)
(0 0 -9.99698e-15)
(0 0 -3.90503e-14)
(0 0 -9.71298e-15)
(0 0 0)
(0 0 0)
(0 0 0)
(0 0 0)
(0 0 0)
(0 0 0)
(0 0 0)
(0 0 0)
(0 0 0)
(0 0 0)
(0 0 0)
(0 0 0)
(0 0 0)
(0 0 0)
(0 0 0)
(0 0 0)
(0 0 0)
(0 0 0)
(0 0 0)
(0 0 0)
(0 0 0)
(0 0 5.1689e-15)
(0 0 0)
(0 0 2.72356e-14)
(0 0 0)
(0 0 0)
(0 0 5.1689e-15)
(0 0 0)
(0 0 2.72356e-14)
(0 0 0)
(0 0 0)
(-8.14066e-15 0 0)
(-1.0086e-15 0 0)
(0 0 0)
(0 0 2.72356e-14)
(0 0 0)
(0 0 0)
(0 0 0)
(0 0 0)
(0 0 0)
(0 0 0)
(0 0 -5.05529e-15)
(0 0 0)
(0 0 -1.19282e-14)
(0 0 -1.70259e-14)
(0 0 8.50573e-15)
(0 0 -2.04484e-15)
(0 0 0)
(0 0 -1.35186e-14)
(0 0 -2.17404e-14)
(0 0 0)
(0 0 0)
(0 0 0)
(0 0 0)
(0 0 0)
(0 0 0)
(0 0 0)
(0 0 0)
(0 0 0)
(0 0 0)
(0 0 0)
(0 0 0)
(0 0 0)
(0 0 0)
(0 0 0)
(0 0 0)
(0 0 0)
(0 0 0)
(0 0 0)
(0 0 0)
(0 0 0)
(0 0 2.71788e-14)
(0 0 0)
(0 0 0)
(0 0 0)
(0 0 0)
(0 0 2.71788e-14)
(0 0 0)
(0 0 0)
(0 0 0)
(0 0 0)
(-1.25791e-14 0 -2.08743e-14)
(-2.77514e-15 0 0)
(0 0 0)
(0 0 2.72356e-14)
(0 0 0)
(0 0 0)
(0 0 0)
(0 0 0)
(0 0 0)
(0 0 0)
(0 0 -2.14419e-14)
(0 0 -3.01046e-15)
(0 0 -2.72356e-14)
(0 0 -2.02067e-14)
(0 0 8.56253e-15)
(0 0 -1.84315e-14)
(0 0 -2.04484e-15)
(0 0 -2.72356e-14)
(0 0 -2.45804e-14)
(0 0 0)
(0 0 0)
(0 0 0)
(0 0 0)
(0 0 0)
(0 0 0)
(0 0 0)
(0 0 0)
(0 0 0)
(0 0 0)
(0 0 0)
(0 0 0)
(0 0 0)
(0 0 0)
(0 0 0)
(0 0 0)
(0 0 0)
(0 0 0)
(0 0 0)
(0 0 0)
(0 0 0)
(0 0 6.47532e-15)
(0 0 0)
(0 0 -3.04165e-14)
(0 0 0)
(0 0 0)
(0 0 6.47532e-15)
(0 0 0)
(0 0 -3.04165e-14)
(0 0 0)
(0 0 0)
(-1.3595e-14 0 2.06469e-14)
(-3.63058e-15 0 0)
(0 0 0)
(0 0 2.72356e-14)
(0 0 0)
(0 0 0)
(0 0 0)
(0 0 0)
(0 0 0)
(0 0 0)
(0 0 2.4282e-14)
(0 0 2.66965e-15)
(0 0 2.11011e-14)
(0 0 -8.61933e-15)
(0 0 1.92979e-14)
(0 0 2.72356e-14)
(0 0 3.69207e-15)
(0 0 2.07603e-14)
(0 0 -1.30498e-14)
(0 0 0)
(0 0 0)
(0 0 0)
(0 0 0)
(0 0 0)
(0 0 0)
(0 0 0)
(0 0 0)
(0 0 0)
(0 0 0)
(0 0 0)
(0 0 0)
(0 0 0)
(0 0 0)
(0 0 0)
(0 0 0)
(0 0 0)
(0 0 0)
(0 0 0)
(0 0 0)
(0 0 0)
(0 0 2.71788e-14)
(0 0 0)
(0 0 0)
(0 0 0)
(0 0 0)
(0 0 2.71788e-14)
(0 0 0)
(0 0 0)
(0 0 0)
(0 0 0)
(-1.54126e-17 0 0)
(0 0 0)
(0 0 0)
(0 0 2.72356e-14)
(0 0 0)
(0 0 0)
(0 0 0)
(0 0 0)
(0 0 0)
(0 0 0)
(0 0 0)
(0 0 0)
(0 0 0)
(0 0 -9.58495e-15)
(0 0 1.11754e-14)
(0 0 0)
(0 0 0)
(0 0 0)
(0 0 -1.41858e-14)
(0 0 0)
(0 0 0)
(0 0 0)
(0 0 0)
(0 0 0)
(0 0 0)
(0 0 0)
(0 0 0)
(0 0 0)
(0 0 0)
(0 0 0)
(0 0 0)
(0 0 0)
(0 0 0)
(0 0 0)
(0 0 0)
(0 0 0)
(0 0 0)
(0 0 0)
(0 0 0)
(0 0 0)
(0 0 2.71788e-14)
(0 0 0)
(0 0 0)
(0 0 0)
(0 0 0)
(0 0 2.71788e-14)
(0 0 0)
(0 0 0)
(0 0 0)
(0 0 0)
(-5.33487e-18 0 0)
(0 0 0)
(0 0 0)
(0 0 5.1689e-15)
(0 0 0)
(0 0 0)
(0 0 0)
(0 0 0)
(0 0 0)
(0 0 0)
(0 0 -3.26885e-14)
(0 0 -9.54258e-15)
(0 0 -3.71758e-14)
(0 0 -6.75932e-15)
(0 0 0)
(0 0 -3.24613e-14)
(0 0 -1.00538e-14)
(0 0 -3.89935e-14)
(0 0 -9.59938e-15)
(0 0 0)
(0 0 0)
(0 0 0)
(0 0 0)
(0 0 0)
(0 0 0)
(0 0 0)
(0 0 0)
(0 0 0)
(0 0 0)
(0 0 0)
(0 0 0)
(0 0 0)
(0 0 0)
(0 0 0)
(0 0 0)
(0 0 0)
(0 0 0)
(0 0 0)
(0 0 0)
(0 0 0)
(0 0 5.05529e-15)
(0 0 0)
(0 0 2.72356e-14)
(0 0 0)
(0 0 0)
(0 0 5.05529e-15)
(0 0 0)
(0 0 2.72356e-14)
(0 0 0)
(0 0 0)
(-2.22516e-18 0 0)
(0 0 0)
(0 0 0)
(0 0 2.72356e-14)
(0 0 0)
(0 0 0)
(0 0 0)
(0 0 0)
(0 0 0)
(0 0 0)
(0 0 -5.2825e-15)
(0 0 0)
(0 0 -1.13602e-14)
(0 0 -1.74803e-14)
(0 0 8.50573e-15)
(0 0 -3.06726e-15)
(0 0 0)
(0 0 -1.35186e-14)
(0 0 -2.21948e-14)
(0 0 0)
(0 0 0)
(0 0 0)
(0 0 0)
(0 0 0)
(0 0 0)
(0 0 0)
(0 0 0)
(0 0 0)
(0 0 0)
(0 0 0)
(0 0 0)
(0 0 0)
(0 0 0)
(0 0 0)
(0 0 0)
(0 0 0)
(0 0 0)
(0 0 0)
(0 0 0)
(0 0 0)
(0 0 2.67812e-14)
(0 0 0)
(0 0 0)
(0 0 0)
(0 0 0)
(0 0 2.67812e-14)
(0 0 0)
(0 0 0)
(0 0 0)
(0 0 0)
(-1.52687e-18 0 -2.55316e-14)
(0 0 0)
(0 0 0)
(0 0 2.72356e-14)
(0 0 0)
(0 0 0)
(0 0 0)
(0 0 0)
(0 0 0)
(0 0 0)
(0 0 -2.72356e-14)
(0 0 -8.40655e-15)
(0 0 -2.97349e-14)
(0 0 -2.23084e-14)
(0 0 7.82412e-15)
(0 0 -2.72356e-14)
(0 0 -9.82658e-15)
(0 0 -3.17229e-14)
(0 0 -2.63413e-14)
(0 0 0)
(0 0 0)
(0 0 0)
(0 0 0)
(0 0 0)
(0 0 0)
(0 0 0)
(0 0 0)
(0 0 0)
(0 0 0)
(0 0 0)
(0 0 0)
(0 0 0)
(0 0 0)
(0 0 0)
(0 0 0)
(0 0 0)
(0 0 0)
(0 0 0)
(0 0 0)
(0 0 0)
(0 0 0)
(0 0 0)
(0 0 -2.34868e-14)
(0 0 0)
(0 0 0)
(0 0 0)
(0 0 0)
(0 0 -2.34868e-14)
(0 0 0)
(0 0 0)
(-8.3182e-23 0 0)
(0 0 0)
(0 0 0)
(0 0 0)
(0 0 0)
(0 0 0)
(0 0 0)
(0 0 0)
(0 0 0)
(0 0 0)
(0 0 -3.78006e-14)
(0 0 -1.04514e-14)
(0 0 -3.68918e-14)
(0 0 -2.27204e-16)
(0 0 -1.13034e-14)
(0 0 -4.89904e-14)
(0 0 -1.41435e-14)
(0 0 -3.87095e-14)
(0 0 -9.65618e-16)
(0 0 0)
(0 0 0)
(0 0 0)
(0 0 0)
(0 0 0)
(0 0 -2.32884e-15)
(0 0 -2.38564e-15)
(0 0 0)
(0 0 0)
(0 0 0)
(0 0 -2.44244e-15)
(0 0 -2.44244e-15)
(0 0 0)
(0 0 0)
(0 0 0)
(0 0 -2.38564e-15)
(0 0 -2.27204e-15)
(0 0 0)
(0 0 0)
(0 0 0)
(0 0 0)
(0 0 0)
(0 0 0)
(0 0 2.07603e-14)
(0 0 0)
(0 0 0)
(0 0 0)
(0 0 0)
(0 0 2.07603e-14)
(0 0 0)
(0 0 0)
(-2.37737e-23 0 0)
(0 0 0)
(0 0 0)
(0 0 0)
(0 0 -2.03059e-14)
(0 0 2.57588e-14)
(0 0 1.51515e-14)
(0 0 7.95215e-16)
(0 0 2.72356e-14)
(0 0 1.51515e-14)
(0 0 -4.31688e-15)
(0 0 9.01694e-15)
(0 0 0)
(0 0 2.72212e-14)
(0 0 -3.70622e-14)
(0 0 -2.12436e-14)
(0 0 9.98256e-15)
(0 0 0)
(0 0 2.72212e-14)
(0 0 -1.95675e-14)
(0 0 0)
(0 0 0)
(0 0 -2.81445e-14)
(0 0 -1.06218e-14)
(0 0 -4.07543e-14)
(0 0 -4.09815e-14)
(0 0 -1.00538e-14)
(0 0 -3.09277e-14)
(0 0 -1.15874e-14)
(0 0 -4.11519e-14)
(0 0 -4.10951e-14)
(0 0 -1.01106e-14)
(0 0 -3.09277e-14)
(0 0 -1.15306e-14)
(0 0 -4.10383e-14)
(0 0 -4.05839e-14)
(0 0 -8.97457e-15)
(0 0 -2.77469e-14)
(0 0 0)
(0 0 0)
(0 0 0)
(0 0 0)
(0 0 3.40806e-15)
(0 0 0)
(0 0 0)
(0 0 0)
(0 0 0)
(0 0 3.29446e-15)
(0 0 0)
(0 0 0)
(-6.5256e-23 0 0)
(0 0 0)
(0 0 0)
(0 0 0)
(0 0 0)
(0 0 0)
(0 0 0)
(0 0 0)
(0 0 0)
(0 0 0)
(0 0 -3.00189e-14)
(0 0 -3.46486e-15)
(0 0 -2.67244e-14)
(0 0 0)
(0 0 -1.15307e-14)
(0 0 -4.2856e-14)
(0 0 -8.34988e-15)
(0 0 -2.85422e-14)
(0 0 0)
(0 0 0)
(0 0 0)
(0 0 0)
(0 0 0)
(0 0 0)
(0 0 -2.55605e-15)
(0 0 -3.29446e-15)
(0 0 -2.27204e-15)
(0 0 0)
(0 0 0)
(0 0 -2.66965e-15)
(0 0 -3.35126e-15)
(0 0 -2.32884e-15)
(0 0 0)
(0 0 0)
(0 0 -2.55605e-15)
(0 0 -3.06726e-15)
(0 0 -1.87443e-15)
(0 0 0)
(0 0 0)
(0 0 0)
(0 0 0)
(0 0 0)
(0 0 2.67244e-14)
(0 0 0)
(0 0 -1.53363e-15)
(0 0 0)
(0 0 0)
(0 0 2.63268e-14)
(0 0 0)
(0 0 0)
(-6.24891e-23 0 0)
(0 0 0)
(0 0 0)
(0 0 0)
(0 0 0)
(0 0 0)
(0 0 0)
(0 0 -2.5702e-14)
(0 0 0)
(0 0 0)
(0 0 -1.03378e-14)
(0 0 0)
(0 0 -1.47683e-15)
(0 0 2.71788e-14)
(0 0 0)
(0 0 -1.99372e-14)
(0 0 -5.85089e-15)
(0 0 -3.80588e-15)
(0 0 2.6554e-14)
(0 0 4.26008e-15)
(0 0 2.08739e-14)
(0 0 -2.343e-14)
(0 0 0)
(0 0 2.71788e-14)
(0 0 0)
(0 0 0)
(0 0 -2.96213e-14)
(0 0 0)
(0 0 2.71788e-14)
(0 0 0)
(0 0 0)
(0 0 -2.96213e-14)
(0 0 0)
(0 0 2.71788e-14)
(0 0 0)
(0 0 0)
(0 0 -2.92237e-14)
(0 0 0)
(0 0 2.36004e-14)
(0 0 -2.07603e-14)
(0 0 -3.29446e-15)
(0 0 -2.63268e-14)
(0 0 0)
(0 0 -3.5131e-14)
(0 0 -3.85959e-14)
(0 0 -8.06575e-15)
(0 0 -2.75197e-14)
(0 0 0)
(0 0 -3.3995e-14)
(0 0 0)
(-4.01155e-23 0 0)
(0 0 0)
(0 0 0)
(0 0 0)
(0 0 0)
(0 0 0)
(0 0 0)
(0 0 0)
(0 0 0)
(0 0 -3.57847e-15)
(0 0 -4.52984e-14)
(0 0 -1.70403e-14)
(0 0 -4.01863e-14)
(0 0 0)
(0 0 -8.40749e-15)
(0 0 -5.5127e-14)
(0 0 -2.32326e-14)
(0 0 -4.29699e-14)
(0 0 0)
(0 0 0)
(0 0 0)
(0 0 0)
(0 0 0)
(0 0 0)
(0 0 0)
(0 0 0)
(0 0 0)
(0 0 0)
(0 0 0)
(0 0 0)
(0 0 0)
(0 0 0)
(0 0 0)
(0 0 0)
(0 0 0)
(0 0 0)
(0 0 0)
(0 0 0)
(0 0 0)
(0 0 0)
(0 0 0)
(0 0 0)
(0 0 2.72356e-14)
(0 0 0)
(0 0 -1.53363e-15)
(0 0 0)
(0 0 0)
(0 0 2.72356e-14)
(0 0 0)
(0 0 0)
(-1.54776e-23 0 0)
(0 0 0)
(0 0 0)
(0 0 0)
(0 0 0)
(0 0 0)
(0 0 0)
(0 0 0)
(0 0 0)
(0 0 0)
(0 0 -4.14359e-14)
(0 0 -1.36323e-14)
(0 0 -3.89367e-14)
(0 0 0)
(0 0 -1.95984e-14)
(0 0 -5.97314e-14)
(0 0 -2.01093e-14)
(0 0 -4.12661e-14)
(0 0 0)
(0 0 0)
(0 0 0)
(0 0 0)
(0 0 0)
(0 0 0)
(0 0 -2.32884e-15)
(0 0 -2.38564e-15)
(0 0 0)
(0 0 0)
(0 0 0)
(0 0 -2.44244e-15)
(0 0 -2.44244e-15)
(0 0 0)
(0 0 0)
(0 0 0)
(0 0 -2.38564e-15)
(0 0 -2.27204e-15)
(0 0 0)
(0 0 0)
(0 0 0)
(0 0 0)
(0 0 0)
(0 0 0)
(0 0 2.72356e-14)
(0 0 0)
(0 0 0)
(0 0 0)
(0 0 0)
(0 0 2.72356e-14)
(0 0 0)
(0 0 0)
(-2.52324e-24 0 0)
(0 0 0)
(0 0 0)
(0 0 0)
(0 0 -2.03059e-14)
(0 0 2.57588e-14)
(0 0 1.51515e-14)
(0 0 7.95215e-16)
(0 0 2.72356e-14)
(0 0 1.51515e-14)
(0 0 -4.77129e-15)
(0 0 8.96014e-15)
(0 0 0)
(0 0 2.72212e-14)
(0 0 -3.93923e-14)
(0 0 -2.48808e-14)
(0 0 9.98256e-15)
(0 0 0)
(0 0 2.72212e-14)
(0 0 -1.95675e-14)
(0 0 0)
(0 0 0)
(0 0 -2.81445e-14)
(0 0 -1.06218e-14)
(0 0 -4.07543e-14)
(0 0 -4.09815e-14)
(0 0 -1.00538e-14)
(0 0 -3.09277e-14)
(0 0 -1.15874e-14)
(0 0 -4.11519e-14)
(0 0 -4.10951e-14)
(0 0 -1.01106e-14)
(0 0 -3.09277e-14)
(0 0 -1.15306e-14)
(0 0 -4.10383e-14)
(0 0 -4.05839e-14)
(0 0 -8.97457e-15)
(0 0 -2.77469e-14)
(0 0 0)
(0 0 0)
(0 0 0)
(0 0 0)
(0 0 5.11209e-15)
(0 0 0)
(0 0 0)
(0 0 0)
(0 0 0)
(0 0 5.05529e-15)
(0 0 0)
(0 0 0)
(-6.13503e-37 0 0)
(0 0 0)
(0 0 0)
(0 0 0)
(0 0 0)
(0 0 0)
(0 0 0)
(0 0 0)
(0 0 0)
(0 0 0)
(0 0 -3.01893e-14)
(0 0 -3.52166e-15)
(0 0 -2.67812e-14)
(0 0 0)
(0 0 -1.24399e-14)
(0 0 -4.43337e-14)
(0 0 -8.6909e-15)
(0 0 -2.8599e-14)
(0 0 0)
(0 0 0)
(0 0 0)
(0 0 0)
(0 0 0)
(0 0 0)
(0 0 -2.55605e-15)
(0 0 -3.29446e-15)
(0 0 -2.27204e-15)
(0 0 0)
(0 0 0)
(0 0 -2.66965e-15)
(0 0 -3.35126e-15)
(0 0 -2.32884e-15)
(0 0 0)
(0 0 0)
(0 0 -2.55605e-15)
(0 0 -3.06726e-15)