/*--------------------------------*- C++ -*----------------------------------*\
  =========                 |
  \\      /  F ield         | OpenFOAM: The Open Source CFD Toolbox
   \\    /   O peration     | Website:  https://openfoam.org
    \\  /    A nd           | Version:  9
     \\/     M anipulation  |
\*---------------------------------------------------------------------------*/
FoamFile
{
    format      ascii;
    class       volScalarField;
    location    "0.0095";
    object      p;
}
// * * * * * * * * * * * * * * * * * * * * * * * * * * * * * * * * * * * * * //

dimensions      [1 -1 -2 0 0 0 0];

internalField   nonuniform List<scalar> 
9720
(
624506
500746
268234
155199
177519
206701
205886
173900
133055
97801.3
75747.4
64269.5
59364.5
61642.8
66374.1
73083.6
82454.3
97393
116581
166632
504492
199860
93093.3
92042.1
165016
199576
199075
159049
98920.3
55756.6
35658.9
29460.5
30240.4
33281.8
39405.5
47089.5
55654.6
67766.3
82621.6
124208
274159
92222.5
79158.5
76297.6
158715
198975
198116
153365
74592
34040.5
21376.1
22047.7
24950.3
29521.2
35342.3
41034.6
46024.4
52135.2
59536.9
86811.9
154732
90313.4
75460.2
59038.1
115541
197526
210825
177541
68721.6
14403
15391.2
17319.6
19587.9
21955.3
24317
26725.5
29181.5
32083.4
35009.2
44952.7
170308
157470
151738
115390
11663.1
24667
26850
27999.1
28547.6
29111.3
29897.2
30880
31911.3
33119.2
34402.2
38828.9
197464
190888
190820
189542
35994
37258.7
36481.6
35817.3
35410.2
35173.2
35156.8
35342
35740.6
36366.2
37072.8
38697.2
196135
190231
189949
202720
40246.2
37672.8
37068.8
36499
36037.1
35664.3
35413.5
35379.2
35491.7
35775.7
36050.6
36925.6
165175
151125
145767
169816
33135.7
23879.8
25067.7
25852.7
26533.1
27082.2
27632.5
28297.7
28943.4
29582.9
30191.8
31659.6
125741
92832.1
69225.3
60512.5
11665.1
33837.8
37886.7
30609.9
3033.54
5216.32
8609.77
11722.1
14283.5
16551.1
18395.2
19999.2
21461.5
22803.6
24051.9
26508.3
92321.9
51698.4
31167.6
13456.7
23664
35436.7
35617.9
22478.1
5455.83
1991.56
2646.27
4237.78
6521.92
9005.34
11364.8
13466.2
15242.9
17158
18849.2
21798.7
71754.9
33449.3
19878
14489.4
25390.5
34534.4
34887.4
23733.7
8834.77
2733.32
1545.91
1856.95
2840.16
4517.27
6453.18
8353.54
10394.2
12546.3
14281.3
17366.6
60898.1
28020.4
21017.2
16469
26269.6
33859.8
34300.8
24528.6
11823.2
4438.6
1892.87
1371.75
1522.45
2115.89
3205.08
4831.54
6722.01
8609.78
10322.9
13438.9
56371.2
28935.3
24353.4
18808.5
26862
33386.2
33904.2
25205.4
14182.5
6778.5
2929.76
1522.52
1335.18
1434.19
1900.89
2920.19
4266.08
5895.22
7444.65
10370.1
58573.8
31973.2
28841.5
21203.4
27538.9
33134.2
33533.4
25769
16334.8
9264.44
4653.81
2129.46
1432.65
1491.94
1734.06
2242.52
3058.97
4192.24
5397.46
8034.73
63210.4
37871.3
33946.4
23518
28388.4
33195.5
33427.3
26378.1
18227.6
11585.7
6626.46
3254.25
1905.77
1738.4
1855.15
2100.2
2457.08
3110.95
4064.86
6320.59
69750.4
45287.1
39082.7
25849.3
29356.1
33466.6
33477.7
27123.3
19896.8
13668.7
8577.11
4947.46
2960.91
2276.52
2124.71
2169.38
2298.3
2713.91
3379.14
5097.78
78617.7
53414.5
44158
28241.1
30378.8
33973.6
33662.9
27835.8
21344.2
15466.6
10658.3
6945.62
4391.71
3156.01
2568.36
2341.96
2400.05
2634.67
2926.18
4163.98
92737.7
64741.2
50370
31168.2
31656.7
34716.8
34068.8
28559.7
22699.4
17408
12864.4
8965.32
6125.92
4399.25
3345.84
2855.48
2694.43
2710.3
2830.44
3680.08
111033
78470
57554.5
34102.6
33056.4
35516.2
34477.1
29261.2
23969.1
19105.5
14669.8
10751.3
7777.09
5722.18
4389.34
3643.72
3143.63
2912.26
2992.68
3675.74
159178
117913
83241.4
44067.3
37745.7
37334.4
35607.9
30936.6
26470.9
22089.2
17806.7
13890.3
10824.4
8507.78
6818.27
5627.63
4693.53
4120.8
3901.75
4209.85
628352
477622
247836
149271
178684
207592
206679
174169
132480
96707.5
73946.2
62395.2
57178.7
59319.7
64029.2
70783.8
79874.7
94237.8
112696
161960
483534
178535
90507.2
91071.1
168264
201175
200152
159382
97679
54974
34360
27889.9
28406.9
31117.5
37095
44913
53274.6
64672.2
78671.5
118775
254403
89029.1
76626.7
75420.9
162388
200827
199176
153394
72931.8
33101
20434.6
20797.5
23077.7
27133.5
32779.2
38782.7
43777.1
49396.9
56013.4
81075.3
148074
88208
72514.1
56956.3
124886
197140
210340
177247
69886.4
13812.4
14643.2
16425.5
18575.5
20783.1
22919.6
25063.8
27307.7
29958.8
32642
41536.2
168781
156313
149341
109355
11783.9
23633.5
25780.6
26978.5
27466.9
27914.2
28597.6
29493.6
30430.2
31492.1
32641.5
36553.3
196498
190318
190499
188445
34573.7
36091.5
35336.2
34659.6
34212.5
33914.6
33856.2
33981.8
34309.7
34857.3
35503.6
36975.3
195325
189877
189822
201237
38657.9
36484.7
35873.6
35309
34850.2
34409
34029.6
33986.6
34091.5
34371.3
34604.3
35329.4
164439
151072
145842
169090
31867.8
22962.7
24187.6
24997.9
25557.7
25969
26429.1
27141.7
27878.4
28422.8
28844.5
30105.5
124742
91897.3
68235.5
62167
12120
33420.3
37436.9
30126.5
3235.51
5123.09
8320.91
11132.4
13471.6
15654.5
17702.6
19345.1
20574.8
21592.2
22647.8
25087.9
90973.7
51265.8
30727.9
13252.7
23057.8
35036.7
35214.9
22091.9
5441.95
1879.07
2428.83
3856.83
6114.15
8630.32
10871.4
12731
14200.1
15861
17649.2
20664.5
69365.1
32187.7
19138.3
14164
25043.9
34301.8
34641.1
23499.7
8682.26
2516.37
1429.12
1787.79
2766.98
4290.08
5976.33
7594.67
9395.8
11641.8
13523.6
16418.5
58401.6
26238.6
19790.2
15946.7
26162
33697.2
34157.1
24423.6
11505.1
4092.46
1827.3
1347.44
1473.04
1931.56
2806.97
4198.19
6104.59
8151.74
9804.07
12529
53647.3
26835.5
22364.7
18133.1
26746.6
33286.5
33811.9
25025.9
13750
6489.56
2902.38
1491.51
1174.41
1224.04
1604.43
2577.71
3962.63
5529.77
6881.7
9435.76
55797.3
29503
26320.7
20396.8
27283.4
33001.5
33471.5
25471.2
15889.3
9106.24
4540.59
1999.35
1230.76
1271.19
1516.39
2023.15
2791.06
3796.89
4777.68
7133.95
60490.8
35269.8
31468
22549.7
28005.4
32991.5
33192.1
26014.5
18017.9
11404.8
6325.93
2942.2
1639.9
1528.27
1656.58
1849.3
2123.72
2604.92
3390.23
5539.61
67183.5
42890.7
37110.4
24681.9
28879.6
33180.4
33207.6
26845.3
19762.8
13273.3
8022.38
4422.54
2666.57
2075.73
1887.25
1873.56
1917.03
2217.34
2860.67
4528.28
75916.1
50954.2
42238.3
26888.8
29793.8
33578.6
33359.2
27658
20981
14755.1
9893.99
6451.7
4161.67
2921.04
2244.45
1960.79
1995.19
2271.7
2618.81
3772.15
89569.1
61676.6
47925.5
29510.9
30883.5
34179.2
33699.9
28232.5
21996.8
16479.7
12239.7
8665.76
5860.79
4040.36
2832.88
2344.55
2323.68
2411.98
2566.01
3345.2
107020
74651
54261.8
32175.1
32084.9
34849.3
34012.8
28708.4
23093.4
18325.9
14227.3
10420.4
7320.28
5131.75
3713.43
3098.95
2794.11
2632
2704.67
3301.42
153912
112629
77776.3
40941.5
36089.5
36403.2
34896.3
30114.6
25620.9
21425.3
17216.9
13211.4
10014.9
7670.89
6058.57
5017.17
4211.49
3694.47
3484.63
3770.96
657134
459284
226399
147294
178765
207260
206171
173347
131761
96188.2
72879.9
61312.3
55906.3
58106.8
62971.2
69729.3
78721.6
92647.5
111051
161138
464287
153233
88446.3
93570.2
168549
200670
199526
158025
96485.9
54617.5
33688.7
27000.2
27449.5
29975.9
35881.8
43999.4
52498.9
63402.4
76987.3
117205
230283
86034
74618.7
75940.2
161159
200222
198662
151769
71221.5
32493.4
20493.2
20405.5
22042
25541.2
31100.2
38049.8
43671.4
48916.2
54745.5
77827.2
140025
86386.7
70603.1
54409.2
125899
197743
210280
176636
67475.3
13455.8
14334.3
16141.3
18208.4
20297.4
22364.4
24354.6
26436.6
28902.2
31389.4
39307.3
166769
155170
147587
106762
10946.8
23083.3
25028
26552.8
27180.3
27487.9
27995.6
28769.8
29699.6
30727.9
31818.2
35334.8
194896
188844
189180
188142
34006.6
35756.4
34959.8
34238
33766.4
33474.8
33423.2
33534.1
33835.2
34358.8
35029.3
36539.7
194750
189100
188627
200197
38162.3
36166.9
35478.3
34875
34430
34029.3
33621.3
33577.2
33679.6
33970.5
34263
35025.7
163690
150572
145383
168165
31313.9
22615.8
23883.9
24759.8
25221.3
25577.1
26015.8
26744.9
27554.9
28129.3
28515
29717.2
123808
91748.8
68699.6
64394.2
10620
33135.5
37122.3
29994.3
3073.11
5155.31
8261.64
10933.2
13190.6
15230.9
17350.8
19109.8
20234
21178
22155.9
24561.6
90011.4
51336
30577.4
12681.9
22506
34873.7
35034.6
21648.4
5160.45
1721.86
2250.02
3591.98
5785.57
8347.25
10578.2
12257.9
13667.7
15238.7
17053.1
20161.8
67455.1
31311.7
18859.8
13505.5
24308.6
34085.1
34396.9
23083.4
8270.71
2291.84
1297.83
1655.41
2628.51
4054.2
5600.49
7135.3
8828.04
11103.3
13088
15921.5
56274.4
24816.6
18936.7
15208.2
25711.1
33373.7
33849.7
24059.6
10990
3727.88
1688.08
1296.52
1400.17
1794.62
2588.75
3840.95
5671.53
7822.42
9409.07
12013.2
51370.6
25331.7
20645.7
17264.3
26377
32922.3
33497.8
24588.8
13266.8
6029.6
2741.85
1426.31
1108.24
1134.58
1459.98
2354.62
3717.72
5193.31
6473.09
8971.62
53576.9
27759.4
24014.4
19372.1
26731
32637.3
33181.5
24984.4
15308.6
8692.31
4282.56
1883.53
1147.07
1168.74
1374.22
1821.72
2491.8
3432.7
4402.79
6689.17
58482.1
33334.4
29193.9
21492.3
27240.1
32590.1
32824.1
25493.8
17497.9
11011.8
5941.98
2763.19
1515.35
1386.78
1487.87
1617.42
1852.79
2321.93
3049.48
5141.2
65261.8
41194.5
35743.2
23523.6
28012.2
32715.3
32818.8
26348.1
19356.1
12762.1
7589.39
4120.83
2488.44
1877.02
1634.3
1633.91
1713.67
2001.43
2613.62
4227.32
74107.8
49474.9
41410.7
25624.2
28948
33039.6
32986.9
27246.4
20528.9
14215.9
9388.87
6094.1
3971.29
2618.39
1918.98
1742.55
1790.54
2090.97
2464.14
3548.35
87415.3
59846.5
46707.3
28066.7
29987.4
33580.5
33350
27869.1
21518
15879.1
11773.7
8386.61
5565.78
3647.45
2476.65
2092.29
2145.48
2276.42
2426.37
3163.46
104673
72569.2
52329.6
30498.1
31079.5
34261.6
33704.6
28323.5
22557.9
17754.2
13837.6
10088.9
6957.29
4739.97
3308.89
2800.05
2606.03
2475.43
2546.3
3116.04
151994
110703
73986.9
38187.9
34556.8
35843.8
34620.1
29681
25079.2
20986.1
16845.4
12854.6
9656.26
7263.77
5632.83
4658.07
3914.9
3443.98
3271.42
3551.67
676013
438870
207486
147172
178675
207242
205984
172465
130367
94861.2
71229.9
59868.3
54426.9
56552.1
61778.8
68842.6
78319
92106.3
110436
161470
443922
131893
86301.9
95592.1
167042
200281
199447
157330
95166.6
53253.5
32689.8
25909.6
26502.7
28746.7
34576.6
43094.3
52149.3
62877.3
76073.8
116554
208504
84121.7
73919.9
75151.8
157465
199820
198701
151399
70064.3
30971.9
20170.8
19886.5
21185.2
24023.2
29163.5
36763.5
43845.1
49200.5
54397.1
75338.7
134662
86708.8
71326.4
54117.1
118174
197735
210511
176466
63332.6
12810.6
13704.9
15601.6
17636.9
19645.1
21782.6
23887.6
25952.1
28335.2
30581.2
37405.2
165578
155472
148280
113302
11407.8
23003.2
24703.2
26310.1
27274.6
27566
27879.9
28456.1
29335.6
30393.8
31380.6
34300.7
193805
188285
188658
186889
33751.3
35724.8
35019.6
34298.5
33784.5
33452.1
33378
33439.5
33641.5
34041.9
34613.7
35993
194034
188198
187605
199420
38072.2
36208.7
35594.9
35024.6
34557
34163.5
33739.3
33543.4
33595.2
33788.8
34031.2
34713.6
162656
149281
143947
167292
31278
22434
23712.8
24652.7
25144.7
25511.5
25957.3
26607.6
27326.9
27861.4
28252.1
29374
123215
90774.1
67009.1
61127.6
11506.6
33123.3
37146.4
30009.1
2973.57
4940.92
8021.3
10635.5
12969.7
15029
17028.8
18810
20000.9
21010.7
21993.1
24172.6
89859.4
50769.3
29347.5
12186.3
22464.2
34901.9
35104.3
21612.5
5168.45
1627.73
2088.33
3374.17
5471.29
7956.92
10228
11902.8
13349.9
15010.1
16756.8
19744.6
66839.1
30959.9
18919.7
13110.4
24037.9
34112.8
34466.5
23040.5
8331.72
2186.56
1192.17
1495.63
2409.81
3782.79
5230.3
6758.92
8520.47
10775.7
12728.8
15548.8
55339.8
24094
18808.9
15015
25554.8
33371.8
33934.5
24052.6
10967.7
3600.79
1526.37
1214.75
1312.8
1651.01
2393.37
3638.09
5382.66
7515.98
9088.84
11684.1
50033.1
24566.8
20080.1
17048.5
26479.4
32875.7
33566.1
24611.3
13245.2
5796.54
2532.06
1344.11
1058.93
1080.56
1398.09
2226.96
3535.4
4949.82
6111.9
8633.28
52086.2
26767.6
22775.5
18974.9
26794.3
32575.6
33266
25019.7
15195.9
8350.49
4057.77
1769.51
1096.12
1122.51
1300.29
1699.63
2305.3
3091.53
4048.36
6397.24
57017.3
32144.4
27501.6
20999.7
27118.3
32513.9
32917.9
25534.5
17184.9
10740.8
5683.72
2617.56
1458.01
1313.74
1386.36
1462.45
1609.32
2045.97
2814.48
4902.94
63648.7
40035.8
34454.8
22997.7
27695
32621.5
32847.1
26286.1
19077.5
12518.3
7304.05
3954.22
2343.74
1751.37
1481.76
1440.3
1529.89
1868.75
2464.79
4054.2
72382.2
48346.1
41007
24944.4
28571.6
32865.7
32937.8
27111.6
20381.2
13956.8
9087.3
5753.71
3737.5
2436.28
1664.2
1540.64
1631.15
1987.49
2412.36
3481.41
85117.1
58015.2
45944.9
27173.3
29592
33295.2
33218.5
27759.6
21400.7
15570.7
11308.2
7966.97
5294.93
3317.54
2139.21
1905.17
2014.5
2239.38
2440.81
3151.69
101958
69888.9
50651
29279.2
30542.8
33885.4
33542.5
28227.8
22364.7
17272.5
13303.4
9672.19
6575.16
4347.42
2967.8
2542.69
2491.32
2470.88
2563.56
3131.3
149902
107355
69238.3
35688.9
33356.4
35357
34392.1
29466
24604
20390.3
16330.3
12440.8
9244.67
6842.72
5216.17
4303.5
3701.19
3328.46
3232.3
3519.74
690722
431749
197568
145522
178810
207584
206248
172030
129314
93775.8
69761.8
58579.6
53666.5
56023.6
61510.1
68953.9
79032.3
93003.7
111389
162917
438048
123386
84202.4
96475.1
167783
201188
199945
157219
94111.1
52127.2
31937.3
24962.4
25770.8
28199.9
33915.2
42516.3
52102.9
63198.7
76507.9
117679
199195
82249.6
72330.8
75690.2
158944
200721
199271
151646
68776.5
29587
19940
19632.1
20768.9
23112.6
27763.8
35357.6
43505.2
49350.4
54483.4
74589
133128
86090.7
69225.8
52666.3
119320
197594
211156
177050
63547.1
12315.5
13273.5
15306
17420.3
19320.8
21419.7
23587.5
25681.6
28101.2
30308
36652.2
164546
153978
145820
110041
10972.7
23015.6
24487.9
26025.5
27237.5
27646.8
27893.6
28376.8
29238.5
30365.9
31391.9
34142.9
192800
187730
188467
186421
33816
35784.5
35041.6
34316.2
33780
33420.1
33342.8
33421.7
33627.2
34011.9
34576.1
35971.2
193450
188017
187757
198995
38172.6
36358.9
35736.4
35169.2
34694.1
34301.1
33964.1
33671
33664.6
33818.9
34083.4
34822.2
161683
148518
143373
166945
31477.6
22428.3
23632.5
24545.4
25126.4
25556.3
26038.1
26635.6
27263.2
27849.6
28328.1
29454.9
122432
89691.5
65448.6
60020.2
10929.1
33096.3
37197.1
30007.6
2874.65
4825.51
7867.58
10564.2
12902.7
14999
16871.2
18561.4
19922.7
21095.6
22097.2
24096.6
89363.9
50079.7
28510.1
11871.5
22578.7
34918.3
35193.3
21651.5
5186.74
1612.88
2095.7
3360.76
5365.22
7733.79
9994.81
11871.8
13424.6
15047.8
16629.7
19527.9
66409.7
30591.9
18679.6
12831.1
24007.2
34184.1
34610.8
23002.2
8318.58
2213.32
1159.88
1410.84
2251.43
3648.37
5268.7
6845.63
8550.94
10591.3
12516.6
15505.6
54898.4
23751.1
18797.6
14864.8
25450.9
33461.1
34077.4
23985.3
10980.4
3605.81
1437.94
1177.76
1312.3
1744.62
2513.07
3696.75
5286.24
7295.25
9051.01
11842.5
49797.3
24347.5
19980.6
17006.9
26545.5
32917.8
33679.7
24689
13278
5724.11
2363.04
1338.84
1132.15
1147.69
1416.97
2158.73
3365.52
4913.25
6268.27
8793.21
51731.5
26518.8
22357.7
18817.4
26927.2
32582
33406.6
25238.2
15258.6
8148.38
3893.32
1840.48
1160
1145.13
1259.62
1623.37
2290.05
3251.18
4224.1
6486.51
56496.9
31773.6
26687
20751.2
27171.9
32518.1
33183.2
25736.3
17061.7
10493.9
5653.93
2699.95
1465.82
1268.34
1336.13
1486.56
1732.41
2197.99
2908.83
4885.87
62920.6
39645.1
33494.5
22741.9
27624.1
32625.4
33024
26295.4
18769.5
12449.3
7315.11
3967.1
2256.11
1656.26
1499.04
1532.79
1629.76
1899.13
2394.62
4007.14
71510.8
47946.6
40624.7
24658.9
28425.6
32850.5
33037.1
26963.8
20260
14003.5
9039.75
5600.39
3513.54
2382.35
1782.7
1641.59
1698.26
1946.94
2399.23
3590.43
83627.2
57149.1
45734.8
26835.6
29452
33214
33212.9
27694
21515.8
15553.7
11035.2
7637.12
5169.81
3438.44
2284.8
1920.31
1963.44
2191.5
2563
3380.69
100018
68222.3
50053.6
28804.3
30372.3
33735.9
33532.4
28308.4
22493.9
17056.3
12927.9
9451.58
6605.43
4447.29
3004.9
2422.65
2425.32
2581.39
2757.45
3290.24
148152
104358
66340.9
34479.2
32846.7
35105
34387.3
29528.7
24448.8
19981.5
16036.5
12334.7
9195.07
6745.82
5029.09
4106.08
3715.03
3509.1
3365.51
3571.86
690739
430170
195520
144381
179036
208075
206520
172135
129272
93881.6
69650.2
58420.3
53797.7
56132.4
61552.1
69048.7
79373.5
93698.6
112324
163933
438110
122493
83569.8
96648.2
168991
202142
200281
157355
93992.4
52116.9
32007.9
24973.2
25866.9
28447.3
34159.2
42557.7
52093.5
63350.9
76992.4
118841
199905
81651.6
71556.4
76345.1
160614
201933
199731
151767
68634.9
29550.2
19996.2
19793.1
21001.2
23418.3
28106.3
35759
43886.9
49602.5
54706.7
75324.2
134459
86539.5
68654.1
52165.2
124146
198037
211700
177699
62604.8
12242.7
13248
15353.6
17513
19369.4
21413.8
23582.2
25761.4
28253.8
30445.6
36804.9
164060
152706
144051
104537
11173.7
23025.9
24463.6
25995.5
27215.7
27608.9
27852.5
28303.7
29134.8
30259.8
31300.3
34065
191943
186556
187283
186621
33852.4
35821.7
35084.1
34355
33825
33444.4
33339.7
33396.5
33601.9
33982.1
34520.9
35851.7
193211
187959
187819
199028
38248.7
36366.2
35702.8
35144
34713.9
34314.2
33888.8
33566.6
33579.1
33774.9
34043.9
34738.3
161462
148473
143510
166774
31428.6
22457.3
23682.2
24603.2
25195.2
25631.1
26066.4
26689.5
27394
27960.7
28398.6
29458.9
122314
89795.9
65876.6
62355.4
9986.56
33132.5
37309.2
30202.6
3018.95
4959.13
8054.06
10750.9
13017.5
15097.9
16982.7
18706.2
20123.7
21307.1
22210.7
24131.2
89158.3
50061.1
28567.5
11749.3
22449
34990.5
35289.8
21575.4
5044.47
1625.02
2153.46
3433.56
5442.62
7803.27
10103.2
12027.2
13598.2
15149.4
16712.1
19628.4
66322
30664.1
18665
12687.7
23914
34277.5
34676.5
23000.6
8166.16
2199.85
1159.55
1407.4
2247.5
3669.24
5325.56
6919.9
8597.53
10619
12559.9
15566.8
54874.9
23778
18788.7
14741.5
25384.1
33569.7
34155.9
24058.1
10852.3
3545.54
1426.04
1168.42
1310.63
1754.31
2527.94
3696.26
5270.88
7277.69
9058.71
11855.7
49795.2
24391.5
20035.9
16901.8
26513.6
33041.8
33784.5
24654.2
13102.6
5621.6
2323.56
1328.21
1129.79
1143.37
1401.27
2126.12
3326.98
4912.57
6269.17
8772.81
51732.7
26575.9
22436.8
18764.2
26913.6
32704.3
33477.2
25046.5
15086.7
8028.96
3823.81
1819.72
1153.55
1133.06
1242.16
1603.68
2289.05
3251.62
4207.06
6439.23
56496.6
31745.3
26613
20717.6
27172.9
32638.8
33128.1
25493.3
16946.7
10363
5565.96
2666.82
1449.32
1253.74
1324.23
1484.26
1729.62
2176.03
2862.71
4844.84
62909.3
39544.5
33265.6
22684
27619.5
32741.8
32976.5
26204
18708.8
12291.2
7225.89
3918.74
2235.92
1648.78
1497.07
1526.88
1611.23
1866.43
2372.22
4002.73
71467.5
47848.2
40359.7
24544.8
28398.9
32967.4
33029.5
27035.2
20096.7
13838.7
8952.97
5569.27
3510.68
2384
1772.16
1623.09
1674.15
1924.34
2390.23
3585.4
83485.6
56963.8
45476.5
26677.7
29423.1
33351.5
33272.4
27699.7
21263.9
15399
10998
7626.17
5146.96
3402.15
2256.63
1894.41
1943.39
2190.19
2532.43
3312
99725.7
67793
49734.7
28646.5
30384.4
33886.3
33595
28184.6
22258.6
16984.9
12924.1
9395.66
6539.06
4397.86
2969.72
2406.73
2425.2
2561.19
2699.67
3219.87
147681
103384
65469.4
34249.8
32887.2
35242.2
34391
29367.6
24365.9
19975.5
15949
12216.2
9109.84
6697.12
5005.35
4113.28
3720.65
3457.98
3302.29
3526.14
677075
435725
203153
145445
179634
208883
206942
172782
129838
94499.4
70614.7
59636.8
54734.9
56990
62196.9
69290
79196.1
93670.3
112558
164077
443913
129440
84099.7
97008.4
170034
202979
200370
157580
94407.9
52665.8
32343.7
25761.3
26596.3
29144.1
35016.8
43391.3
52538.3
63702.9
77575.5
119483
208838
82108.6
71604.8
77613.7
161476
202661
199635
151632
68943.2
30266.5
20096.4
20073
21398.2
24219.3
29502.7
37393
44698.2
50014.4
55275.6
77222.2
135101
85450.2
68564.4
52525.8
124583
198295
211903
177913
62687.4
12502.2
13547.8
15618.3
17708.1
19683.9
21832.1
24026.6
26216.7
28696.4
30958.4
37902.9
163691
152511
144414
105021
11277.6
22947.7
24514.5
26152.1
27229.3
27548.8
27857.2
28437.3
29378.2
30514
31530.6
34517
191988
186619
187201
186699
33825.5
35728.6
34936.2
34181.7
33672.2
33348.8
33280.1
33376.3
33603.7
34022.7
34598.8
36007.5
193047
187959
187916
199229
38236.2
36223.9
35570.2
34995.5
34547.1
34179.8
33778.6
33612.2
33662.9
33862
34116.4
34828.6
161375
148354
143242
166895
31349.9
22423.6
23700.9
24656.6
25191
25586.3
26069.4
26763
27536
28116.8
28510.1
29578.7
122107
89521.1
65274.6
59367.4
11090
33035.8
37227.5
30177.6
2990.77
5080.86
8230.66
10825.9
13119.3
15145.8
17132.7
19001.7
20286.1
21273.7
22208.4
24331.6
89059.1
50042.2
28823.5
11999.2
22555
34832.2
35147
21523.3
4990.4
1611.89
2108.33
3421.71
5517.59
8013.33
10347.2
12082.7
13510.6
15142
16856
19875.6
66603.9
30781.4
18619.3
13029.1
24005
34082.4
34536.3
22914.5
8084.67
2115.91
1158.5
1457.06
2384.38
3800.88
5314.69
6839.48
8585.82
10791.3
12762
15660.2
55287.2
24168.3
18925.5
15056.2
25430.8
33358.6
34004.5
23953.6
10677.9
3442.85
1470.07
1189.48
1301.23
1665.45
2409.61
3638.49
5336.38
7478.02
9100.96
11730.9
50008.9
24621.4
20350.4
17144.5
26442.5
32864.1
33611.2
24531
12982.9
5579.02
2437.46
1316
1045.97
1061.54
1364.36
2159.47
3464.35
4941.59
6114.71
8627.05
52085.2
26734
22966.4
19009.8
26815.9
32551.1
33290.9
24953
14989.9
8114.27
3912.96
1724.45
1071.09
1092.67
1259.08
1657.08
2287.04
3091.2
4027.69
6357.23
57107.5
32108.7
27448.4
20988.2
27114.3
32483.7
32896.2
25430.5
16982.5
10463.3
5487.28
2528.81
1409.42
1273.19
1351.27
1444.11
1596.96
2006.58
2747.6
4843.69
63793.2
40144.3
34174.1
23012.7
27635.4
32576.5
32783.2
26127.4
18804.3
12199.9
7082.1
3826.27
2271.67
1714.94
1465.47
1420.54
1497.69
1817.07
2412.41
4044.21
72388.2
48529.9
40987.6
24981.7
28474.4
32805.9
32862.2
26924.9
20063.3
13665.9
8879.97
5621.55
3662.34
2410.35
1650.66
1509.7
1593.75
1943.76
2412.93
3500.65
84859.1
57980.6
46131.3
27226.1
29505.8
33238.7
33142.1
27566.8
21130.9
15338
11155
7834.91
5207.97
3278.26
2100.74
1860.1
1978.32
2235.09
2434.03
3096.6
101426
69372.2
50722.2
29303.7
30473.9
33841.5
33483.5
28046.2
22142.5
17104.5
13144
9497.04
6450.12
4274.74
2897.81
2510.24
2501.83
2470.46
2529.57
3052.86
149107
106005
68195.1
35416
33216.3
35300.7
34317.8
29287
24424
20203.7
16110.2
12227.6
9088.23
6740.67
5155.9
4309.57
3740.48
3300.88
3157.98
3441.98
658121
453359
221436
148075
181062
210184
207911
174286
131408
95679.1
72197.1
61104.5
56195
58476.4
63218.9
69860.8
79187.8
93914.4
113050
163938
462586
149492
87296.3
96102.5
171506
204056
201048
158751
95758.1
53770.2
33079.1
26658.4
27319.2
30166.6
36277.2
44318.1
52943.4
64361.2
78686.9
120425
228839
84598.9
73418.7
78098
163631
203630
200113
152450
70412
31665.7
20187.7
20201.8
21837.3
25477.2
31416.1
38803.7
44646.6
49966.6
56002.4
80462.4
138015
84975.5
69589
53963.2
126225
199191
212158
178000
63613.5
13069.1
14040.8
15934.9
17975.4
20092.7
22259.9
24394.1
26599.2
29171.6
31711.6
39942.6
164884
153632
146207
105759
11640.2
22918
24784.4
26416.2
27133.3
27406.1
27875
28656.4
29621.9
30672.8
31768.4
35378.3
193181
187687
188161
187414
33716.3
35583.4
34794.1
34071.6
33616.1
33320.4
33250.3
33322.7
33564.5
34048.3
34714.9
36270.9
193379
188413
188424
199477
38040
36029.6
35403.1
34858
34443
34061.6
33622.4
33512.5
33595.1
33849.9
34123.1
34872.1
162127
149355
144318
166907
31144.6
22342.1
23708.2
24667.6
25176.4
25546.2
25995.6
26773.6
27653.3
28203.5
28528.9
29636.3
122534
90500.6
67093.2
62803.6
10089.9
33014.9
37141.5
30081
3172.89
5118.95
8236.82
10872.5
13119.1
15179.5
17347.1
19217.7
20376.1
21273.9
22211.1
24593.2
89366.9
50603.4
29865.5
12398
22650.6
35000.4
35245.8
21799.9
5179.72
1703.4
2214.68
3516.59
5687.98
8292.57
10621.7
12330.4
13711.1
15262.1
17087.3
20265.1
67269.6
31199
18614.8
13378.1
24360.2
34241.2
34642.4
23200
8313.51
2249.64
1255.5
1606.14
2587.88
4045.91
5608.2
7122.4
8799.18
11093.4
13156.2
16064.4
56000.4
24700.6
18958.2
15205.5
25725
33544.5
34111.1
24176.2
10973.5
3627.7
1627.62
1280.67
1395.33
1786.66
2547.56
3770.28
5595.8
7825.04
9476.6
12096.9
51038.5
25221.7
20909
17285.2
26470.7
33088.1
33738.7
24714.5
13215.9
5883.82
2668.97
1415.35
1078.78
1093.58
1400.84
2280.5
3675.82
5195.88
6482.28
8981.29
53318.1
27656.3
24189.9
19377.5
26872.4
32800.3
33410.1
25095.7
15243.9
8548.51
4208.26
1854.34
1104.57
1122.61
1330.45
1788.96
2466.29
3400.25
4371.07
6658.31
58318.8
33298.1
29100.2
21539.1
27372.4
32750.8
33014.4
25554.6
17398.6
10900.2
5847.3
2686.31
1450.8
1344.42
1456.94
1591.62
1819.21
2275.69
2984.91
5102.47
65139.3
41243.3
35516.4
23636
28112.3
32874.4
32975.6
26350.8
19259.1
12631.6
7450.78
3994.92
2396.43
1849.37
1610.84
1604.65
1679.94
1958.52
2573.54
4238.72
73932.3
49474.6
41356.9
25724.9
29030.2
33185.5
33103.9
27254.9
20447.7
14053.1
9211.3
5923.66
3883.45
2596.97
1888.92
1707.2
1753.84
2058.11
2475.49
3590.19
87096.5
59494.8
46585.3
28102.2
30059.6
33708.2
33443.1
27889.2
21387.9
15659.2
11576.8
8243.66
5501.57
3611.2
2425.17
2040.21
2112
2283.07
2442.61
3164.45
104324
71739.1
51862.2
30415.8
31134.4
34375.8
33781.7
28293
22372.5
17525.2
13668.5
9965.07
6864.88
4669.83
3225.63
2749.17
2612.46
2492.68
2548.1
3082.88
151944
109533
72136.9
37551.1
34417.8
35904.6
34626.3
29549.5
24860.6
20763.7
16654.7
12674.5
9496.94
7140.86
5549.61
4639.71
3928.88
3420.79
3218.03
3488.55
629209
470609
243407
152691
182596
211576
209109
176199
133501
97192.4
73945.8
62639.5
57618.1
59668.4
64087.7
70585.2
79918.4
94952.3
114078
164226
481127
174233
91614.7
95151.2
172362
204976
202261
160887
98289.4
55177.4
34268
27901.4
28546.7
31475.8
37476.4
45009.6
53362.3
65116
79703.1
121109
251483
87602.3
76890.1
77896.4
165651
204299
201140
154574
73328.1
33095.5
20465.8
20726
22966.6
27272.3
33303.9
39563.1
44590.2
50285.5
57187.6
83759.6
144377
85847.3
71071.6
56052
128524
200144
212489
178674
68968.3
13672.2
14501.2
16225.6
18305.4
20535.3
22761.3
25032.2
27401.9
30201.8
32997.8
42460.9
166660
154793
148253
107022
11219.8
23202.1
25377
26617.5
27118.3
27578
28297.6
29245.8
30216.5
31308.3
32493.2
36630.7
194588
189223
189730
188129
33700.1
35664.7
34926.8
34264.6
33863.8
33585.5
33525.3
33634.3
33945.7
34484.7
35123.6
36610.6
193997
189075
189181
200139
37881.7
36062.4
35473.2
34955.5
34554.6
34160.6
33791.2
33748.9
33853.7
34133.9
34367.9
35071
163073
150462
145543
167920
31052.1
22714
23974
24810.1
25352.8
25750.2
26243.9
27046.3
27839.3
28344.8
28716.7
29922.2
123271
91302
68250.2
60966.9
11811.3
33449.7
37520.2
30340.4
3184.64
5166.2
8333.28
11081
13377.1
15577
17714.7
19412
20574.8
21525.7
22563.7
25026
89893.7
50787.3
30467.9
13002.3
23205.5
35352.1
35526.2
22139.3
5346.15
1834.6
2364.26
3786.18
6090.32
8684.17
10946.5
12707.6
14112.4
15771
17620.2
20682.2
68318.6
31826.7
18873.8
13894.3
25042.4
34565.9
34911.6
23569.8
8547.73
2430.34
1396.07
1770.7
2782.35
4317.54
5951.74
7509.19
9308.91
11631
13580
16440.1
57295.7
25698.6
19590
15690.1
26132.3
33904.9
34384.5
24487
11324.1
3958.99
1798.32
1341.19
1471.02
1901.12
2729.02
4097.26
6047.13
8175.79
9831
12487.1
52613.3
26343.5
22253.9
17891.5
26762.5
33455.1
34012.9
25057.4
13569.2
6338.84
2859.51
1478.61
1134.4
1175.54
1544.16
2522.4
3946.83
5529.33
6854.44
9361.73
54857.4
29082.4
26158
20169.6
27301.9
33141.8
33647.1
25461.4
15717.4
8964.33
4460.04
1946.2
1180.33
1223.51
1486.01
2008.54
2774.67
3760.45
4718.92
7046.95
59617.3
34817.9
31112.4
22384
27986.3
33104.4
33304.5
25968.9
17863.2
11250.9
6185
2835.68
1572.03
1495.12
1637.83
1831.87
2093.43
2553.18
3320.99
5462.96
66408.4
42349.2
36684.9
24543.8
28828.5
33257.6
33289.4
26810.2
19629.6
13086.5
7834.62
4269.24
2581.57
2053.03
1865.7
1842.78
1879.55
2175.65
2813.59
4485
75270
50258.4
41729.3
26721.4
29717.5
33612.4
33413.1
27645.5
20839.8
14534.3
9682.67
6275.7
4069.45
2883.62
2199.44
1914.61
1953.05
2235.6
2599.4
3755.69
89033.6
60691.7
47138.5
29236.4
30751.6
34161.8
33723.5
28188.7
21810.3
16225.8
12022.6
8488.63
5747.19
3966.98
2753.94
2281.67
2286.97
2385.79
2547.85
3323.58
106767
73462.3
53055.1
31754.7
31895.4
34807.9
34001.7
28603.3
22861.1
18054.9
13999.2
10224.8
7174.89
5022.06
3609.58
3025.44
2750.39
2602.21
2676.63
3249.43
154503
111854
75482.2
39814.8
35614.4
36313.2
34821.2
29913.4
25350.5
21134.8
16937.5
12963.2
9815.51
7510.36
5927.14
4917.75
4136.43
3620.61
3404.43
3690.52
624841
493514
262886
157864
181875
211032
208826
176399
134562
98664.6
76115
64672.2
59695.4
61764.9
66108.6
72487.9
82027.6
97577.8
117390
168302
503346
195432
94901.5
95506.1
170464
203628
201586
160782
99868.5
56162.1
35643.7
29619.4
30524.2
33704.2
39662.7
46911.1
55381.1
67806
83222.5
125982
272994
90564.4
79421.4
78959.5
164476
202732
200535
154725
75227.5
34171.3
21385.5
21980.3
24907.5
29821.2
35967.6
41610.7
46444.2
52602
60422.9
89377.7
151689
87493.7
72876.3
58185.8
129524
200692
213467
179753
70684.6
14297.6
15289.6
17097.6
19218.4
21549.5
23974.4
26522.7
29121.1
32193.7
35182.5
45948.4
167673
154686
148969
108936
11875.9
24146.8
26299.9
27353.5
27798.6
28342.5
29186.8
30248.4
31328.9
32573.6
33903.6
38646.9
195482
189557
189833
189282
34197.1
36596.4
35776.5
35090.5
34664.3
34364.8
34332.4
34497.2
34887.6
35513.4
36220.5
37851
194776
189432
189397
201020
38312.1
37009.6
36364.5
35755.9
35252.7
34862.3
34599.8
34562.8
34667.9
34948.7
35233
36106.1
163847
150450
145190
169207
31541.9
23478.6
24647.4
25371.1
25976.5
26477.7
27022.5
27700.9
28324.5
28929.4
29517.2
30984.8
124209
91534.7
67879.5
61930
11253.9
33624.7
37676.3
30316.9
3295.08
5154.51
8487.45
11506.3
14007.2
16245.8
18072.9
19633.2
21022.7
22329.8
23577
26021.9
91150.3
50851.2
30510.9
13387.5
23580.5
35346.4
35554.7
22409.6
5414.29
1961.43
2595.9
4166.22
6440.16
8902.21
11197.8
13201.6
14930.3
16845.2
18526.8
21417.4
70498.2
32864.7
19509.2
14405.2
25404.1
34463.7
34841.3
23677.7
8751.88
2681.55
1524.15
1842.3
2824.67
4466.39
6325.42
8171.58
10203.2
12351
14054.5
17061.3
59709.7
27402.7
20687.1
16377.2
26272.8
33790.3
34260.5
24463.6
11705
4375.25
1877.02
1352.36
1498.31
2065.9
3121.66
4731.06
6606.06
8470.98
10152.8
13199.8
55148.5
28359.5
24065.4
18710.4
26847.5
33310.6
33871.8
25114.9
14056.6
6707.36
2893.75
1487.82
1294.29
1393.65
1856.19
2864.7
4192.61
5795.33
7314.09
10185.8
57332.7
31360
28499.2
21093.2
27494.8
33076.2
33523.5
25668.9
16226
9184.34
4572.4
2061.16
1389.76
1454.93
1705.13
2205.89
3000.52
4105.9
5295.7
7885.03
61944.7
37101.1
33474.3
23406.8
28317.3
33141.5
33400.9
26291.3
18133.4
11475.2
6497.79
3151.53
1855.71
1712.08
1831.73
2067.09
2407.45
3051.18
3986.13
6195.74
68544.6
44304.4
38485
25715.1
29280.5
33413.1
33451
27075.6
19789.3
13514.7
8419.06
4825.3
2903.81
2255.29
2095.23
2132.24
2260.74
2674.5
3323.9
5017.96
77482.2
52128.4
43256.5
28040.5
30290.8
33917.8
33629.5
27790.6
21206.9
15294.8
10503.7
6819.45
4319.5
3112.08
2513.81
2299.13
2362.83
2599.56
2894.76
4123.51
91762.7
63057.1
48976.7
30799.2
31499.1
34637.9
34021.2
28476.3
22529.9
17233.5
12717.8
8814.68
6015.39
4312.82