/*--------------------------------*- C++ -*----------------------------------*\
  =========                 |
  \\      /  F ield         | OpenFOAM: The Open Source CFD Toolbox
   \\    /   O peration     | Website:  https://openfoam.org
    \\  /    A nd           | Version:  9
     \\/     M anipulation  |
\*---------------------------------------------------------------------------*/
FoamFile
{
    format      ascii;
    class       surfaceScalarField;
    location    "0.0095";
    object      phi;
}
// * * * * * * * * * * * * * * * * * * * * * * * * * * * * * * * * * * * * * //

dimensions      [0 3 -1 0 0 0 0];

internalField   nonuniform List<scalar> 
28500
(
-88.6691
-88.1448
10.017
-96.8173
-145.408
9.69143
-148.539
-241.086
2.33032
-116.591
-276.095
-1.99915
-52.164
-281.818
-1.80355
-0.12993
-284.896
-2.78775
52.8556
-280.771
-1.58087
121.522
-286.454
-1.32099
184.692
-272.769
-1.44401
232.481
-234.315
1.05387
263.866
-196.071
1.41215
283.668
-161.25
1.48205
298.969
-139.983
5.5749
308.46
-125.107
4.43356
317.692
-107.676
3.5703
328.858
-97.1618
3.19236
339.584
-91.8793
7.74721
346.428
-83.3562
9.89827
346.613
-72.3622
10.5711
-58.3982
9.20775
-143.855
-94.3048
10.8471
-216.664
-215.349
5.60356
-196.49
-242.021
-2.3649
-133.542
-270.47
-5.21329
-56.4678
-280.994
-1.79695
0.466493
-284.219
-2.75548
57.0569
-281.332
-1.76734
138.467
-285.516
-0.391497
223.455
-261.229
-1.5394
285.74
-199.733
-0.538037
321.108
-164.792
5.00216
343.569
-139.623
3.38297
367.955
-124.948
5.02783
386.731
-118.029
3.90792
401.059
-108.891
5.74567
416.219
-103.363
6.55089
432.842
-101.728
6.64751
440.59
-93.4026
6.46014
440.049
-80.0663
7.35094
-53.0421
8.0718
-240.698
-145.883
6.735
-242.798
-195.044
2.22771
-222.621
-220.431
-2.16927
-144.612
-62.2915
-5.89611
-63.8739
-63.6963
-64.9837
-61.7708
-69.7442
-1.94624
-70.2592
-70.6855
-71.0384
-0.323791
-70.4692
-2.41256
-69.5184
-71.0042
-70.1205
61.8463
-69.4478
-2.32028
-69.7017
-69.9729
-70.2433
149.751
-69.7832
-0.112217
-69.8879
-70.3142
-70.6369
244.048
-63.5577
1.07673
-53.9115
-64.5196
-54.9593
309.917
-175.989
-8.27752
364.313
-159.134
7.801
415.42
-158.627
6.34916
452.789
-161.908
3.64299
478.21
-158.603
-3.64083
495.762
-154.042
-4.51575
510.772
-147.938
-0.0701972
524.537
-141.934
3.32073
531.657
-133.018
2.92724
533.341
-123.715
1.7408
-93.4004
2.3291
-275.516
-115.201
3.84358
-269.497
-133.483
4.38266
-63.6144
-144.07
8.39917
-64.5295
-63.2723
-64.7001
-57.3002
-55.6398
-1.71815
-25.2645
-1.40869
43.5184
-17.0341
-16.9281
-16.9475
-16.9899
16.3188
-7.34033
-0.335043
-17.6367
-17.7016
-17.7242
-17.6301
0.094355
7.2447
-0.442203
-17.4209
-17.1663
-17.1853
-17.3985
-16.3071
25.3821
-0.310408
-17.6621
-17.2966
-17.3313
-17.6208
-46.1619
59.2737
-60.2543
-1.08449
475.997
-125.059
-3.42023
-86.0442
-112.836
-86.0037
-112.527
516.566
-128.66
-2.34929
538.858
-131.017
-0.98201
551.587
-131.077
-1.15911
557.916
-125.749
-0.762182
561.84
-119.297
-0.83226
565.577
-113.058
-0.662508
568.451
-107.663
-0.0627449
570.288
-101.27
0.243983
571.013
-94.8527
0.125063
-79.7808
1.06061
-282.691
-52.5079
-1.79939
-281.86
-56.9734
-2.00878
-70.1728
-62.0261
-0.587752
-70.5034
-70.4208
-70.9426
-25.0174
0.391353
44.0338
-17.3642
-17.5709
-17.8062
-17.4185
6.28264
31.5048
-7.54409
-0.364864
587.379
-64.0318
0.454919
-143.845
-145.657
-144.953
-146.972
591.828
-64.4984
-0.0841513
596.349
-62.9171
-0.582123
600.128
-60.4841
-0.521695
602.745
-58.283
-1.19225
604.208
-56.1295
-0.806307
605.057
-53.6785
0.161656
605.552
-51.2621
0.308945
605.764
-48.9875
-0.784435
604.614
-47.1907
-1.62506
-44.8169
-1.17632
-286.712
-0.472784
-1.81704
-285.817
0.124275
-2.00209
-70.638
-0.58997
-2.21345
-70.3109
-71.3096
-70.6155
16.321
-7.3617
-0.582265
-17.5861
-17.7389
-17.7661
-17.539
3.35473
36.5731
-2.41063
-0.109272
592.486
0.0825706
-0.605001
-146.85
-147.573
-148.181
-148.869
593.181
-0.0751605
-0.909223
593.434
-0.472554
-1.19065
593.276
-0.563365
-1.28217
592.745
-0.891605
-1.22027
592.065
-1.00773
-1.37181
591.214
-1.14382
-1.68399
590.389
-1.34855
-1.91839
589.428
-0.956706
-1.52931
588.233
-1.10027
-1.08487
0.284232
-0.813267
-281.717
53.0939
-2.02561
-281.859
57.0524
-2.25303
-69.6665
61.9703
-2.68437
-69.8074
-70.1631
-70.353
0.0789593
7.20539
-0.619596
-17.4919
-17.2764
-17.2914
-17.4735
-0.0174536
36.5717
0.776394
-0.107253
591.754
61.0304
0.137789
-147.029
-147.083
-148.306
-148.391
592.598
59.9837
-0.434767
593.143
58.5816
-0.973385
593.622
56.8145
-0.741512
594.007
55.5801
-0.33962
594.191
53.7607
-0.469796
594.659
51.735
-0.96645
595.199
50.3154
-1.17729
595.529
48.922
-1.03147
595.769
49.0185
-0.6514
48.1743
-0.505667
-287.961
122.123
-1.53215
-286.523
139.191
-0.733708
-69.8077
150.004
-0.652469
-69.9819
-70.4299
-70.6935
-16.2812
25.3552
-0.410627
-17.5366
-17.4284
-17.4214
-17.3935
-3.37271
36.7172
4.56188
-0.115281
595.315
160.953
-0.328336
-147.136
-146.781
-148.347
-148.062
597.659
154.074
-2.99993
599.75
149.27
-0.509063
601.001
142.092
2.73268
601.68
135.697
1.71753
601.635
129.951
-2.27758
601.122
123.405
-4.21682
600.766
117.988
-2.11253
600.374
112.56
0.911875
599.986
108.651
0.191453
101.58
-1.45126
-273.11
185.559
-2.93681
-260.993
225.259
-3.27138
-63.012
245.608
-1.66979
-53.9062
-64.7716
-55.5997
-45.6665
-59.6629
60.9027
-1.41982
8.63907
-6.87885
34.6034
-0.851763
3.35
-2.39206
35.7034
-0.27287
-0.0632234
0.831195
35.6801
-0.224176
-3.45888
4.63366
35.9296
-0.201839
-7.80091
-9.73009
119.1
126.209
0.799422
-14.4352
-7.11346
-13.6902
-15.5842
-12.1371
-16.4449
558.879
326.308
-10.7485
-132.719
-117.298
-133.254
-117.027
572.918
270.913
10.0593
581.162
246.802
7.3193
588.556
231.927
-3.16861
593.15
214.772
-10.0991
596.66
202.507
-7.54791
600.779
191.701
1.1554
603.094
181.01
6.5064
603.904
171.707
3.4621
603.963
163.454
-3.05997
150.304
-2.83852
-233.656
233.137
-1.59755
-197.531
287.137
-3.8484
-173.287
313.041
-11.4969
-127.27
474.866
-8.17417
-87.447
-113.872
-87.0048
-112.388
-64.4475
576.096
-3.2551
-140.999
-142.665
-142.826
-144.42
0.837611
581.109
-3.97238
-143.709
-144.18
-145.562
-145.96
63.8879
580.42
-3.5552
-143.656
-144.02
-145.448
-145.889
168.018
584.11
-3.19793
-144.715
-144.931
-146.677
-147.154
307.558
552.276
-13.5965
-134.137
-121.656
-136.41
-123.745
451.959
457.439
25.3742
505.915
363.248
17.2607
537.185
322.718
-16.2808
550.838
301.65
-19.9729
562.756
281.878
-7.30682
575.237
266.567
8.04381
582.664
250.812
13.0812
589.039
237.727
6.07328
594.065
221.509
-6.28635
596.302
212.442
-6.66147
196.219
-0.965886
-195.861
264.38
-2.31358
-168.828
322.81
-0.869106
-162.408
369.986
4.01469
-131.446
512.191
-4.10807
-64.0413
581.124
-4.35706
1.05634
581.881
-4.20513
62.3908
581.336
-3.53567
157.504
585.539
-5.47248
258.322
565.102
4.85376
346.3
503.951
14.526
427.427
433.215
-27.626
474.093
375.782
-34.7121
505.246
354.555
-4.57558
523.762
332.481
16.4945
538.683
315.865
18.3614
553.992
299.644
5.9332
564.571
282.95
-11.3251
570.081
266.027
-14.0943
579.658
258.57
-1.93908
238.973
4.45443
-162.195
284.403
-2.45831
-141.386
345.612
-3.89195
-162.566
415.595
-1.11858
-133.321
531.501
-4.81234
-61.7019
585.593
-4.41163
0.735174
582.232
-4.16861
60.168
581.969
-4.2042
150.464
587.051
-2.64891
240.67
572.645
5.74044
311.854
533.901
-14.6238
364.545
475.027
-34.7665
421.758
428.145
-1.43372
461.733
399.65
29.9502
480.558
369.838
23.3541
501.593
352.927
1.30272
517.25
338.111
-18.2534
527.065
324.354
-20.1929
544.011
310.772
-3.53614
559.254
302.197
11.6039
279.882
8.05754
-140.49
299.423
2.10648
-123.409
367.966
-0.392478
-161.365
447.85
-2.33962
-130.411
540.965
-6.60813
-59.4113
589.235
-3.52012
0.534983
582.204
-4.35625
57.7015
582.493
-4.24998
142.183
587.908
0.832336
227.124
579.016
-3.2602
293.824
545.666
-20.408
345.654
505.065
-8.20539
392.239
468.327
30.9278
435.146
442.48
33.7632
462.479
409.249
0.443224
475.638
381.731
-26.9052
484.517
365.285
-24.8372
503.39
361.099
-7.01906
525.402
350.306
16.5854
537.292
342.097
14.6684
315.82
3.68609
-124.643
308.499
1.11756
-115.152
384.825
-1.35765
-156.164
471.425
-6.85842
-123.9
547.387
-5.48108
-57.3273
591.766
-3.78708
0.139186
581.815
-4.49559
56.1516
583.011
-3.65736
134.828
588.458
-0.304317
210.546
582.784
-11.3818
275.386
555.11
-10.1743
328.643
523.152
14.4865
366.704
487.919
25.3415
403.298
472.862
2.88076
428.94
438.425
-30.9815
443.81
405.49
-30.2928
461.708
382.405
-5.61587
481.357
381.097
17.3385
495.765
372.133
20.668
511.265
364.305
3.70546
341.826
-3.86394
-107.697
317.514
0.377654
-109.022
399.04
0.306001
-151.794
489.49
-7.33827
-117.81
552.382
-4.42174
-55.0048
593.177
-3.05306
-0.178538
581.164
-4.83909
53.9586
583.407
-3.41066
128.458
588.262
-4.61706
197.771
584.798
-9.6731
260.659
566.161
5.40359
313.049
536.372
18.4375
353.632
507.622
4.03436
382.555
486.784
-24.0503
401.009
455.444
-29.6039
420.868
429.589
-6.29337
439.662
401.467
20.1892
455.658
393.169
21.6437
471.305
382.433
7.36293
481.806
377.102
-9.31789
363.321
-5.67375
-97.3081
328.833
-0.326855
-104.312
414.337
1.39542
-145.805
504.557
-2.34135
-111.636
556.161
-3.5079
-52.4045
593.968
-2.12821
-0.402864
580.208
-5.17196
51.748
584.09
-3.67365
121.258
587.867
-6.51081
186.487
586.884
-1.17356
244.949
572.163
11.4138
296.535
548.37
6.80203
338.298
519.682
-16.3072
369.358
492.97
-24.2817
387.272
472.732
-6.16974
401.115
450.764
22.7005
416.276
424.115
25.4691
435.514
409.324
8.29759
446.238
391.672
-10.2321
450.439
390.616
-11.1436
382.866
0.194794
-92.6222
339.903
3.3766
-101.918
430.882
1.46985
-139.626
516.857
1.12586
-106.018
558.389
-2.6877
-50.087
594.37
-2.47462
-0.681957
579.121
-5.21227
50.4256
584.915
-3.97368
115.559
588.081
-4.23402
175.578
588.344
4.17394
231.669
576.509
4.73893
278.855
555.799
-11.1071
322.768
526.532
-19.8288
362.22
507.812
-8.11899
385.324
490.774
19.2925
395.179
466.65
25.5389
405.42
445.917
11.817
417.872
423.91
-10.7491
426.937
403.221
-12.1695
441.835
404.437
1.30156
400.398
12.7622
-84.5257
346.862
6.03033
-93.1645
438.436
2.42038
-130.391
523.232
1.0053
-99.2278
559.451
-2.3719
-47.8266
594.205
-3.9151
-0.351665
577.848
-4.77941
49.0545
585.19
-3.98481
110.073
588.479
-1.08813
166.178
588.823
1.14533
215.603
579.41
-7.46514
261.466
559.739
-14.7998
307.396
539.581
-5.32277
348.884
527.047
15.468
374.117
501.98
23.5839
384.619
478.965
13.2532
392.958
453.859
-5.85672
403.824
430.247
-11.8214
419.2
419.425
-1.04114
440.422
425.746
17.463
417.415
20.2023
-73.7114
346.925
7.16326
-80.2119
438.22
4.02624
-120.441
524.841
0.0483429
-92.8542
559.842
-2.45304
-46.2118
592.689
-4.67601
-0.576835
576.437
-4.48432
49.0338
585.193
-3.59575
106.122
588.602
-1.79629
157.856
589.225
-5.12149
206.058
581.297
-8.13241
252.164
567.487
-3.76012
296.02
551.36
9.15095
339.049
535.145
14.9466
364.644
512.992
7.9196
377.544
487.65
-3.90449
391.491
456.424
-7.20471
405.537
441.531
1.87399
423.356
439.225
18.5731
435.56
436.267
24.5345
429.214
16.1092
-59.1661
6.72788
-53.3417
5.35921
-89.7006
0.811273
-77.3412
-1.24743
-43.6875
-3.94863
0.783712
-4.18193
47.8362
-3.21572
99.0707
-3.38622
145.324
-4.86012
190.142
-3.08817
232.517
1.79854
273.607
5.69495
311.763
3.80759
339.418
-1.70684
360.353
-2.57947
379.7
2.95306
397.51
13.9792
413.987
21.1407
427.254
16.546
11.0514
-89.9656
-89.9195
10.5483
-101.318
-154.564
16.035
-150.589
-248.716
9.20848
-117.644
-282.637
1.9537
-51.8046
-286.928
-1.99523
0.39647
-290.747
-1.67171
53.4758
-285.699
-1.28505
122.472
-291.829
-0.883105
186.191
-277.604
-0.607712
234.391
-238.208
2.07742
265.689
-199.211
4.27265
285.564
-163.58
3.61061
301.213
-141.326
8.51991
310.408
-126.469
8.26018
319.068
-108.528
7.1547
329.974
-97.3887
5.90079
340.889
-92.0787
10.7665
347.94
-83.4929
12.6556
348.176
-72.034
14.1463
-57.7148
12.0081
-151.478
-98.467
16.2206
-217.114
-219.187
16.9289
-197.079
-248.615
0.0618508
-131.753
-279.873
1.38674
-55.6215
-288.108
-1.67804
0.695471
-290.588
-1.73658
57.7535
-287.265
-1.61605
139.433
-291.723
-0.250167
225.165
-267.188
1.25493
288.448
-204.898
-0.405809
325.087
-166.487
7.46687
347.944
-142.449
7.06745
373.352
-128.079
11.5276
392.314
-121.162
11.02
405.721
-110.515
11.6809
420.123
-103.741
10.3878
436.811
-102.294
10.7597
445.179
-94.4728
11.2089
444.693
-81.1155
12.9126
-53.7776
13.3392
-245.259
-149.208
12.4708
-245.787
-198.436
2.27324
-222.563
-224.929
-0.614745
-143.658
-65.3719
7.81925
-66.8232
-66.0049
-67.9115
-60.4765
-72.503
-0.633908
-72.8651
-73.4794
-73.7264
-0.293466
-72.3849
-2.05659
-71.455
-73.2118
-72.2578
62.0467
-71.332
-2.08254
-71.5305
-72.0717
-72.2845
150.679
-71.6213
-0.540171
-72.0067
-72.3441
-72.6942
246.588
-65.6055
5.79381
-56.1445
-65.7911
-56.0958
313.986
-180.037
-5.24999
369.023
-160.451
10.0364
423.229
-159.408
9.86751
462.494
-162.891
12.247
487.147
-160.01
6.63047
503.775
-155.536
4.68721
517.638
-149.866
5.69642
531.177
-143.73
7.30215
538.983
-135.11
7.12251
541.07
-126.371
7.13631
-97.9898
8.96111
-278.882
-117.383
5.47788
-274.435
-135.064
2.57112
-63.9573
-145.159
7.31062
-65.6164
-64.7219
-66.5159
1.40001
-56.3748
-57.8206
-1.47667
1.45306
-24.7553
-0.700848
43.9639
-18.0579
-18.5284
-17.8731
-18.6987
0.314706
16.2105
-7.29563
-0.298521
-18.0271
-18.1819
-17.9129
-18.3136
0.430011
0.0648669
7.31586
-0.344629
-17.9355
-17.5942
-17.8193
-17.6977
0.18436
-16.3962
25.3106
-0.186877
-18.1269
-17.7596
-18.0501
-17.8684
-46.1009
-0.0384631
59.1913
-62.0141
0.19231
487.111
-127.466
5.54899
-87.2381
-114.162
-88.9644
-118.775
526.861
-129.563
7.35803
548.791
-131.362
5.2005
561.798
-131.857
3.36049
567.623
-127.018
4.19104
570.644
-120.471
5.1591
573.754
-113.991
5.60166
576.432
-108.635
5.99709
578.335
-102.508
6.0376
579.099
-96.0771
5.55884
-82.07
7.24559
-287.025
-52.9792
-1.2847
-287.734
-57.4671
-1.61993
-71.4152
-62.1991
-0.502359
-72.2223
-72.0258
-72.9475
-0.719359
-25.1232
0.38983
43.4179
-17.4503
-17.1555
-17.343
-17.233
-0.10287
6.03198
31.3611
-7.57796
0.129751
599.404
-64.2903
3.68253
-147.192
-148.934
-148.961
-149.949
602.642
-64.4129
3.30617
606.284
-63.0214
2.87215
609.511
-60.6286
3.13345
611.834
-58.3236
2.47518
613.129
-56.1117
2.42916
613.823
-53.7403
3.53379
614.11
-51.4138
4.2568
614.263
-49.166
3.55957
613.137
-47.3519
2.74926
-45.1672
3.67775
-291.458
-0.304531
-0.803507
-291.193
0.0645206
-1.10254
-72.6364
-0.320373
-1.56127
-71.6178
-73.3195
-72.1867
0.412191
16.3048
-7.32475
-0.289443
-18.1443
-18.2166
-18.0912
-18.3226
-0.0537745
3.2815
37.3623
-2.35635
0.0826403
604.117
0.225009
1.95815
-150.211
-150.816
-151.31
-151.864
603.859
0.180395
2.0086
603.487
-0.324475
1.99016
602.899
-0.448915
2.00798
601.999
-0.629589
2.1536
600.933
-0.802114
2.18954
599.843
-0.903419
2.10818
598.885
-1.20016
1.8709
597.86
-0.813621
2.24519
596.427
-1.05496
2.84603
0.30268
3.3672
-286.479
53.1827
-0.535845
-287.435
57.0668
-0.671968
-71.4008
61.7253
-1.1186
-71.5333
-72.0632
-72.2576
0.454744
0.0949067
7.18803
-0.228498
-17.9539
-17.6578
-17.854
-17.7385
-0.0591164
-0.0216747
37.3466
0.768215
0.0916519
603.564
61.6843
2.93987
-150.301
-150.407
-151.385
-151.535
603.52
60.1042
2.94045
603.387
58.6776
2.48684
603.358
57.1032
2.53575
603.311
55.9479
3.1025
603.26
54.2985
3.44151
603.553
51.9371
3.21732
603.92
50.4867
2.91788
604.01
49.2402
2.75861
604.098
49.0881
3.08679
48.6051
3.55934
-292.746
122.427
-0.113482
-292.123
139.557
0.328311
-71.6386
150.319
-0.0594666
-71.9549
-72.347
-72.6412
0.269599
-16.2179
25.1159
-0.14342
-18.0019
-17.8045
-17.9435
-17.9165
-0.0627267
-3.29999
37.445
4.4615
0.106098
607.23
161.673
4.38008
-150.397
-150.019
-151.607
-151.35
608.661
153.758
0.486135
609.774
149.43
1.75657
611.06
143.244
5.57461
611.694
136.037
6.6014
611.351
130.089
3.72587
610.218
123.64
0.304501
609.697
118.369
0.868724
609.362
113.469
4.18842
608.927
109.505
4.90173
102.256
3.68168
-277.727
186.431
-1.58719
-266.646
226.133
-0.202759
-64.9247
247.401
3.05972
-55.7542
-65.7395
-56.2663
-45.2682
0.491023
-61.7226
60.425
-0.17532
0.342052
7.01181
-6.5682
34.9403
-0.339029
0.224202
3.27964
-2.33905
36.8875
-0.204794
0.174097
-0.074987
0.828793
36.821
-0.15271
0.165498
-3.4109
4.55255
37.1145
-0.153069
-7.18145
-11.1958
-1.06263
119.473
130.867
0.55554
-13.6073
-7.15628
-13.5834
-16.5122
-11.3778
-16.5384
567.535
330.187
-12.5986
-134.558
-118.255
-136.001
-120.41
584.143
275.648
9.48329
592.45
249.278
13.5424
598.318
232.007
6.67481
601.968
214.884
-2.69143
604.526
201.456
-4.88833
608.436
192.014
1.42646
612.107
182.578
9.14126
612.843
173.031
9.87474
612.271
164.618
4.26961
150.833
2.42265
-237.906
234.87
-0.498272
-203.334
289.087
-3.6417
-177.027
316.066
-8.15653
-128.643
487.703
-3.15319
-88.56
-116.987
-88.9836
-118.395
-64.625
593.954
-1.92204
-146.329
-147.438
-148.041
-149.147
1.20786
598.755
-2.91359
-148.733
-149.14
-150.469
-150.959
64.6787
598.287
-2.19088
-148.656
-149.064
-150.483
-150.891
170.507
602.308
-0.771612
-149.978
-150.414
-151.804
-152.349
310.542
568.693
-14.0864
-139.359
-126.493
-141.394
-127.62
464.624
474.878
18.2552
519.014
377.553
35.7633
547.448
326.685
2.63001
559.705
301.969
-13.7341
569.748
282.101
-8.30542
583.269
268.934
5.97996
592.925
254.047
17.0539
597.962
240.226
15.8054
601.199
223.042
4.81849
603.447
212.121
-1.7245
196.796
2.614
-199.609
266.212
1.15608
-170.698
326.426
1.80284
-161.736
373.095
5.78001
-130.747
524.658
2.28961
-64.1679
596.866
-2.55854
1.31549
597.966
-3.1551
62.6197
597.665
-2.16917
157.815
601.829
-4.72931
263.236
580.905
3.23322
359.071
521.49
32.7132
439.374
448.163
0.0491394
480.46
380.804
-32.1769
510.711
357.797
-13.53
534.467
338.644
13.5215
550.738
322.167
25.5322
563.289
303.141
20.9851
572.49
284.874
3.15286
577.685
264.913
-8.15197
586.342
259.091
-1.40326
240.924
7.63412
-165.321
286.187
0.205599
-144.742
349.436
0.319593
-161.439
423.706
2.06814
-132.665
544.607
0.735235
-62.1859
600.087
-3.16482
0.91256
597.175
-3.14499
60.5006
597.062
-2.8638
150.959
601.934
-3.38784
243.556
588.415
9.32903
315.529
548.161
0.932364
369.177
484.798
-32.9266
422.757
430.966
-15.464
472.225
407.735
25.6884
492.986
379.35
37.6107
510.607
357.769
23.9492
525.35
340.332
-0.0869157
534.643
323.824
-13.6944
548.568
310.948
-5.13329
566.828
305.058
12.4769
282.365
14.6714
-142.273
301.699
5.05146
-127.242
373.008
7.30138
-162.019
459.401
5.76097
-131.477
555.202
-3.04004
-59.7651
602.869
-2.47966
0.67596
596.287
-3.22242
58.1453
596.605
-3.04929
143.736
602.469
0.591033
228.134
593.492
3.67268
294.653
558.321
-16.0299
347.778
511.812
-17.0711
398.901
477.787
24.5216
444.004
450.521
46.2202
469.555
415.651
28.4528
482.917
386.084
-6.99622
490.479
367.147
-18.2409
507.18
362.462
-8.93593
533.124
355.136
15.4922
545.353
346.188
23.7249
318.999
14.6051
-127.157
310.527
4.92629
-119.966
391.27
6.08739
-158.131
483.049
3.68784
-125.858
560.928
-2.2608
-57.5544
604.795
-2.70175
0.422378
595.169
-3.27034
56.6553
596.193
-2.53067
135.991
602.866
1.70298
212.011
595.842
-6.28026
276.402
565.536
-12.5803
333.181
533.958
9.033
374.682
498.414
35.2811
408.948
477.69
28.8984
434.327
443.412
-9.25188
448.349
409.08
-24.3326
466.04
386.704
-6.04612
488.936
387.37
19.1755
503.264
377.876
33.1404
516.762
368.266
22.4192
343.98
7.88935
-109.95
318.735
4.51052
-112.374
404.938
6.00412
-153.841
499.539
1.41132
-119.642
564.642
-0.110447
-55.2203
605.766
-2.44105
0.100038
593.867
-3.50051
54.7006
596.118
-2.0614
129.299
602.132
-1.39609
198.197
596.784
-9.48952
263.582
576.884
1.04258
318.253
549.308
21.9781
356.641
515.597
22.3895
384.826
491.951
-6.91262
404.206
458.258
-24.5025
425.973
433.529
-8.7007
448.894
408.821
24.345
463.903
399.348
39.4574
477.038
385.603
31.7542
488.671
377.971
8.10029
363.757
3.725
-98.6305
329.621
2.99291
-106.047
419.339
5.30263
-148.287
513.156
2.30433
-113.295
567.623
1.26582
-52.7112
606.243
-1.34144
-0.095846
592.435
-3.7144
52.1903
596.477
-2.18621
122.258
600.728
-4.94354
188.213
598.72
-3.49337
248.849
585.512
12.8327
300.01
559.979
18.0956
340.31
527.851
-1.65621
369.972
497.869
-19.6714
390.33
475.014
-7.31262
408.534
457.934
25.6684
423.471
430.807
45.2197
440.407
412.983
35.5287
451.858
392.902
12.0679
455.341
390.039
-0.799783
383.472
7.34431
-93.6511
340.794
7.14953
-103.826
435.784
5.88152
-142.211
525.602
4.0164
-107.662
569.502
2.21596
-50.4735
606.313
-0.887687
-0.535114
591.137
-3.80971
50.7667
596.685
-2.35493
116.751
600.25
-4.26618
178.415
601.385
4.47657
235.211
589.42
11.8421
281.839
566.701
0.499998
323.08
534.945
-15.541
363.244
511.341
-10.8853
390.447
496.707
20.1319
400.866
472.865
41.5404
409.006
450.631
37.6727
420.88
427.924
11.5887
428.472
404.564
-2.72613
441.979
404.384
5.05468
401.209
19.0112
-85.3602
348.185
9.20738
-95.4436
443.981
7.66655
-133.416
532.764
4.76063
-101.274
570.562
2.55586
-48.2366
606.091
-1.85023
-0.152716
589.734
-3.23456
49.479
596.697
-2.47948
111.814
600.481
-0.66352
168.822
601.876
5.30059
218.547
590.877
1.07406
261.74
570.356
-10.9892
308.589
545.956
-8.07036
352.908
534.3
13.3342
378.967
508.571
33.948
387.974
483.683
35.0761
394.039
459.235
15.7448
405.039
432.58
-1.04539
419.51
419.475
2.9332
441.785
425.969
21.122
418.126
28.2
-73.9071
348.58
11.4794
-82.2542
443.755
10.1011
-124.409
534.71
5.57271
-94.783
570.888
2.33631
-46.5563
604.616
-2.48575
-0.547572
587.994
-2.59118
49.1307
596.446
-2.07284
107.673
600.379
0.0605873
160.359
601.321
-0.168402
207.341
592.348
-5.30946
254.035
577.379
-4.72533
299.461
560.521
9.0131
342.628
543.782
21.9539
368.999
518.556
24.009
379.643
493.33
12.0681
391.318
461.41
3.12612
406.026
442.475
6.63751
424.319
440.922
23.0784
436.345
437.958
34.2115
430.442
25.3558
-58.9092
10.4571
-54.9526
11.1389
-96.0339
7.82856
-80.6975
4.56044
-44.2847
-0.919364
0.696817
-1.90934
48.2665
-1.28562
100.271
-0.873012
146.888
-1.82593
191.972
-1.46885
235.509
3.44974
276.861
10.7637
315.377
12.6085
342.432
8.33224
362.097
5.89217
381.376
10.5775
399.232
22.0727
414.8
30.9702
427.662
26.4685
19.4548
-94.4787
-94.0712
7.62043
-112.244
-172.923
15.0107
-151.597
-255.757
7.35032
-118.68
-285.995
1.53023
-51.6495
-293.188
-1.72677
0.927351
-297.327
-0.413672
54.3002
-291.652
-1.00313
123.812
-298.048
-0.761393
188.17
-283.684
-0.913023
236.993
-243.232
1.16045
268.796
-203.203
3.89853
288.694
-167.27
2.5411
305.39
-142.507
7.2626
315.338
-129.814
7.50098
323.387
-112.066
6.94615
333.688
-98.7016
5.18453
344.565
-92.9921
9.98713
352.664
-85.1321
11.3063
353.867
-73.0675
12.662
-58.0213
10.6087
-171.989
-106.551
15.2757
-220.164
-220.226
13.319
-199.63
-252.923
-0.696616
-131.934
-284.046
2.23436
-55.5527
-295.577
-1.45109
0.734663
-297.098
-0.492009
58.1215
-292.988
-1.43782
140.985
-297.705
-0.553154
228.036
-273.192
0.514516
292.55
-211.892
-2.91416
331.405
-165.585
5.38988
354.481
-144.04
4.62069
381.035
-130.613
10.6545
404.081
-127.686
9.86672
417.117
-115.842
11.2559
430.086
-104.2
9.33411
446.166
-101.655
9.67845
456.501
-95.762
10.3154
457.461
-83.1725
11.8711
-56.5077
12.1631
-254.718
-152.87
9.84481
-252.192
-200.469
0.379763
-223.578
-226.981
0.860108
-143.194
-66.7476
8.33601
-68.3775
-66.6045
-68.4405
-60.1285
-74.1383
-0.923494
-74.3728
-74.2215
-74.531
-0.212141
-73.9827
-1.04831
-73.3083
-74.4284
-73.7063
62.3344
-72.8181
-1.93047
-73.0046
-73.1225
-73.249
151.826
-73.136
-1.23768
-73.5013
-73.3791
-73.5918
251.7
-67.3604
3.62471
-57.3035
-66.789
-56.4885
320.931
-186.762
-7.44596
375.205
-164.203
5.72959
431.769
-156.499
6.9109
476.392
-160.693
10.9381
504.233
-160.775
8.85637
519.977
-156.732
7.9556
532.942
-152.351
7.26629
545.765
-146.356
7.05775
555.141
-138.048
6.20202
558.985
-130.071
6.31453
-105.531
8.21254
-284.031
-119.81
4.06595
-281.384
-135.818
2.07983
-65.3003
-146.17
4.77665
-67.3947
-65.7709
-67.3903
1.66222
-56.891
-58.989
-1.71919
0.244497
-24.4348
0.438404
43.9031
-18.3903
-19.0872
-18.352
-19.084
0.379644
15.8732
-7.17882
-0.405326
-18.3414
-18.5983
-18.2904
-18.6371
0.424743
0.00815949
7.40525
-0.55767
-18.2958
-18.0339
-18.2482
-18.0831
0.202226
-16.5759
25.5311
-0.192863
-18.5041
-18.1395
-18.4583
-18.1843
-46.5906
-0.263992
59.9245
-64.2707
0.76131
502.501
-131.24
2.23477
-89.0172
-116.797
-91.3134
-123.638
542.206
-132.354
6.78871
565.183
-130.822
4.8817
580.691
-131.72
2.45846
588.244
-128.984
3.61408
590.155
-122.642
5.62118
591.729
-115.528
6.37153
594.047
-110.148
6.51571
596.368
-104.394
6.48728
597.859
-98.2267
5.44982
-85.7818
6.66739
-292.683
-53.2557
-1.12724
-294.375
-57.6006
-1.29036
-72.744
-62.1769
-0.447677
-73.6674
-73.2027
-73.9567
-0.323065
-25.2627
0.0685676
44.0029
-17.787
-17.5378
-17.7083
-17.6064
-0.267345
5.75749
32.4392
-7.40765
0.0589314
617.049
-64.3276
3.78758
-150.615
-152.155
-154.354
-155.161
620.457
-64.7443
4.0561
624.109
-63.9435
3.76989
627.586
-61.6153
3.95838
630.314
-59.0063
3.32097
631.998
-56.633
2.42498
632.907
-54.3065
3.2765
633.107
-52.0919
4.08463
633.3
-49.8544
4.16012
632.517
-47.9506
3.04714
-45.9057
3.36342
-296.47
-0.326298
-0.152091
-295.705
0.114656
-0.637975
-73.8955
-0.202893
-1.28092
-72.6821
-74.0399
-72.8931
0.296477
16.2377
-7.20876
-0.243689
-18.3254
-18.5981
-18.2974
-18.6294
-0.144476
3.29155
37.9866
-2.35951
0.154771
621.393
0.196731
2.26184
-153.436
-153.99
-156.238
-156.73
621.917
0.0869121
2.21811
621.989
-0.179874
2.04702
621.717
-0.565449
1.95525
621.046
-0.618846
2.06647
620.016
-0.75788
2.13747
618.953
-0.785083
2.19278
617.928
-1.16644
1.89201
616.892
-0.896719
1.98178
615.469
-1.20165
2.31356
-0.150463
2.78762
-291.773
52.954
0.268582
-292.886
57.13
0.0608449
-72.7854
61.944
-0.354883
-73.0063
-73.0302
-73.2829
0.0796095
0.001165
7.36402
0.011708
-18.2723
-18.002
-18.2293
-18.0347
-0.157175
-0.0324188
38.0267
0.776589
0.165303
620.882
62.1764
3.31364
-153.498
-153.666
-156.225
-156.43
621.521
60.9143
3.59839
622.052
59.2106
3.0743
622.334
57.5057
2.64093
622.451
56.1663
2.90388
622.491
54.9728
3.50858
622.718
52.818
3.66473
623.178
50.864
3.33839
623.297
49.7235
2.95239
623.366
49.0576
2.97638
48.7201
3.3027
-297.778
122.926
0.704548
-297.089
139.821
0.848409
-73.0911
150.847
0.286172
-73.393
-73.3993
-73.7982
0.0479699
-16.478
25.3839
0.0791731
-18.519
-18.1374
-18.4486
-18.1822
-0.193511
-3.31708
38.1807
4.481
0.194532
624.389
165.07
5.95108
-153.87
-153.435
-156.657
-156.485
626.829
154.863
1.31493
627.766
149.06
0.697506
629.602
144.594
3.77205
631.246
137.518
6.77654
631.632
130.925
5.67332
630.095
124.92
1.90534
629.093
119.42
0.318832
629.215
114.634
2.72322
629.243
110.828
4.63805
103.803
4.06281
-284.129
187.167
0.480986
-273.47
225.713
2.943
-67.1128
247.447
4.94671
-57.3921
-67.5052
-57.5227
-46.3363
0.448528
-63.7269
59.4388
0.369789
0.0964841
5.80737
-7.48537
32.184
-0.102131
0.184531
3.25869
-2.32133
37.8166
-0.176607
0.112164
-0.0790085
0.82691
37.8222
-0.103755
0.110069
-3.39436
4.53506
38.0866
-0.103802
-9.65156
-8.1409
-0.292522
130.297
126.652
0.218588
-14.922
-9.8071
-15.012
-15.276
-8.10345
-15.2629
584.48
323.849
-12.9631
-141.169
-126.991
-142.207
-126.265
600.456
273.957
3.94692
611.545
251.29
14.3601
617.63
232.849
11.7564
621.003
216.797
3.00207
622.44
201.907
-3.64866
624.908
192.015
-1.45567
630.359
184.552
5.91469
632.717
175.131
10.2883
632.414
167.284
6.82429
153.421
3.78671
-243.65
236.266
0.92704
-212.474
289.431
-1.21524
-187.618
316.742
-4.3941
-128.536
494.196
-2.24329
-87.9535
-115.495
-88.2009
-116.915
-63.0929
611.272
-1.54504
-149.277
-151.126
-151.319
-153.229
1.02701
616.306
-2.65313
-152.454
-153.074
-154.559
-155.196
63.9487
616.083
-1.86504
-152.588
-152.94
-154.697
-155.105
170.567
620.701
1.08929
-153.732
-154.263
-155.827
-156.139
320.68
580.834
-14.8955
-139.651
-124.908
-143.675
-129.511
480.284
481.042
-5.70728
543.026
389.558
40.2416
566.926
333.47
18.796
578.797
303.263
-6.04944
585.992
282.117
-10.1452
597.345
269.224
-1.08788
611.216
257.044
13.315
618.206
244.18
18.2704
620.354
227.607
11.3428
621.402
214.942
1.25553
199.045
2.09886
-204.515
268.428
3.22763
-170.765
329.581
3.62613
-167.485
373.497
5.39678
-132.298
536.686
3.55294
-63.2618
615.218
-1.69265
1.32422
616.744
-2.68443
62.6083
616.468
-1.5529
157.782
621.266
-3.61671
269.652
595.948
-2.14951
382.711
539.99
35.3453
465.675
466.76
29.1156
501.518
390.511
-22.5182
522.229
357.115
-20.9807
548.34
341.195
1.01998
570.962
329.124
22.1121
584.136
310.745
26.7687
592.751
291.578
13.9942
596.918
268.896
-2.99907
602.502
260.568
-3.24905
244.439
4.84445
-170.157
288.437
1.19798
-147.773
353.093
1.79078
-159.874
429.67
1.86604
-131.516
560.132
3.26005
-62.4693
618.896
-2.37075
1.02155
616.696
-2.5291
60.5462
616.799
-2.00077
150.74
621.44
-4.18873
249.445
607.173
8.31909
329.837
564.705
13.2566
387.165
500.325
-23.9751
430.752
433.497
-29.7944
482.066
407.88
4.74485
513.594
387.684
37.0143
531.375
367.094
34.53
545.573
347.241
15.2568
554.429
328.586
-7.2327
562.309
311.975
-8.60198
581.056
308.482
5.86024
286.786
13.451
-144.928
305.15
4.22434
-132.766
378.857
8.2373
-162.671
472.932
6.15443
-131.957
575.252
-1.82236
-60.307
622.2
-1.94482
0.558157
616.309
-2.42963
58.4932
616.748
-2.35789
145.53
622.804
-0.852204
231.561
613.55
6.98833
299.468
576.038
-9.7517
350.423
520.118
-23.3816
401.004
482.156
5.25098
454.927
457.53
46.664
485.028
423.224
42.7571
499.131
392.973
11.4309
507.163
371.369
-12.3448
517.878
363.238
-12.7112
543.405
357.121
5.15351
561.423
351.474
22.1141
325.118
17.2592
-132.186
314.997
4.55316
-130.042
402.441
6.77333
-162.095
501.099
6.21344
-128.716
582.871
-2.25656
-57.7224
624.774
-1.78566
0.477279
615.571
-2.33482
56.8042
616.658
-2.05973
137.995
624.349
2.25547
215.426
616.373
-1.31991
278.614
581.954
-14.6197
336.209
545.24
-2.89261
383.469
511.962
34.1115
420.251
484.863
40.4467
448.256
449.831
9.76689
461.504
414.318
-19.8571
474.982
390.029
-12.4645
499.492
391.179
8.63394
520.715
386.547
31.8545
531.869
377.643
27.2972
350.838
12.0311
-115.325
322.66
4.82598
-120.881
417.118
5.70723
-157.891
517.007
3.40178
-122.58
585.323
-0.28615
-55.3215
626.388
-2.07888
0.269191
614.522
-2.40531
55.4451
616.853
-1.41133
130.898
624.657
1.1245
200.258
616.467
-8.37247
265.646
591.976
-6.32573
325.611
567.734
16.8281
366.185
530.323
29.1352
393.023
500.144
8.78122
412.493
463.977
-20.1632
433.461
437.163
-16.5215
460.622
415.956
12.1722