/*--------------------------------*- C++ -*----------------------------------*\
  =========                 |
  \\      /  F ield         | OpenFOAM: The Open Source CFD Toolbox
   \\    /   O peration     | Website:  https://openfoam.org
    \\  /    A nd           | Version:  9
     \\/     M anipulation  |
\*---------------------------------------------------------------------------*/
FoamFile
{
    format      ascii;
    class       volScalarField;
    location    "0.0095";
    object      rho;
}
// * * * * * * * * * * * * * * * * * * * * * * * * * * * * * * * * * * * * * //

dimensions      [1 -3 0 0 0 0 0];

internalField   nonuniform List<scalar> 
9720
(
1.88746
1.56006
0.952257
0.650944
0.73996
0.834437
0.831167
0.727796
0.587418
0.455104
0.363943
0.30812
0.282557
0.288325
0.303399
0.325984
0.357552
0.407302
0.470338
0.627363
1.56997
0.765821
0.43497
0.43294
0.696523
0.809567
0.807871
0.676803
0.462455
0.285855
0.188829
0.155162
0.156924
0.168076
0.191626
0.221199
0.25332
0.297509
0.3503
0.487648
0.966895
0.43173
0.380849
0.369849
0.673969
0.807152
0.80428
0.656265
0.363956
0.180993
0.113684
0.115841
0.127472
0.146642
0.171071
0.195635
0.217906
0.24453
0.275108
0.37247
0.64953
0.426557
0.366804
0.300098
0.524219
0.802584
0.845036
0.735994
0.341797
0.0815639
0.0880421
0.0996418
0.112529
0.125662
0.138457
0.151138
0.163649
0.177849
0.191706
0.232273
0.715667
0.670935
0.650105
0.523758
0.0699351
0.145095
0.155948
0.162625
0.166088
0.169324
0.173451
0.17816
0.182766
0.187971
0.193407
0.211958
0.80432
0.781512
0.779985
0.776732
0.199233
0.204562
0.201296
0.198658
0.197179
0.196455
0.196676
0.197606
0.199477
0.202268
0.20527
0.212107
0.799794
0.779301
0.777076
0.818864
0.21763
0.206327
0.203906
0.201671
0.199866
0.198438
0.197453
0.197526
0.198107
0.19946
0.200708
0.204587
0.698959
0.649879
0.630154
0.710634
0.186418
0.142599
0.149446
0.153901
0.157527
0.160316
0.163012
0.166197
0.16919
0.172115
0.174895
0.18157
0.561451
0.438398
0.340706
0.305074
0.073413
0.189583
0.207286
0.17493
0.018467
0.0333777
0.0554774
0.0758975
0.0922927
0.106193
0.116941
0.12575
0.133418
0.140215
0.146444
0.158229
0.433579
0.268074
0.168149
0.0781895
0.140364
0.196439
0.197191
0.136693
0.0357869
0.0123713
0.0169479
0.0277577
0.0431615
0.0595853
0.0749601
0.0883316
0.0993436
0.110558
0.12005
0.135222
0.347665
0.179572
0.107978
0.0848388
0.149512
0.192585
0.194153
0.143449
0.0582377
0.0176865
0.0100466
0.0123254
0.0189708
0.0302069
0.0433567
0.0562855
0.069702
0.0832532
0.0938577
0.111279
0.294713
0.149498
0.112099
0.0963447
0.154856
0.189901
0.19178
0.147732
0.0778816
0.029368
0.0126093
0.00927796
0.0104068
0.0145191
0.0219855
0.032782
0.0454566
0.0581525
0.0694928
0.0886205
0.270999
0.151949
0.125592
0.109546
0.15839
0.18802
0.190247
0.15122
0.0930624
0.0453551
0.0197482
0.0104703
0.00939824
0.0100508
0.0130819
0.0197195
0.0288253
0.0397941
0.0502459
0.0690344
0.276835
0.163426
0.144722
0.122752
0.162131
0.187279
0.188703
0.154017
0.106075
0.0619724
0.0315212
0.0147987
0.0100741
0.0104089
0.0118816
0.0150252
0.0204826
0.0281186
0.0362441
0.0533462
0.292131
0.186458
0.166692
0.135253
0.166406
0.187717
0.188538
0.156991
0.116708
0.07718
0.0451359
0.0226103
0.0132259
0.0119491
0.012538
0.0140355
0.0164203
0.0207198
0.0270008
0.0416407
0.314551
0.215308
0.189343
0.147514
0.170969
0.189069
0.188849
0.160535
0.125514
0.0903802
0.0585004
0.0339542
0.020171
0.0152924
0.0141717
0.0145205
0.0153845
0.0179576
0.0222375
0.0333484
0.344825
0.246211
0.211949
0.159715
0.175566
0.19145
0.189784
0.163827
0.132917
0.101382
0.0722508
0.0473292
0.029842
0.0211398
0.017072
0.0156248
0.016002
0.0174438
0.0193326
0.0272118
0.392419
0.288216
0.238975
0.174043
0.181129
0.194748
0.191686
0.167144
0.139693
0.112571
0.0860342
0.0608387
0.0414974
0.0294827
0.0221095
0.0187701
0.0177478
0.017948
0.018739
0.0239653
0.453169
0.337797
0.268894
0.187877
0.18713
0.19815
0.193518
0.170356
0.145989
0.1219
0.0968504
0.072655
0.0525755
0.0383633
0.0289709
0.0237284
0.0205306
0.0191809
0.0196714
0.0237396
0.605464
0.46954
0.361761
0.228599
0.206929
0.205849
0.198509
0.177984
0.157919
0.136894
0.114252
0.0919891
0.0720353
0.0563641
0.0446763
0.0363437
0.030149
0.0263718
0.0248532
0.0264784
1.88999
1.49433
0.894488
0.631955
0.743298
0.836897
0.833361
0.728363
0.585036
0.450355
0.356015
0.299693
0.272853
0.278332
0.293501
0.316364
0.347104
0.395037
0.455816
0.610622
1.50846
0.696879
0.424477
0.42881
0.707031
0.8145
0.810888
0.677636
0.457028
0.280968
0.18224
0.147366
0.148272
0.158304
0.181536
0.211842
0.243455
0.285257
0.335205
0.468119
0.909937
0.418783
0.370111
0.3656
0.686149
0.812553
0.807153
0.656037
0.355803
0.174953
0.108729
0.109794
0.119195
0.1365
0.160254
0.185987
0.208509
0.233458
0.26126
0.351728
0.626717
0.41771
0.353969
0.289952
0.557253
0.800881
0.842956
0.734704
0.345895
0.0783535
0.0842726
0.0953039
0.107652
0.120057
0.131835
0.143367
0.155031
0.168251
0.181204
0.218317
0.710499
0.666668
0.641559
0.501714
0.0697136
0.14045
0.151119
0.158002
0.161146
0.163804
0.167502
0.171917
0.176183
0.180798
0.185702
0.202191
0.801074
0.779393
0.778533
0.772956
0.192938
0.199621
0.196425
0.193677
0.191993
0.190903
0.190981
0.191638
0.193206
0.195675
0.198439
0.204638
0.796829
0.777855
0.77621
0.813835
0.210745
0.201325
0.198864
0.196613
0.194789
0.193007
0.19141
0.19142
0.191955
0.193287
0.194344
0.197572
0.696104
0.649404
0.63002
0.707909
0.180658
0.13845
0.145444
0.15005
0.153099
0.155207
0.157455
0.160868
0.164304
0.166795
0.168722
0.174497
0.5577
0.434772
0.336334
0.311801
0.0733741
0.187708
0.205292
0.172673
0.0186163
0.0321655
0.0533419
0.0727133
0.0880672
0.101658
0.113419
0.122379
0.128954
0.134316
0.139754
0.151632
0.428408
0.265381
0.164702
0.0763829
0.137702
0.194795
0.195542
0.134908
0.0349019
0.0114455
0.0154676
0.0252897
0.0402834
0.0570148
0.0720496
0.0843049
0.0938639
0.104013
0.114157
0.129692
0.338142
0.173134
0.103613
0.0825416
0.147729
0.191646
0.193175
0.142334
0.0566863
0.0161863
0.00924194
0.01167
0.018214
0.0285731
0.0404914
0.0518755
0.0638914
0.0779809
0.089523
0.106193
0.284065
0.140553
0.105876
0.0932752
0.154203
0.189217
0.191247
0.147305
0.0757757
0.0270278
0.0119555
0.00886613
0.00985178
0.0132693
0.0194963
0.0288708
0.0413927
0.0549653
0.0660168
0.0834082
0.259077
0.141911
0.116568
0.105773
0.157745
0.187652
0.189922
0.15047
0.0904605
0.0428901
0.0191525
0.00999345
0.00820466
0.0086641
0.0111863
0.0174963
0.0267349
0.0374006
0.0469023
0.0635818
0.2648
0.152061
0.133746
0.118434
0.160823
0.186667
0.188554
0.1527
0.103566
0.0603007
0.0303624
0.0137935
0.00872544
0.00894666
0.0104329
0.0135652
0.0187339
0.0256732
0.0325314
0.0479404
0.280402
0.174824
0.155904
0.130276
0.164621
0.186887
0.187494
0.15533
0.115454
0.0756623
0.0430332
0.0205327
0.0114688
0.0105247
0.0111683
0.0124086
0.0143343
0.0176552
0.022932
0.0369063
0.303494
0.2047
0.180471
0.14172
0.16887
0.187834
0.187673
0.159273
0.124656
0.0879007
0.0549424
0.0305548
0.0181803
0.0139153
0.0126313
0.0126946
0.0130921
0.014982
0.0190453
0.0298181
0.333468
0.235593
0.20344
0.153175
0.173024
0.189716
0.188441
0.163036
0.130992
0.0974005
0.0674058
0.0438542
0.028102
0.0195657
0.0150572
0.0133207
0.0135569
0.0152097
0.0173936
0.0247899
0.379662
0.275572
0.228654
0.166228
0.177778
0.192413
0.190058
0.165647
0.136237
0.10771
0.0819599
0.0583781
0.0396048
0.0272032
0.0190491
0.015722
0.015481
0.0160318
0.0170475
0.0219399
0.437847
0.322631
0.255497
0.179072
0.182928
0.195276
0.191469
0.167816
0.141803
0.117953
0.0939049
0.0700537
0.0497253
0.0347583
0.0249277
0.0204254
0.0183531
0.0173835
0.0178605
0.0215088
0.586716
0.450028
0.341493
0.215742
0.199846
0.201835
0.195383
0.174235
0.153971
0.13358
0.110816
0.0878316
0.0672144
0.0512587
0.0400478
0.0326206
0.027242
0.0238534
0.0224188
0.0239444
1.94275
1.43383
0.834376
0.626856
0.742814
0.835112
0.831183
0.725196
0.581964
0.447554
0.350311
0.293613
0.265717
0.271338
0.286853
0.309516
0.339692
0.385721
0.445702
0.601396
1.44503
0.617049
0.41497
0.438317
0.707388
0.812229
0.808375
0.672727
0.451563
0.277763
0.177336
0.141707
0.142442
0.151733
0.174644
0.205829
0.237853
0.27756
0.325501
0.457159
0.84079
0.406582
0.361543
0.366817
0.681575
0.810188
0.804997
0.650199
0.346859
0.170363
0.106897
0.106313
0.113591
0.128888
0.152269
0.18074
0.205602
0.229299
0.254269
0.338237
0.600063
0.410141
0.345677
0.278415
0.560217
0.801758
0.841879
0.731884
0.333296
0.0758415
0.0820986
0.0934036
0.105494
0.117385
0.128845
0.139672
0.150674
0.163189
0.175384
0.209226
0.703197
0.662217
0.635036
0.491986
0.0655492
0.138047
0.148001
0.155937
0.159746
0.161797
0.16462
0.168579
0.172993
0.177583
0.182279
0.197115
0.795188
0.773916
0.773437
0.771297
0.190752
0.198375
0.194961
0.191943
0.190102
0.189009
0.189125
0.189725
0.19119
0.193581
0.196492
0.202844
0.79419
0.774338
0.771753
0.809607
0.208981
0.200194
0.197342
0.194878
0.193108
0.191494
0.189759
0.189727
0.190241
0.191625
0.192958
0.196335
0.692845
0.647001
0.62778
0.703783
0.178493
0.137265
0.144159
0.149072
0.151701
0.153595
0.15574
0.159173
0.162918
0.165559
0.167344
0.172871
0.553983
0.434611
0.339243
0.322879
0.0640981
0.186677
0.204215
0.172311
0.017021
0.031991
0.0526853
0.071389
0.0864232
0.0993392
0.111532
0.121082
0.127248
0.132434
0.137639
0.149421
0.424816
0.265117
0.163044
0.0720716
0.134823
0.194202
0.194913
0.132728
0.032301
0.0103074
0.0141399
0.0235207
0.0378612
0.0546336
0.0696821
0.0814483
0.0908524
0.100773
0.111166
0.12724
0.330164
0.167704
0.100233
0.0779941
0.144284
0.190826
0.192265
0.140284
0.0533003
0.0145161
0.00828936
0.0105945
0.0169224
0.0265416
0.0376544
0.0486047
0.0598922
0.0740999
0.0864223
0.103142
0.274394
0.132579
0.100362
0.0888038
0.151754
0.187858
0.190039
0.145638
0.0722468
0.0245512
0.0108201
0.00828648
0.00907465
0.0120193
0.0177526
0.0262204
0.0381217
0.0520879
0.0628352
0.0797855
0.248278
0.133682
0.10801
0.100813
0.155783
0.18611
0.188693
0.148571
0.0872643
0.0395967
0.0176773
0.0092482
0.00745594
0.00786407
0.0100282
0.0157637
0.0246503
0.0346304
0.043656
0.059909
0.253996
0.142796
0.123003
0.112855
0.158083
0.185044
0.187421
0.150613
0.100128
0.0570065
0.0280912
0.0126366
0.00795614
0.00806925
0.00926886
0.0120038
0.0164706
0.02287
0.0295976
0.0444018
0.270024
0.164749
0.145236
0.124606
0.160936
0.185167
0.185981
0.153064
0.112534
0.0725876
0.0400216
0.0189814
0.0104252
0.00936152
0.00986535
0.0106918
0.0123124
0.0154868
0.0203117
0.0337206
0.293189
0.195326
0.172514
0.135646
0.164898
0.185826
0.186031
0.157064
0.122441
0.0845942
0.0516482
0.0281571
0.016701
0.0123857
0.0108048
0.0109241
0.0115147
0.0132955
0.0170105
0.0272461
0.323349
0.226934
0.197468
0.146753
0.169355
0.187383
0.186847
0.161227
0.128723
0.0941655
0.0635788
0.0409223
0.0263453
0.0173201
0.0127292
0.0116737
0.0119667
0.0136168
0.0158874
0.0227628
0.368
0.265406
0.221462
0.159204
0.174012
0.189868
0.188564
0.164074
0.134028
0.104449
0.0783304
0.0557035
0.037092
0.0242887
0.0164544
0.0138323
0.0139365
0.0146522
0.0156828
0.0202652
0.425082
0.311165
0.245841
0.171193
0.17875
0.192862
0.190194
0.166168
0.139453
0.114986
0.0909466
0.0671166
0.0467588
0.031735
0.0219339
0.0181238
0.0166661
0.0159181
0.0164026
0.0198453
0.574042
0.437704
0.32598
0.20441
0.193498
0.199585
0.194283
0.172398
0.151654
0.131399
0.108323
0.0849432
0.0641751
0.0479478
0.0366915
0.0297224
0.0247694
0.0217676
0.020599
0.0220456
1.96753
1.36876
0.781482
0.627583
0.742005
0.834474
0.830086
0.721833
0.576845
0.44285
0.342943
0.286726
0.258287
0.263419
0.279835
0.303305
0.334854
0.379899
0.438869
0.595173
1.38064
0.54994
0.406247
0.445505
0.701967
0.810504
0.807639
0.669958
0.446728
0.271987
0.171688
0.135433
0.136613
0.144698
0.167321
0.199665
0.23337
0.272108
0.318177
0.448786
0.77919
0.398723
0.358869
0.36277
0.66869
0.808476
0.804672
0.648544
0.342437
0.16274
0.103869
0.101754
0.108
0.121137
0.143422
0.173678
0.202896
0.227349
0.250135
0.327244
0.582979
0.411566
0.348683
0.276978
0.532523
0.801405
0.842279
0.731176
0.3099
0.0712688
0.0777593
0.0895136
0.101973
0.113563
0.125471
0.136881
0.147869
0.160124
0.17131
0.201189
0.698612
0.662867
0.63713
0.515118
0.0775573
0.137362
0.146462
0.154572
0.159971
0.161954
0.163861
0.166946
0.17127
0.176143
0.180455
0.192771
0.790905
0.771579
0.771214
0.766225
0.189676
0.198183
0.195202
0.192176
0.190146
0.18886
0.188912
0.189321
0.190334
0.19221
0.194743
0.20055
0.791159
0.770752
0.768147
0.806392
0.208675
0.200393
0.197919
0.195575
0.193699
0.192166
0.190383
0.189665
0.18993
0.190852
0.191978
0.195025
0.688845
0.642221
0.62264
0.700385
0.178415
0.136204
0.143282
0.148483
0.151331
0.15338
0.155636
0.158691
0.161958
0.164368
0.166187
0.171409
0.551572
0.430696
0.331728
0.307417
0.0686957
0.1865
0.204217
0.172289
0.015958
0.0297896
0.0499574
0.0686357
0.0844714
0.0976523
0.109471
0.119306
0.125983
0.131661
0.13703
0.147835
0.424309
0.262366
0.156529
0.0685901
0.134374
0.194175
0.195102
0.132548
0.0318636
0.00943689
0.0127919
0.0217663
0.0354678
0.0515821
0.0667655
0.0788298
0.0886928
0.0992797
0.109445
0.125108
0.326951
0.165028
0.0989534
0.0750238
0.142998
0.190827
0.192471
0.140003
0.0529637
0.0135535
0.00742219
0.00938485
0.0152095
0.0242926
0.0347262
0.0456114
0.0572889
0.0713884
0.0837008
0.10079
0.269572
0.128033
0.0977273
0.0867244
0.150804
0.187717
0.190304
0.145476
0.0716547
0.0235255
0.00965162
0.00758202
0.00829198
0.0107594
0.0160878
0.0244533
0.0358093
0.04947
0.0601411
0.0770939
0.241567
0.128878
0.103862
0.0991125
0.15602
0.185763
0.188905
0.148638
0.0867926
0.0379034
0.0160921
0.0085009
0.00686994
0.00726275
0.00937455
0.0146491
0.0230339
0.0324589
0.0407163
0.0570548
0.246635
0.13692
0.11645
0.110307
0.15813
0.184633
0.187791
0.150852
0.0992557
0.0544819
0.0261692
0.0115365
0.00736793
0.00753491
0.00856097
0.0109819
0.0149523
0.0202945
0.0268365
0.0419021
0.262337
0.157996
0.13725
0.121681
0.1601
0.184742
0.186377
0.153384
0.110805
0.0702926
0.0377446
0.0176107
0.00979191
0.00866529
0.0090206
0.00949736
0.0105267
0.0134112
0.0183989
0.031578
0.284649
0.188314
0.165354
0.132586
0.163208
0.185347
0.186201
0.156866
0.120929
0.082754
0.0493084
0.0266258
0.0155051
0.0113492
0.00962908
0.00947341
0.0100768
0.0121346
0.0156682
0.0255442
0.314104
0.219749
0.192774
0.143041
0.167564
0.18658
0.186638
0.160642
0.127955
0.0924642
0.0611567
0.0384165
0.0244766
0.0158341
0.0108813
0.010144
0.0106745
0.0125808
0.0149762
0.0216062
0.356282
0.25546
0.215882
0.154655
0.172339
0.188625
0.187975
0.163621
0.13352
0.102678
0.0750946
0.0525766
0.0348162
0.0218125
0.0140342
0.0123694
0.0127471
0.0138176
0.0151028
0.0194079
0.411299
0.297907
0.237108
0.165291
0.176566
0.191319
0.189515
0.165803
0.13867
0.112492
0.0874966
0.0639928
0.0437921
0.0288317
0.0194213
0.0161999
0.0154176
0.015242
0.0158178
0.0191409
0.560185
0.420924
0.307632
0.19398
0.188571
0.197662
0.193379
0.171543
0.149633
0.128526
0.105339
0.081877
0.0610394
0.0448184
0.0335833
0.0270499
0.0228213
0.0203365
0.0196084
0.0210411
1.98997
1.34276
0.752756
0.622605
0.74215
0.835227
0.830649
0.7202
0.573097
0.439255
0.33705
0.281215
0.254771
0.260518
0.277646
0.302201
0.335528
0.380791
0.43942
0.596028
1.35667
0.521101
0.398024
0.448656
0.704316
0.813179
0.808936
0.669327
0.443074
0.26751
0.168204
0.13078
0.132731
0.141428
0.163527
0.196118
0.231473
0.271213
0.317268
0.448744
0.751634
0.390714
0.352013
0.364715
0.673606
0.811039
0.806105
0.649051
0.338222
0.156494
0.102468
0.0993673
0.105134
0.116625
0.137424
0.167802
0.19986
0.22619
0.248725
0.322948
0.578185
0.408975
0.339519
0.270413
0.536632
0.800552
0.843826
0.732582
0.31715
0.0684075
0.075193
0.0874992
0.100404
0.111633
0.123408
0.135172
0.146311
0.158739
0.169757
0.197871
0.695011
0.657792
0.628776
0.503078
0.0657435
0.136976
0.145261
0.153192
0.15957
0.162139
0.163807
0.166428
0.170718
0.175986
0.180531
0.192153
0.787478
0.769818
0.770505
0.764776
0.189708
0.198269
0.195177
0.192174
0.19006
0.18867
0.188741
0.189222
0.190259
0.192078
0.194609
0.200516
0.789183
0.770319
0.76836
0.804917
0.20883
0.200859
0.198463
0.1962
0.194318
0.192826
0.191491
0.190288
0.190281
0.191012
0.19224
0.195545
0.685567
0.639668
0.620613
0.699164
0.179058
0.135723
0.142886
0.148049
0.151299
0.153665
0.156123
0.158929
0.161739
0.164361
0.166582
0.17185
0.548728
0.426427
0.324926
0.302302
0.0655804
0.186242
0.204274
0.172149
0.0154918
0.0287227
0.0484139
0.0674102
0.0836165
0.0970904
0.108472
0.118024
0.125623
0.132136
0.137602
0.147604
0.422573
0.258984
0.151945
0.0664961
0.134852
0.194248
0.195519
0.132758
0.0315882
0.00906771
0.0125786
0.0213307
0.0345767
0.0499229
0.0649119
0.0781356
0.088781
0.0992116
0.10869
0.12408
0.324755
0.162746
0.0971155
0.0732269
0.142931
0.191172
0.193182
0.13994
0.0522928
0.0134548
0.00709169
0.00878245
0.0141347
0.0231574
0.0342786
0.0455846
0.056948
0.0700195
0.0821699
0.100347
0.267209
0.125852
0.0965048
0.0855038
0.150426
0.188149
0.190995
0.145184
0.0712601
0.0233004
0.0090558
0.00729274
0.00816281
0.0110567
0.0164537
0.0244923
0.0349382
0.0477983
0.0593995
0.0774391
0.239982
0.127099
0.102329
0.0984582
0.156263
0.185975
0.189455
0.149044
0.0867424
0.0373091
0.0149909
0.00834003
0.00711872
0.00740502
0.00928897
0.0140767
0.0217877
0.0318067
0.0410278
0.0574057
0.244484
0.134919
0.113823
0.109281
0.158675
0.184698
0.188511
0.152016
0.0994542
0.0530592
0.0249099
0.0117073
0.00749724
0.00750381
0.00821687
0.0103605
0.0145749
0.0208051
0.0274555
0.0419844
0.259358
0.155415
0.133334
0.120244
0.160361
0.184822
0.187665
0.154516
0.11019
0.0684881
0.0369824
0.017768
0.00965596
0.00829207
0.00861572
0.00946061
0.0110208
0.0139951
0.0186231
0.0310723
0.280734
0.185545
0.161036
0.131176
0.162858
0.185432
0.187083
0.157091
0.119455
0.0819668
0.0489518
0.0264476
0.0148178
0.0106198
0.00955052
0.00976094
0.0103807
0.0120222
0.0150209
0.0248621
0.309571
0.216817
0.190022
0.141521
0.166915
0.186589
0.187171
0.160075
0.127407
0.0925067
0.0605182
0.0372658
0.0229395
0.0152267
0.011355
0.0104601
0.0107978
0.0122083
0.014648
0.0217495
0.349446
0.250752
0.213879
0.152935
0.17181
0.188341
0.188024
0.163398
0.134144
0.102429
0.0733819
0.0503828
0.0337045
0.0221019
0.0145926
0.0121788
0.0123191
0.0133469
0.0152458
0.0201043
0.402611
0.290197
0.233579
0.16298
0.175953
0.190757
0.189548
0.166256
0.139371
0.111371
0.0852631
0.06235
0.0434534
0.0290671
0.0193531
0.0152803
0.0148464
0.0153558
0.0163687
0.0194851
0.550885
0.408285
0.296554
0.188905
0.186514
0.1967
0.193458
0.171946
0.149043
0.126638
0.103699
0.0809032
0.0602781
0.043921
0.0321684
0.0255788
0.0224758
0.0207486
0.0198402
0.0209205
1.98874
1.33758
0.746308
0.61882
0.742917
0.836774
0.831525
0.720533
0.572894
0.439671
0.336649
0.280601
0.255372
0.260992
0.27783
0.302468
0.336485
0.382798
0.442105
0.598959
1.35457
0.517561
0.395587
0.449064
0.708453
0.816377
0.810102
0.669801
0.44253
0.267355
0.16857
0.130873
0.133194
0.142447
0.164437
0.196222
0.231333
0.271547
0.318619
0.451923
0.753109
0.388069
0.34884
0.366957
0.679317
0.814861
0.807573
0.64949
0.337464
0.156226
0.102727
0.0999692
0.105955
0.117678
0.138552
0.169071
0.201116
0.226952
0.249335
0.324998
0.582791
0.410814
0.337095
0.268058
0.553515
0.801961
0.845492
0.734688
0.312649
0.0680583
0.0750915
0.0877189
0.100803
0.111864
0.12336
0.135135
0.146682
0.159434
0.170369
0.19842
0.693497
0.653463
0.622777
0.483483
0.0664943
0.137017
0.145144
0.153044
0.159476
0.161953
0.163602
0.166057
0.170195
0.17546
0.180074
0.191751
0.784853
0.766117
0.766592
0.765741
0.189823
0.198436
0.19536
0.192338
0.190257
0.188758
0.188715
0.189099
0.190131
0.191924
0.194335
0.199961
0.78855
0.770276
0.768438
0.80508
0.209098
0.200886
0.198299
0.196073
0.194396
0.192871
0.191122
0.18981
0.189895
0.190829
0.192079
0.195186
0.684961
0.639514
0.620974
0.698557
0.178752
0.136076
0.143223
0.148368
0.151671
0.154064
0.156274
0.159192
0.162358
0.164907
0.166952
0.171912
0.548405
0.426934
0.326903
0.313127
0.0591084
0.186517
0.204891
0.173155
0.0155939
0.029586
0.0496282
0.0686587
0.0844269
0.0977838
0.109191
0.118868
0.1267
0.133219
0.138169
0.147806
0.421902
0.258911
0.152142
0.0657669
0.13421
0.194705
0.196082
0.132389
0.0305277
0.00908003
0.0128897
0.0218018
0.0351028
0.0504127
0.0656123
0.0790504
0.0897889
0.0998047
0.109202
0.124669
0.324377
0.162954
0.096932
0.072426
0.142506
0.191716
0.193633
0.140007
0.0510397
0.0132638
0.00705974
0.00876213
0.014124
0.023299
0.0346173
0.0460753
0.0573087
0.0702689
0.0824785
0.100714
0.267094
0.125854
0.0962736
0.084829
0.150174
0.18876
0.191511
0.145663
0.0701515
0.0227796
0.00894179
0.00722087
0.00813676
0.0110981
0.0165284
0.0245199
0.0348878
0.0477346
0.0594863
0.0775715
0.239916
0.127164
0.102344
0.0979083
0.156171
0.186648
0.190084
0.149024
0.0855684
0.0365641
0.0147011
0.00825577
0.00708336
0.00735178
0.00919039
0.0138969
0.0215764
0.0318182
0.0410435
0.0573219
0.244382
0.135023
0.113956
0.108996
0.158688
0.185345
0.188951
0.151211
0.09833
0.0522191
0.0244259
0.0115491
0.00743055
0.00742156
0.00811257
0.010248
0.014552
0.0207907
0.0273503
0.0417269
0.259181
0.155143
0.132912
0.120081
0.16044
0.185449
0.187519
0.153472
0.109465
0.067638
0.0363637
0.0175103
0.00953167
0.00819358
0.00853211
0.00942271
0.0109796
0.0138378
0.018341
0.0308221
0.28047
0.184996
0.160125
0.130907
0.162911
0.186035
0.18697
0.156778
0.119145
0.0810356
0.0482719
0.026075
0.014656
0.0105511
0.00950905
0.00969406
0.0102382
0.0118095
0.0148652
0.0248104
0.309177
0.21627
0.188951
0.140984
0.166866
0.187185
0.187231
0.160507
0.126646
0.091519
0.0598289
0.0369694
0.0228546
0.0151989
0.0112596
0.0103155
0.0106242
0.0120425
0.0145398
0.0216741
0.348664
0.249905
0.212843
0.152196
0.171746
0.189025
0.188378
0.163495
0.132956
0.101512
0.0729652
0.0502047
0.0334943
0.0218355
0.0143798
0.0119907
0.0121581
0.013261
0.0150808
0.0197132
0.401237
0.288491
0.232313
0.162255
0.176081
0.191487
0.189901
0.165732
0.138278
0.110911
0.085091
0.0619411
0.0429886
0.028705
0.0190807
0.0151296
0.0147629
0.0152251
0.0160533
0.0190907
0.548736
0.404758
0.293436
0.18796
0.18676
0.19734
0.193519
0.171233
0.148697
0.126567
0.103199
0.0801385
0.0596959
0.0435288
0.0319293
0.0255356
0.022427
0.0204481
0.0194773
0.0206419
1.96727
1.35811
0.767983
0.62222
0.74513
0.839642
0.833106
0.722792
0.574893
0.441906
0.340581
0.285907
0.259636
0.265087
0.281253
0.304657
0.337471
0.384592
0.445178
0.602939
1.37591
0.540198
0.397495
0.450606
0.712081
0.819219
0.810512
0.67068
0.444124
0.269843
0.170229
0.134864
0.136934
0.146093
0.168681
0.200331
0.234212
0.274246
0.322324
0.456811
0.778265
0.390182
0.34907
0.372021
0.682347
0.817438
0.807523
0.649165
0.338848
0.159737
0.103477
0.102103
0.10838
0.121407
0.14417
0.175289
0.205202
0.22948
0.252437
0.3323
0.584094
0.406443
0.336889
0.269454
0.555031
0.802937
0.846255
0.735402
0.313226
0.0697115
0.0768349
0.0893113
0.10208
0.113555
0.125558
0.137431
0.149005
0.161654
0.172863
0.202987
0.692542
0.652836
0.623987
0.485295
0.066747
0.136846
0.145427
0.15371
0.159614
0.161755
0.163646
0.166739
0.171357
0.17659
0.181025
0.193597
0.785253
0.766412
0.766416
0.766028
0.189773
0.198115
0.19476
0.191596
0.189594
0.188362
0.188442
0.188985
0.190123
0.192084
0.194632
0.200569
0.788201
0.770449
0.76883
0.805888
0.209121
0.200364
0.197745
0.195406
0.193635
0.192235
0.190546
0.189975
0.190236
0.191187
0.192367
0.195543
0.684804
0.639243
0.620208
0.699267
0.178488
0.136397
0.143377
0.1486
0.151637
0.153809
0.156217
0.159455
0.162974
0.165609
0.167445
0.17242
0.547737
0.42583
0.324401
0.299991
0.0665209
0.18617
0.204618
0.173087
0.0155968
0.0307017
0.0513039
0.0698646
0.0854587
0.0984483
0.11023
0.120456
0.127523
0.133036
0.138147
0.148711
0.421286
0.258887
0.153625
0.0675946
0.134927
0.19397
0.195415
0.132054
0.0302781
0.00922066
0.0128375
0.0220415
0.0357977
0.0519637
0.067457
0.0798563
0.0896536
0.100069
0.110086
0.125931
0.325774
0.163827
0.0972926
0.0746006
0.142995
0.190802
0.19297
0.139516
0.0507567
0.0129447
0.00715702
0.00911822
0.0150211
0.0243336
0.0351093
0.0460617
0.0576591
0.0715002
0.0839015
0.101426
0.269181
0.128058
0.0977099
0.0868415
0.150339
0.187766
0.190802
0.145121
0.0693812
0.0223434
0.00923323
0.00738418
0.00817363
0.0107649
0.0161216
0.0244017
0.0355146
0.0491974
0.0601457
0.0773161
0.24119
0.12877
0.104443
0.0994913
0.155874
0.18582
0.189277
0.148377
0.0849161
0.0363497
0.015401
0.0082734
0.00671689
0.00707974
0.00911275
0.0142166
0.0225549
0.0323076
0.0406343
0.0569667
0.246203
0.136424
0.116763
0.110427
0.158275
0.18462
0.188058
0.150665
0.0977941
0.0527959
0.0251175
0.0111688
0.00715033
0.00729868
0.00828137
0.0106783
0.0147692
0.020195
0.0266381
0.0415862
0.262066
0.157396
0.136711
0.121601
0.160157
0.184711
0.186424
0.153029
0.109552
0.0683919
0.0363276
0.0169396
0.00942089
0.00837556
0.00876439
0.00932856
0.0103787
0.0130929
0.0179078
0.0311097
0.28443
0.188166
0.16419
0.13268
0.162984
0.185243
0.186052
0.156272
0.119488
0.0807228
0.0476827
0.0256663
0.0149623
0.0110539
0.00946271
0.00927231
0.00980224
0.0117583
0.0152582
0.0253253
0.313336
0.219754
0.192209
0.143253
0.167173
0.186402
0.186427
0.15991
0.126366
0.0906401
0.0595902
0.0373824
0.0238649
0.0155692
0.0107151
0.0098739
0.0103663
0.0122329
0.0148316
0.0215468
0.354445
0.254579
0.2161
0.154936
0.172007
0.188452
0.187745
0.162829
0.132226
0.101239
0.0738468
0.0515446
0.0340842
0.0214217
0.0136975
0.012017
0.0124242
0.0136511
0.0149436
0.0189673
0.408241
0.295187
0.236859
0.165432
0.176311
0.19118
0.189346
0.165046
0.137661
0.11144
0.0863165
0.0627133
0.0428106
0.0282301
0.0188609
0.0158564
0.0153107
0.0151079
0.015526
0.0186073
0.555579
0.415011
0.3037
0.192912
0.187984
0.197416
0.193101
0.17079
0.148877
0.12752
0.104
0.0803903
0.0598444
0.0439596
0.0329852
0.0268426
0.0228534
0.0200538
0.0191119
0.0205361
1.94315
1.41704
0.820261
0.63036
0.750383
0.844461
0.836789
0.728242
0.580703
0.446157
0.347682
0.292878
0.266872
0.272603
0.287541
0.309834
0.341169
0.389833
0.452143
0.610423
1.43738
0.603859
0.409877
0.4479
0.717409
0.823167
0.813247
0.675066
0.449285
0.274969
0.174503
0.140032
0.141527
0.152045
0.175631
0.20641
0.238806
0.28013
0.330353
0.466416
0.834818
0.40066
0.356387
0.37479
0.689985
0.821113
0.809599
0.652347
0.344857
0.167022
0.105198
0.10468
0.111882
0.12776
0.152559
0.182379
0.207961
0.231878
0.257515
0.345315
0.592785
0.404431
0.34132
0.275754
0.560964
0.806037
0.847413
0.736054
0.317791
0.0734346
0.0800374
0.0917518
0.103961
0.116021
0.12802
0.139588
0.151194
0.16417
0.176547
0.211245
0.697104
0.657025
0.630253
0.488102
0.0683796
0.136998
0.146626
0.154963
0.159258
0.161196
0.163842
0.167847
0.172442
0.177111
0.181792
0.196992
0.789673
0.770215
0.769875
0.768606
0.189412
0.197534
0.194149
0.191115
0.189358
0.188235
0.188286
0.188701
0.189874
0.192063
0.194933
0.201485
0.789741
0.772303
0.770713
0.806807
0.208419
0.199565
0.197026
0.194814
0.193168
0.191646
0.189757
0.189441
0.18984
0.191027
0.192253
0.195549
0.687702
0.642909
0.624044
0.699261
0.177709
0.135936
0.143356
0.148667
0.151531
0.153495
0.155687
0.159338
0.163406
0.165908
0.167399
0.172478
0.549516
0.429552
0.331867
0.315386
0.060405
0.185933
0.204089
0.172537
0.0170351
0.0312893
0.0519449
0.0706763
0.0858212
0.0989395
0.111511
0.121631
0.127962
0.132917
0.137944
0.149673
0.422213
0.26167
0.159237
0.0703348
0.135444
0.194612
0.195706
0.133377
0.0321145
0.0100325
0.0137384
0.0228991
0.0370971
0.0540601
0.0696413
0.0816842
0.0910176
0.100872
0.111403
0.127877
0.329225
0.166619
0.0985105
0.0770197
0.144501
0.191391
0.193259
0.1408
0.0530356
0.0140821
0.00792716
0.0101814
0.0165143
0.0262536
0.0374444
0.0483578
0.0595317
0.0738218
0.0866203
0.103835
0.273026
0.131494
0.0994995
0.0884224
0.151693
0.188505
0.191119
0.146127
0.0717667
0.0237684
0.0103363
0.00809
0.00893622
0.011828
0.0173819
0.0256504
0.0374851
0.0518127
0.062956
0.0800713
0.246524
0.132636
0.108131
0.100628
0.156123
0.186758
0.189692
0.149109
0.0866691
0.0384768
0.0170496
0.00906883
0.00716243
0.00752711
0.00958091
0.0152165
0.0242114
0.0344018
0.0434904
0.0597684
0.252339
0.141765
0.122887
0.112606
0.158659
0.185696
0.188398
0.151104
0.099521
0.0557839
0.0273488
0.0123039
0.00760674
0.00770507
0.00892587
0.0117026
0.0161844
0.022513
0.0292377
0.044011
0.268532
0.163861
0.144235
0.124614
0.161484
0.185827
0.186775
0.153338
0.111843
0.0714767
0.0391127
0.0183468
0.00992529
0.00901689
0.00957835
0.0104388
0.0120078
0.0150899
0.0197784
0.0332726
0.291713
0.194599
0.171018
0.136009
0.165305
0.186488
0.186713
0.157085
0.121779
0.083542
0.0505367
0.0271728
0.0159999
0.0120989
0.0105632
0.0106533
0.0112207
0.0129463
0.0166352
0.02708
0.321548
0.225906
0.196457
0.147088
0.169703
0.188002
0.187336
0.161266
0.128189
0.093002
0.0621976
0.0396312
0.0255771
0.0170364
0.0124448
0.0113751
0.011657
0.0133071
0.0157927
0.022822
0.365395
0.262971
0.220288
0.159257
0.174342
0.190425
0.18896
0.164161
0.133311
0.103088
0.0768271
0.0544797
0.0363922
0.0238824
0.0160285
0.0134343
0.0136193
0.0145318
0.0156409
0.0201272
0.42187
0.306837
0.243438
0.170707
0.179013
0.193373
0.190532
0.166019
0.138528
0.113693
0.0896558
0.0660042
0.0459267
0.0311322
0.0212863
0.017677
0.0165411
0.0158751
0.0162963
0.019534
0.57064
0.431423
0.319103
0.201807
0.192902
0.199831
0.194296
0.171797
0.15067
0.130245
0.107082
0.0835827
0.0629428
0.0469609
0.0359491
0.0293805
0.0246962
0.0215341
0.0202162
0.0216055
1.89169
1.4771
0.884325
0.644682
0.756118
0.849654
0.841277
0.735167
0.588572
0.45215
0.355788
0.300571
0.274526
0.279608
0.293642
0.315741
0.347457
0.397762
0.460802
0.618563
1.50054
0.683636
0.427933
0.444698
0.720832
0.826742
0.817854
0.68281
0.459099
0.281774
0.181566
0.147251
0.148643
0.159516
0.182804
0.212047
0.243649
0.286647
0.338546
0.475554
0.899556
0.413145
0.370908
0.375193
0.697333
0.824044
0.813632
0.660111
0.356942
0.174885
0.108551
0.109175
0.11835
0.136531
0.161681
0.188181
0.210744
0.235867
0.264605
0.359393
0.613569
0.408462
0.348136
0.285135
0.569674
0.81001
0.849248
0.738882
0.340093
0.0774806
0.0833823
0.0941938
0.106189
0.118703
0.130908
0.143036
0.155263
0.169111
0.182478
0.221287
0.703548
0.661523
0.637658
0.493036
0.0657501
0.13833
0.149071
0.156107
0.159332
0.162051
0.165918
0.170555
0.174943
0.179624
0.184625
0.202044