/*--------------------------------*- C++ -*----------------------------------*\
  =========                 |
  \\      /  F ield         | OpenFOAM: The Open Source CFD Toolbox
   \\    /   O peration     | Website:  https://openfoam.org
    \\  /    A nd           | Version:  9
     \\/     M anipulation  |
\*---------------------------------------------------------------------------*/
FoamFile
{
    format      ascii;
    class       volScalarField;
    location    "0.0095";
    object      rho.C4;
}
// * * * * * * * * * * * * * * * * * * * * * * * * * * * * * * * * * * * * * //

dimensions      [1 -3 0 0 0 0 0];

internalField   nonuniform List<scalar> 
9720
(
1.88751
1.56011
0.952289
0.650966
0.739985
0.834464
0.831193
0.727819
0.587436
0.455119
0.363957
0.308136
0.282577
0.288351
0.303435
0.326029
0.357612
0.407383
0.470439
0.627493
1.57001
0.765847
0.434986
0.432956
0.69655
0.809597
0.8079
0.676828
0.462473
0.285871
0.188849
0.155189
0.156963
0.16813
0.191697
0.221292
0.253435
0.297656
0.350479
0.487887
0.966925
0.431745
0.380864
0.369864
0.673998
0.807186
0.804312
0.656292
0.363975
0.181022
0.113718
0.11589
0.127539
0.146731
0.171185
0.195773
0.218067
0.244717
0.275323
0.372758
0.649551
0.426572
0.366818
0.300116
0.524252
0.802633
0.845087
0.736039
0.341822
0.0816057
0.088099
0.099715
0.112619
0.125767
0.138577
0.151272
0.163796
0.17801
0.191881
0.232485
0.715688
0.670957
0.650129
0.523788
0.0699816
0.145228
0.156093
0.162777
0.166245
0.169486
0.173618
0.178332
0.182944
0.188154
0.193596
0.212167
0.804343
0.781537
0.780013
0.776774
0.19941
0.204761
0.201494
0.198855
0.197375
0.196652
0.196875
0.197807
0.199681
0.202475
0.205482
0.212328
0.799817
0.779325
0.777104
0.818907
0.217836
0.20654
0.204118
0.201883
0.200077
0.198649
0.197664
0.197739
0.198321
0.199677
0.200927
0.204812
0.698978
0.649899
0.630175
0.710671
0.186604
0.142755
0.14961
0.154073
0.157704
0.160497
0.163197
0.166387
0.169384
0.172313
0.175096
0.18178
0.561466
0.438412
0.340722
0.305095
0.0734484
0.189697
0.207418
0.175047
0.0184839
0.0334131
0.055538
0.075982
0.0923975
0.106317
0.117078
0.125899
0.133577
0.140382
0.14662
0.158421
0.433591
0.268087
0.168172
0.0782205
0.140458
0.196577
0.197337
0.136798
0.0358182
0.0123836
0.0169658
0.0277883
0.0432107
0.0596547
0.0750488
0.0884375
0.0994641
0.110694
0.120201
0.135395
0.347676
0.179588
0.108004
0.0848809
0.149614
0.192723
0.194299
0.143562
0.058287
0.0177031
0.0100569
0.0123388
0.0189924
0.030242
0.0434081
0.0563535
0.0697884
0.0833594
0.0939795
0.111426
0.294726
0.149519
0.112137
0.0963989
0.154963
0.190039
0.191927
0.14785
0.0779474
0.029395
0.0126221
0.00928795
0.0104184
0.0145357
0.0220116
0.0328223
0.0455146
0.0582286
0.0695847
0.0887396
0.271015
0.15198
0.125645
0.109613
0.158502
0.188159
0.190395
0.151341
0.0931412
0.0453967
0.0197678
0.0104813
0.00940848
0.0100623
0.0130977
0.0197443
0.0288626
0.0398465
0.0503129
0.069129
0.276856
0.163468
0.144791
0.122831
0.162247
0.187419
0.188852
0.154143
0.106166
0.062029
0.0315517
0.0148137
0.0100849
0.0104209
0.011896
0.0150442
0.0205091
0.0281558
0.0362929
0.0534212
0.29216
0.186514
0.166779
0.135342
0.166526
0.187859
0.188689
0.157121
0.116809
0.0772501
0.0451788
0.0226331
0.0132402
0.0119629
0.0125533
0.0140532
0.0164415
0.0207474
0.0270379
0.0417015
0.314588
0.21538
0.189448
0.147614
0.171094
0.189215
0.189002
0.16067
0.125624
0.0904622
0.0585561
0.0339886
0.020193
0.0153101
0.0141889
0.0145387
0.0154045
0.017982
0.0222692
0.0333992
0.344873
0.246301
0.212071
0.159825
0.175696
0.191599
0.189939
0.163966
0.133033
0.101475
0.0723201
0.0473777
0.0298745
0.021164
0.0170923
0.0156442
0.016023
0.0174683
0.0193611
0.0272541
0.392484
0.28833
0.239117
0.174165
0.181264
0.194901
0.191844
0.167287
0.139817
0.112675
0.086118
0.0609014
0.0415423
0.0295158
0.0221355
0.0187936
0.0177716
0.0179736
0.0187667
0.0240028
0.453249
0.337934
0.269058
0.188009
0.187271
0.198307
0.193678
0.170504
0.14612
0.122015
0.0969458
0.0727299
0.0526319
0.0384063
0.0290051
0.0237583
0.0205583
0.0192082
0.0197005
0.0237768
0.605568
0.469724
0.361979
0.228761
0.207087
0.206014
0.198676
0.178141
0.158064
0.137025
0.114366
0.0920844
0.072113
0.0564278
0.0447298
0.0363902
0.0301898
0.0264093
0.0248899
0.0265205
1.89003
1.49436
0.894502
0.631964
0.74331
0.83691
0.833373
0.728373
0.585045
0.450363
0.356025
0.299707
0.272872
0.27836
0.293539
0.316414
0.34717
0.395125
0.455926
0.610766
1.50848
0.696889
0.424482
0.428815
0.70704
0.814509
0.810897
0.677644
0.457036
0.28098
0.182259
0.147394
0.148314
0.158363
0.181616
0.211946
0.243584
0.285421
0.335403
0.468385
0.909951
0.418789
0.370115
0.365603
0.686154
0.812559
0.807159
0.656042
0.355814
0.174986
0.108768
0.10985
0.11927
0.136599
0.160381
0.186143
0.20869
0.233666
0.261499
0.352046
0.626726
0.417714
0.353971
0.289954
0.557257
0.800886
0.842962
0.734709
0.345905
0.0784045
0.0843397
0.0953888
0.107755
0.120178
0.131971
0.143518
0.155195
0.16843
0.181398
0.21855
0.710509
0.666675
0.641564
0.501717
0.0697718
0.140608
0.151289
0.158181
0.161329
0.16399
0.167693
0.172113
0.176384
0.181005
0.185915
0.202424
0.801084
0.779401
0.778538
0.77296
0.193147
0.199859
0.196659
0.193908
0.192223
0.191131
0.19121
0.191868
0.193438
0.195911
0.19868
0.204886
0.796839
0.777863
0.776215
0.813839
0.210988
0.20158
0.199116
0.196861
0.195035
0.193251
0.191651
0.191663
0.1922
0.193534
0.194592
0.197825
0.696113
0.64941
0.630024
0.707913
0.180878
0.138635
0.145639
0.150251
0.153303
0.155412
0.157665
0.161083
0.164524
0.167018
0.168948
0.174732
0.557707
0.434778
0.336345
0.311812
0.0734269
0.187876
0.205486
0.172845
0.0186392
0.0322088
0.0534134
0.0728109
0.0881867
0.1018
0.113578
0.12255
0.129133
0.134502
0.139949
0.151847
0.428415
0.265392
0.16473
0.0764279
0.137838
0.194998
0.195758
0.135063
0.0349453
0.0114602
0.0154878
0.0253241
0.0403402
0.0570955
0.072151
0.0844231
0.0939958
0.104162
0.114324
0.129884
0.33815
0.173151
0.103647
0.0826
0.147875
0.191845
0.193386
0.142496
0.0567546
0.0162063
0.00925414
0.0116863
0.0182397
0.0286131
0.0405478
0.0519483
0.0639839
0.0780989
0.0896602
0.106355
0.284077
0.140577
0.105923
0.0933481
0.154354
0.189412
0.191454
0.147472
0.0758641
0.0270613
0.0119716
0.00887838
0.00986523
0.0132873
0.0195234
0.0289128
0.0414564
0.0550506
0.0661184
0.0835366
0.259093
0.141947
0.116633
0.105861
0.157899
0.187845
0.190126
0.150637
0.0905654
0.0429437
0.0191781
0.0100067
0.00821544
0.00867581
0.0112025
0.0175233
0.0267765
0.0374584
0.0469743
0.0636809
0.264824
0.152111
0.13383
0.118537
0.16098
0.186858
0.188755
0.152868
0.103686
0.0603761
0.0304013
0.013811
0.00873686
0.00895927
0.0104489
0.0135862
0.0187626
0.0257123
0.0325813
0.0480174
0.280434
0.174891
0.156011
0.130391
0.164781
0.187077
0.187693
0.155502
0.115589
0.0757548
0.0430859
0.0205586
0.0114842
0.0105403
0.0111853
0.0124273
0.0143558
0.017682
0.022968
0.0369687
0.303536
0.204787
0.1806
0.141846
0.169033
0.188025
0.187872
0.15945
0.1248
0.0880042
0.0550089
0.0305939
0.0182059
0.0139358
0.0126499
0.0127131
0.0131115
0.0150052
0.019077
0.0298708
0.333522
0.235701
0.203589
0.153312
0.173191
0.189908
0.188641
0.163217
0.131141
0.0975144
0.0674883
0.0439124
0.0281417
0.0195935
0.0150783
0.0133397
0.0135774
0.0152348
0.0174237
0.0248337
0.379735
0.275707
0.228826
0.166376
0.177949
0.192608
0.190259
0.16583
0.136392
0.107838
0.0820628
0.0584561
0.039659
0.02724
0.0190754
0.0157447
0.0155055
0.016059
0.0170769
0.0219784
0.437938
0.322792
0.255692
0.179233
0.183104
0.195474
0.191671
0.168001
0.141965
0.118095
0.0940236
0.0701453
0.0497906
0.0348048
0.0249624
0.020456
0.0183828
0.0174126
0.0178906
0.0215462
0.586833
0.450242
0.341749
0.215934
0.200038
0.202039
0.19559
0.174428
0.154149
0.133742
0.110955
0.0879442
0.0673028
0.0513286
0.0401057
0.0326705
0.0272854
0.0238922
0.0224561
0.0239868
1.94276
1.43383
0.834378
0.626857
0.742816
0.835113
0.831185
0.725197
0.581966
0.447558
0.35032
0.293629
0.26574
0.271375
0.286904
0.309583
0.339778
0.385836
0.445849
0.601591
1.44503
0.61705
0.414971
0.438317
0.707389
0.812229
0.808375
0.672727
0.451566
0.277777
0.177361
0.141744
0.142498
0.151812
0.174753
0.205971
0.238029
0.27778
0.325768
0.457522
0.840792
0.406582
0.361543
0.366817
0.681575
0.810188
0.804998
0.650199
0.346872
0.170407
0.10695
0.106387
0.113689
0.129018
0.152437
0.180951
0.205851
0.229583
0.254592
0.338663
0.600064
0.410141
0.345677
0.278415
0.560217
0.801758
0.841879
0.731884
0.333307
0.0759097
0.0821888
0.0935182
0.105633
0.117548
0.129029
0.139875
0.150896
0.16343
0.175645
0.209537
0.703198
0.662217
0.635036
0.491986
0.0656183
0.138259
0.14823
0.15618
0.159997
0.162052
0.16488
0.168847
0.173268
0.177865
0.182569
0.197428
0.795189
0.773917
0.773437
0.771297
0.191012
0.198698
0.19528
0.192258
0.190416
0.189322
0.189439
0.190041
0.191508
0.193905
0.19682
0.203183
0.794191
0.774339
0.771754
0.809607
0.209283
0.200537
0.197682
0.195215
0.193443
0.191826
0.190089
0.190058
0.190574
0.191961
0.193297
0.196679
0.692846
0.647001
0.62778
0.703783
0.178765
0.137511
0.144421
0.149344
0.151977
0.153874
0.156023
0.159465
0.163219
0.165864
0.167651
0.173189
0.553985
0.434613
0.339253
0.322887
0.0641608
0.186913
0.204488
0.172553
0.0170488
0.0320491
0.0527813
0.0715192
0.0865821
0.0995262
0.111746
0.121315
0.12749
0.132684
0.137899
0.149707
0.424819
0.265129
0.16308
0.0721278
0.135008
0.194484
0.195211
0.132939
0.032356
0.0103256
0.014165
0.0235635
0.0379334
0.05474
0.0698171
0.081604
0.0910254
0.100966
0.111385
0.127496
0.330171
0.167724
0.100276
0.0780696
0.144482
0.191103
0.192558
0.140507
0.05339
0.0145409
0.00830405
0.0106146
0.0169552
0.0265928
0.0377259
0.0486968
0.0600078
0.0742495
0.0866022
0.103355
0.274406
0.13261
0.100424
0.0888997
0.151963
0.18813
0.190328
0.145869
0.0723655
0.0245931
0.01084
0.00830234
0.00909187
0.0120416
0.0177857
0.0262707
0.0381996
0.0521978
0.0629668
0.0799505
0.248297
0.133728
0.108092
0.10093
0.155998
0.18638
0.18898
0.148805
0.0874065
0.0396651
0.0177101
0.00926538
0.00746941
0.00787839
0.0100472
0.015796
0.0247025
0.0347032
0.043746
0.060033
0.254026
0.142861
0.123111
0.112992
0.158302
0.185312
0.187705
0.150849
0.100291
0.057106
0.0281423
0.0126591
0.00797035
0.00808433
0.00928775
0.0120291
0.016505
0.0229167
0.0296577
0.0444952
0.270066
0.164839
0.145376
0.124761
0.161158
0.185434
0.186262
0.153304
0.112719
0.0727137
0.0400914
0.0190146
0.0104442
0.00938021
0.00988585
0.0107138
0.012337
0.0155176
0.0203532
0.0337948
0.293245
0.195445
0.172689
0.135817
0.165125
0.186094
0.186311
0.157311
0.122642
0.0847369
0.0517362
0.0282069
0.016733
0.0124108
0.0108266
0.0109455
0.0115371
0.0133221
0.017047
0.0273089
0.323421
0.227083
0.197676
0.14694
0.169587
0.187653
0.187129
0.16148
0.128932
0.0943214
0.0636876
0.0409971
0.026397
0.0173543
0.0127536
0.0116959
0.0119902
0.0136457
0.0159236
0.0228154
0.368096
0.26559
0.2217
0.159407
0.17425
0.19014
0.188847
0.164331
0.134243
0.104623
0.0784673
0.0558076
0.0371633
0.0243344
0.0164851
0.0138588
0.0139652
0.014685
0.0157184
0.0203115
0.425205
0.311386
0.246108
0.171412
0.178995
0.193139
0.190479
0.166426
0.139678
0.11518
0.0911079
0.0672408
0.046845
0.0317934
0.021975
0.0181598
0.0167021
0.0159534
0.0164389
0.01989
0.574205
0.438004
0.32633
0.204669
0.193762
0.19987
0.194574
0.172667
0.1519
0.131622
0.108514
0.0850963
0.0642923
0.0480375
0.0367633
0.029784
0.0248225
0.0218145
0.0206438
0.0220962
1.96753
1.36876
0.781482
0.627583
0.742005
0.834474
0.830087
0.721833
0.576846
0.442854
0.342953
0.286745
0.258318
0.263469
0.279905
0.303398
0.334972
0.380054
0.43907
0.595443
1.38064
0.54994
0.406247
0.445505
0.701967
0.810504
0.807639
0.669958
0.446733
0.272008
0.171723
0.135482
0.136687
0.144803
0.167467
0.199859
0.233611
0.272406
0.318538
0.449282
0.77919
0.398723
0.358869
0.36277
0.66869
0.808476
0.804672
0.648544
0.342454
0.162799
0.103941
0.101852
0.108127
0.121304
0.14364
0.173958
0.203235
0.227739
0.250573
0.327813
0.582979
0.411566
0.348683
0.276978
0.532523
0.801405
0.842279
0.731176
0.309921
0.0713563
0.0778779
0.0896654
0.102158
0.113779
0.125717
0.137154
0.148168
0.160449
0.171659
0.201598
0.698612
0.662867
0.63713
0.515118
0.0776876
0.137655
0.146777
0.154905
0.160317
0.162306
0.164217
0.167309
0.171642
0.176525
0.180847
0.193188
0.790905
0.771579
0.771214
0.766225
0.190054
0.198631
0.195643
0.192612
0.190578
0.189289
0.189341
0.189751
0.190767
0.192647
0.195187
0.201006
0.791159
0.770752
0.768147
0.806392
0.209112
0.200868
0.198389
0.196041
0.19416
0.192624
0.190836
0.190116
0.190383
0.191308
0.192436
0.19549
0.688845
0.642221
0.62264
0.700385
0.178806
0.136541
0.143639
0.148855
0.15171
0.153762
0.156024
0.159088
0.162365
0.16478
0.166601
0.171836
0.551573
0.4307
0.331741
0.307432
0.0687862
0.18681
0.204575
0.172607
0.0159938
0.0298625
0.0500814
0.0688067
0.084683
0.0979005
0.109755
0.119617
0.12631
0.132
0.137382
0.148218
0.424312
0.262382
0.156576
0.068659
0.134606
0.194529
0.195476
0.132813
0.0319331
0.00945918
0.0128224
0.0218194
0.0355574
0.0517165
0.0669401
0.0790352
0.0889229
0.0995382
0.109735
0.125446
0.326959
0.165055
0.0990099
0.0751172
0.143247
0.191176
0.192841
0.140283
0.0530774
0.0135839
0.00743946
0.00940797
0.0152487
0.0243556
0.0348158
0.0457286
0.0574375
0.0715792
0.0839328
0.101071
0.269587
0.128071
0.0978045
0.0868442
0.151069
0.188062
0.190671
0.145768
0.0718056
0.0235773
0.00967427
0.00760102
0.00831306
0.0107865
0.0161282
0.0245158
0.0359048
0.049608
0.0603098
0.0773096
0.241592
0.128935
0.103963
0.0992591
0.156295
0.186106
0.189271
0.148937
0.0869735
0.0379869
0.0161302
0.0085219
0.00688672
0.00728048
0.00939809
0.0146877
0.0230979
0.0325497
0.0408296
0.0572142
0.246674
0.137002
0.116581
0.110478
0.15841
0.184975
0.188155
0.151155
0.0994628
0.0546023
0.026231
0.0115639
0.00738547
0.0075534
0.00858328
0.011012
0.0149936
0.0203503
0.02691
0.0420197
0.262393
0.158111
0.137421
0.121876
0.160384
0.185085
0.186738
0.153692
0.111037
0.0704479
0.0378313
0.0176515
0.00981531
0.00868734
0.00904491
0.00952318
0.010555
0.0134471
0.018449
0.0316688
0.284722
0.188467
0.165575
0.132804
0.163498
0.185691
0.186563
0.157182
0.121183
0.082935
0.0494185
0.0266873
0.015543
0.0113788
0.00965471
0.00949826
0.010103
0.0121669
0.0157117
0.0256205
0.314198
0.21994
0.193041
0.143278
0.167863
0.186927
0.187001
0.160967
0.128224
0.0926636
0.0612929
0.0385062
0.0245378
0.0158751
0.0109093
0.0101698
0.0107023
0.0126152
0.0150198
0.0216721
0.356407
0.255696
0.216189
0.154913
0.172646
0.188977
0.188342
0.163952
0.133799
0.1029
0.0752631
0.0527014
0.0349032
0.0218673
0.0140693
0.012401
0.0127812
0.0138573
0.0151476
0.019467
0.411464
0.298195
0.237452
0.165568
0.176881
0.191677
0.189885
0.166139
0.13896
0.112736
0.0876953
0.0641449
0.0438991
0.0289027
0.01947
0.0162422
0.0154605
0.0152861
0.0158644
0.0191991
0.56041
0.421323
0.308076
0.194305
0.188907
0.198032
0.193757
0.171891
0.149949
0.128808
0.105579
0.0820701
0.0611868
0.0449294
0.0336695
0.0271228
0.0228853
0.0203949
0.019666
0.0211063
1.98997
1.34276
0.752756
0.622605
0.74215
0.835227
0.830649
0.7202
0.573098
0.43926
0.337062
0.281239
0.254809
0.260577
0.277731
0.302311
0.335669
0.380976
0.43966
0.596351
1.35667
0.521101
0.398024
0.448656
0.704316
0.813179
0.808936
0.669327
0.443081
0.267535
0.168246
0.130838
0.132817
0.141552
0.1637
0.196348
0.23176
0.271567
0.317697
0.449334
0.751634
0.390714
0.352013
0.364715
0.673606
0.811039
0.806105
0.649051
0.338244
0.156565
0.102557
0.0994835
0.105284
0.116816
0.137673
0.168126
0.200261
0.226653
0.249243
0.323616
0.578185
0.408975
0.339519
0.270413
0.536632
0.800552
0.843826
0.732582
0.317169
0.0685109
0.0753339
0.0876794
0.100623
0.111887
0.123697
0.135495
0.146664
0.159125
0.170169
0.198349
0.695011
0.657792
0.628776
0.503078
0.0658776
0.13733
0.145638
0.153591
0.159985
0.162561
0.164233
0.166861
0.17116
0.176441
0.180996
0.192647
0.787478
0.769818
0.770505
0.764776
0.190191
0.19881
0.195709
0.192698
0.190577
0.189183
0.189253
0.189734
0.190774
0.192597
0.195134
0.201056
0.789183
0.770319
0.76836
0.804917
0.209391
0.201437
0.199033
0.196763
0.194874
0.193377
0.192037
0.190829
0.190822
0.191554
0.192785
0.196098
0.685567
0.639668
0.620613
0.699164
0.179561
0.136132
0.143317
0.148496
0.151756
0.154127
0.15659
0.159404
0.162222
0.164851
0.167077
0.172358
0.548729
0.426431
0.324944
0.302318
0.0656856
0.186614
0.204703
0.172529
0.0155332
0.0288077
0.0485594
0.0676141
0.0838708
0.097388
0.108808
0.11839
0.126012
0.132544
0.138025
0.148058
0.422577
0.259004
0.152001
0.0665773
0.13513
0.19467
0.195965
0.133073
0.0316701
0.00909343
0.0126155
0.0213945
0.0346819
0.0500772
0.0651147
0.078381
0.0890601
0.0995239
0.109034
0.124476
0.324765
0.162779
0.0971832
0.0733371
0.143228
0.191587
0.193623
0.140272
0.0524256
0.0134914
0.0071119
0.00880842
0.0141777
0.023229
0.0343854
0.0457274
0.0571278
0.0702436
0.0824377
0.100679
0.267227
0.125897
0.096596
0.0856452
0.150739
0.188559
0.19143
0.145528
0.0714381
0.0233621
0.00908116
0.00731416
0.0081875
0.0110906
0.0165045
0.0245689
0.0350495
0.0479547
0.0595976
0.0776996
0.240011
0.127167
0.102447
0.098631
0.156589
0.186381
0.189887
0.149397
0.0869566
0.0374063
0.0150324
0.00836427
0.0071399
0.00742735
0.00931752
0.0141211
0.0218583
0.0319122
0.0411651
0.0576003
0.244531
0.135016
0.113974
0.109481
0.159006
0.185101
0.188941
0.152375
0.0996984
0.0531963
0.0249781
0.0117407
0.00751915
0.00752632
0.00824228
0.0103936
0.0146225
0.020874
0.0275473
0.0421278
0.259424
0.15555
0.133531
0.120471
0.160697
0.185225
0.188092
0.154881
0.11046
0.0686642
0.0370822
0.0178176
0.00968386
0.00831699
0.00864264
0.00949093
0.0110566
0.0140412
0.0186853
0.0311797
0.280822
0.185725
0.161289
0.131429
0.163199
0.185837
0.187508
0.157462
0.119748
0.0821763
0.0490818
0.0265204
0.0148604
0.0106519
0.00958038
0.00979204
0.0104142
0.0120617
0.0150713
0.0249496
0.309683
0.217042
0.190334
0.141798
0.167264
0.186996
0.187597
0.160454
0.127719
0.0927413
0.0606771
0.0373678
0.0230055
0.0152726
0.0113903
0.0104931
0.0108326
0.0122488
0.014698
0.0218279
0.349593
0.251027
0.214238
0.153236
0.172169
0.188751
0.188452
0.163785
0.134472
0.102688
0.0735745
0.050521
0.0338014
0.022168
0.0146372
0.012217
0.012359
0.0133919
0.0152991
0.0201782
0.402807
0.290532
0.233979
0.163302
0.17632
0.191173
0.189979
0.16665
0.139712
0.111653
0.0854873
0.0625212
0.0435776
0.0291528
0.0194119
0.0153283
0.014895
0.0154084
0.0164267
0.0195576
0.551155
0.40875
0.297061
0.189277
0.186903
0.197129
0.193899
0.172353
0.149408
0.12696
0.103972
0.0811251
0.0604492
0.0440499
0.0322663
0.0256598
0.0225503
0.0208202
0.0199109
0.0209996
1.98874
1.33758
0.746308
0.61882
0.742917
0.836774
0.831525
0.720533
0.572895
0.439677
0.336662
0.280625
0.255411
0.261054
0.277918
0.302583
0.336632
0.382992
0.442356
0.599294
1.35457
0.517561
0.395587
0.449064
0.708453
0.816377
0.810102
0.669801
0.442536
0.267382
0.168614
0.130933
0.133284
0.142578
0.164618
0.196462
0.231632
0.271917
0.319067
0.45254
0.753109
0.388069
0.34884
0.366957
0.679317
0.814861
0.807573
0.64949
0.337488
0.156301
0.102819
0.100091
0.106112
0.11788
0.138815
0.169414
0.201538
0.227438
0.249877
0.325698
0.582791
0.410814
0.337095
0.268058
0.553515
0.801961
0.845491
0.734688
0.312669
0.0681657
0.0752387
0.0879077
0.101032
0.112129
0.123662
0.135473
0.147052
0.159838
0.1708
0.19892
0.693497
0.653463
0.622777
0.483483
0.0666387
0.137385
0.145537
0.153459
0.159909
0.162393
0.164046
0.166507
0.170655
0.175933
0.180558
0.192264
0.784853
0.766117
0.766592
0.765741
0.190353
0.199002
0.195916
0.192885
0.190797
0.189294
0.189249
0.189634
0.190668
0.192465
0.194882
0.200522
0.78855
0.770276
0.768438
0.80508
0.209715
0.20149
0.198895
0.196661
0.194978
0.193447
0.191691
0.190374
0.190458
0.191394
0.192647
0.195762
0.684961
0.639514
0.620974
0.698557
0.179307
0.136506
0.143675
0.148837
0.15215
0.154548
0.156763
0.159689
0.162863
0.16542
0.167469
0.172442
0.548406
0.42694
0.32692
0.31314
0.0592114
0.186944
0.205384
0.173592
0.0156407
0.029679
0.0497854
0.0688777
0.0846977
0.0980992
0.109545
0.119254
0.127111
0.13365
0.138614
0.148281
0.421906
0.258932
0.152201
0.065851
0.134506
0.195159
0.196563
0.132727
0.0306129
0.00910755
0.01293
0.021871
0.0352155
0.0505765
0.0658279
0.0793118
0.0900865
0.100136
0.109565
0.125085
0.324388
0.162989
0.0970034
0.0725416
0.142822
0.192162
0.194106
0.140363
0.0511785
0.0133025
0.00708131
0.00878965
0.0141692
0.0233747
0.0347311
0.0462281
0.0575002
0.0705059
0.0827598
0.101062
0.267114
0.125902
0.0963704
0.0849784
0.150508
0.189199
0.191978
0.146032
0.0703388
0.0228442
0.00896851
0.00724331
0.00816271
0.0111341
0.0165826
0.0246013
0.0350052
0.0478981
0.0596936
0.0778455
0.239947
0.127237
0.102469
0.0980913
0.156518
0.187082
0.190545
0.149399
0.0857939
0.0366658
0.0147443
0.00828114
0.00710575
0.00737544
0.00922045
0.0139432
0.0216498
0.0319289
0.0411884
0.0575272
0.244432
0.135126
0.114117
0.109209
0.15904
0.185775
0.189409
0.151591
0.0985869
0.0523625
0.0244966
0.011584
0.00745373
0.00744527
0.0081391
0.0102823
0.014602
0.0208634
0.0274471
0.0418777
0.259252
0.155286
0.13312
0.120322
0.160796
0.185878
0.187971
0.153856
0.109749
0.0678221
0.0364675
0.0175623
0.009561
0.00821963
0.0085601
0.00945447
0.0110173
0.0138862
0.018406
0.0309347
0.280563
0.185185
0.160392
0.131175
0.163273
0.186464
0.18742
0.15717
0.119454
0.0812545
0.0484077
0.0261514
0.0147006
0.0105846
0.00954029
0.0097267
0.0102733
0.0118507
0.0149181
0.0249024
0.309295
0.216508
0.189279
0.141276
0.167235
0.187616
0.187681
0.160907
0.126974
0.0917644
0.0599954
0.0370764
0.0229238
0.015247
0.0112964
0.0103501
0.0106606
0.0120848
0.0145922
0.0217563
0.348819
0.250196
0.21322
0.152512
0.172125
0.189459
0.18883
0.163902
0.133299
0.101782
0.0731671
0.0503496
0.0335954
0.0219042
0.0144264
0.0120307
0.0121998
0.0133081
0.0151363
0.0197896
0.401444
0.288843
0.232733
0.162592
0.176468
0.191926
0.190355
0.166144
0.138633
0.111206
0.0853262
0.0621195
0.0431176
0.0287943
0.019142
0.0151799
0.0148138
0.0152799
0.0161132
0.0191655
0.54902
0.405244
0.293964
0.188348
0.187169
0.197791
0.193981
0.171658
0.149079
0.126904
0.103484
0.0803686
0.0598736
0.0436631
0.0320315
0.0256207
0.022505
0.0205223
0.0195504
0.020724
1.96727
1.35812
0.767983
0.62222
0.74513
0.839642
0.833106
0.722792
0.574894
0.441911
0.340593
0.28593
0.259673
0.265144
0.281333
0.304762
0.337604
0.384769
0.445407
0.603243
1.37591
0.540198
0.397495
0.450606
0.712081
0.819219
0.810512
0.67068
0.44413
0.269868
0.170269
0.134922
0.137021
0.146217
0.168852
0.200556
0.23449
0.27459
0.322741
0.457384
0.778265
0.390182
0.34907
0.372021
0.682347
0.817438
0.807523
0.649165
0.338871
0.159809
0.103563
0.102219
0.108531
0.121603
0.144426
0.17562
0.205603
0.229938
0.252948
0.332965
0.584094
0.406443
0.336889
0.269454
0.555031
0.802937
0.846255
0.735402
0.313248
0.0698162
0.0769758
0.0894906
0.102298
0.113807
0.125846
0.137752
0.149357
0.162037
0.173272
0.203466
0.692542
0.652836
0.623987
0.485295
0.0668894
0.13719
0.145795
0.1541
0.160019
0.162166
0.164062
0.167163
0.171792
0.177037
0.181482
0.194084
0.785253
0.766412
0.766416
0.766028
0.190293
0.198642
0.195278
0.192106
0.190099
0.188862
0.188943
0.189486
0.190627
0.192593
0.195147
0.201099
0.788201
0.770449
0.76883
0.805888
0.209726
0.200926
0.1983
0.195954
0.194177
0.192773
0.191077
0.190504
0.190766
0.191719
0.192901
0.196085
0.684804
0.639243
0.620208
0.699267
0.179031
0.136799
0.143801
0.149039
0.152084
0.15426
0.156674
0.159921
0.163451
0.166093
0.167932
0.17292
0.547737
0.425835
0.324419
0.300009
0.0666383
0.18659
0.205104
0.173518
0.0156413
0.0307914
0.0514554
0.0700719
0.0857134
0.0987447
0.110566
0.120824
0.127912
0.133439
0.138563
0.149161
0.42129
0.258907
0.153681
0.0676771
0.135206
0.194394
0.195864
0.13237
0.0303569
0.00924661
0.0128745
0.0221061
0.0359051
0.0521229
0.0676653
0.0801028
0.0899298
0.100378
0.110429
0.126327
0.325784
0.16386
0.0973603
0.0747131
0.143293
0.191219
0.193412
0.139848
0.050886
0.0129796
0.00717708
0.00914492
0.0150665
0.0244081
0.035217
0.0462031
0.0578377
0.071726
0.0841731
0.101756
0.269199
0.128104
0.0978025
0.0869853
0.150652
0.188176
0.191238
0.145466
0.0695547
0.0224021
0.009259
0.00740588
0.00819818
0.0107973
0.0161703
0.0244764
0.0356265
0.049358
0.0603444
0.0775715
0.24122
0.128839
0.104563
0.0996658
0.156199
0.186225
0.189709
0.148728
0.0851255
0.0364444
0.0154439
0.00829747
0.00673651
0.00710053
0.00914016
0.0142609
0.022628
0.032414
0.0407684
0.0571557
0.24625
0.136522
0.116918
0.110629
0.158605
0.185022
0.188486
0.15102
0.0980341
0.0529329
0.0251867
0.0112004
0.00717072
0.00732011
0.00830673
0.0107123
0.0148172
0.0202609
0.0267252
0.0417251
0.262133
0.157532
0.136912
0.12183
0.160491
0.185113
0.186847
0.153389
0.109821
0.0685683
0.0364252
0.016986
0.00944764
0.00840053
0.00879177
0.00935828
0.0104119
0.0131348
0.017966
0.0312156
0.284518
0.188347
0.164447
0.132935
0.163324
0.185645
0.186473
0.156639
0.119781
0.0809282
0.0478074
0.0257359
0.0150051
0.0110873
0.00949216
0.00930118
0.00983278
0.0117956
0.0153084
0.0254141
0.313449
0.21998
0.192522
0.14353
0.16752
0.186806
0.186849
0.160286
0.126674
0.0908672
0.059745
0.0374842
0.0239336
0.015616
0.0107476
0.00990387
0.0103984
0.0122724
0.014882
0.0216241
0.354593
0.254856
0.216459
0.155238
0.172363
0.18886
0.188169
0.163211
0.132546
0.101492
0.0740392
0.0516858
0.0341821
0.0214847
0.013738
0.0120534
0.0124633
0.0136968
0.0149954
0.0190354
0.408436
0.295523
0.237259
0.165754
0.176676
0.191593
0.189773
0.165433
0.137994
0.11172
0.0865425
0.0628849
0.0429316
0.028311
0.0189163
0.0159049
0.0153603
0.015159
0.0155796
0.0186739
0.555844
0.415473
0.30421
0.193286
0.188371
0.197841
0.193535
0.17119
0.149238
0.127842
0.104272
0.080608
0.0600107
0.0440855
0.0330833
0.0269264
0.0229278
0.0201211
0.0191774
0.0206104
1.94316
1.41705
0.820263
0.630361
0.750385
0.844462
0.836791
0.728243
0.580705
0.446162
0.347692
0.292897
0.266902
0.272648
0.287602
0.309914
0.341271
0.389971
0.452316
0.61065
1.43739
0.60386
0.409877
0.4479
0.717409
0.823167
0.813248
0.675066
0.44929
0.274989
0.174536
0.14008
0.141598
0.152146
0.175768
0.206587
0.239025
0.280404
0.330681
0.466861
0.834819
0.40066
0.356387
0.37479
0.689985
0.821113
0.809599
0.652347
0.344876
0.167082
0.105267
0.104775
0.112007
0.127925
0.152775
0.182651
0.20828
0.232243
0.257926
0.345856
0.592786
0.404431
0.34132
0.275754
0.560964
0.806037
0.847413
0.736054
0.317813
0.0735231
0.080154
0.091899
0.104139
0.116229
0.128256
0.139849
0.151478
0.16448
0.17688
0.211641
0.697105
0.657026
0.630254
0.488102
0.0685009
0.137273
0.146923
0.155279
0.159583
0.161526
0.164177
0.16819
0.172793
0.177471
0.182161
0.19739
0.789675
0.770215
0.769875
0.768606
0.189849
0.197955
0.194564
0.191524
0.189764
0.188638
0.188689
0.189105
0.19028
0.192473
0.195349
0.201913
0.789742
0.772303
0.770713
0.806807
0.208926
0.200013
0.19747
0.195254
0.193604
0.192077
0.190184
0.189868
0.190267
0.191457
0.192685
0.195986
0.687703
0.642909
0.624044
0.699261
0.178163
0.136256
0.143697
0.149021
0.151891
0.153857
0.156054
0.159716
0.163794
0.1663
0.167791
0.172883
0.549518
0.429555
0.331881
0.315396
0.0604923
0.186284
0.204496
0.172897
0.0170733
0.0313622
0.0520678
0.0708441
0.0860267
0.0991815
0.111789
0.121933
0.128276
0.133239
0.138279
0.150039
0.422216
0.261685
0.159282
0.0704025
0.135668
0.194952
0.196066
0.133632
0.0321818
0.0100548
0.0137694
0.0229526
0.0371881
0.0541954
0.069815
0.0818857
0.091241
0.101122
0.111685
0.128206
0.329233
0.166646
0.0985645
0.0771116
0.144741
0.191726
0.193614
0.141069
0.0531443
0.0141118
0.00794485
0.0102059
0.0165553
0.0263186
0.0375358
0.0484757
0.0596792
0.0740129
0.0868507
0.10411
0.273042
0.131533
0.0995754
0.0885393
0.151946
0.188836
0.19147
0.146406
0.0719096
0.0238183
0.0103599
0.00810958
0.0089578
0.011856
0.0174232
0.0257133
0.0375827
0.0519521
0.0631244
0.0802829
0.246549
0.132693
0.108232
0.10077
0.156385
0.187086
0.190041
0.149393
0.0868403
0.0385581
0.0170889
0.00909001
0.00717877
0.00754441
0.00960396
0.0152559
0.0242764
0.0344939
0.043605
0.0599262
0.252377
0.141846
0.123019
0.112772
0.158925
0.186022
0.188743
0.15139
0.0997181
0.0559024
0.0274104
0.0123312
0.00762367
0.0077231
0.00894862
0.0117336
0.0162272
0.0225714
0.0293132
0.0441285
0.268586
0.163973
0.144406
0.124803
0.161754
0.186153
0.187117
0.153628
0.112065
0.0716275
0.0391962
0.0183863
0.00994769
0.00903917
0.00960319
0.0104658
0.012038
0.0151277
0.0198293
0.033365
0.291785
0.194747
0.171233
0.136218
0.165581
0.186814
0.187054
0.157384
0.122021
0.0837126
0.0506413
0.0272315
0.0160375
0.0121292
0.0105897
0.0106793
0.0112479
0.0129788
0.0166798
0.0271584
0.32164
0.22609
0.196712
0.147317
0.169987
0.188331
0.187679
0.161573
0.128441
0.0931881
0.0623267
0.0397192
0.0256383
0.0170778
0.0124743
0.0114018
0.0116853
0.0133421
0.0158373
0.0228882
0.365517
0.263199
0.220579
0.159504
0.174633
0.190758
0.189305
0.164472
0.13357
0.103295
0.0769895
0.0546031
0.0364777
0.0239374
0.0160651
0.0134658
0.0136539
0.0145719
0.0156851
0.0201845
0.422028
0.307111
0.243765
0.170972
0.179311
0.19371
0.190879
0.166333
0.138798
0.113924
0.0898479
0.0661524
0.0460296
0.0312018
0.021335
0.01772
0.016585
0.0159187
0.016341
0.0195884
0.57085
0.431797
0.319526
0.20212
0.193221
0.200179
0.194649
0.172122
0.150966
0.130512
0.10731
0.0837646
0.0630816
0.0470672
0.0360345
0.0294548
0.0247611
0.0215911
0.02027
0.0216663
1.89173
1.47713
0.884338
0.644692
0.756129
0.849667
0.841289
0.735177
0.588581
0.452159
0.355799
0.300587
0.274549
0.27964
0.293684
0.315795
0.347528
0.397859
0.460922
0.618718
1.50057
0.683646
0.427938
0.444703
0.720841
0.826752
0.817863
0.682817
0.459107
0.281789
0.181589
0.147285
0.148694
0.159587
0.182898
0.212168
0.243798
0.286836
0.338773
0.475859
0.89957
0.41315
0.370912
0.375196
0.697339
0.82405
0.813638
0.660115
0.356956
0.174926
0.108598
0.109242
0.11844
0.136652
0.161836
0.18837
0.210963
0.236118
0.264891
0.359776
0.613578
0.408466
0.348139
0.285135
0.569674
0.81001
0.849248
0.738882
0.340104
0.0775433
0.0834645
0.094297
0.106314
0.118849
0.131072
0.143218
0.155462
0.169329
0.182714
0.221572
0.703558
0.66153
0.637662
0.493036
0.0658346
0.138526
0.149281
0.156326
0.159555
0.162278
0.16615
0.170793
0.175186
0.179874
0.184883
0.202326
0.794911
0.775904