/*--------------------------------*- C++ -*----------------------------------*\
  =========                 |
  \\      /  F ield         | OpenFOAM: The Open Source CFD Toolbox
   \\    /   O peration     | Website:  https://openfoam.org
    \\  /    A nd           | Version:  9
     \\/     M anipulation  |
\*---------------------------------------------------------------------------*/
FoamFile
{
    format      ascii;
    class       volScalarField;
    location    "0.0095";
    object      rho.Air;
}
// * * * * * * * * * * * * * * * * * * * * * * * * * * * * * * * * * * * * * //

dimensions      [1 -3 0 0 0 0 0];

internalField   nonuniform List<scalar> 
9720
(
0.00185486
0.00159274
0.00100551
0.000700434
0.000769447
0.000866913
0.000859889
0.000749978
0.000614894
0.000442013
0.000279379
0.000170406
0.000108834
8.16911e-05
6.99083e-05
5.89676e-05
4.91159e-05
4.87793e-05
5.05674e-05
6.30507e-05
0.00159176
0.000865871
0.000507503
0.000494189
0.000752976
0.00086344
0.000850309
0.000709083
0.000471964
0.000215815
9.03257e-05
4.53895e-05
2.71673e-05
2.03296e-05
1.90627e-05
1.79935e-05
1.64381e-05
1.65992e-05
1.75233e-05
2.2728e-05
0.00100733
0.00050319
0.000442736
0.000412564
0.00070528
0.000838051
0.000820401
0.000674868
0.000315382
6.5179e-05
1.94756e-05
9.64856e-06
6.7146e-06
5.66346e-06
5.47609e-06
5.42934e-06
5.31252e-06
5.36655e-06
5.57932e-06
6.94203e-06
0.000695385
0.000488658
0.000414342
0.000252922
0.00044151
0.000682747
0.000726612
0.000636412
0.000251981
5.6493e-06
3.43352e-06
2.79611e-06
2.48836e-06
2.32899e-06
2.25544e-06
2.2446e-06
2.25696e-06
2.29759e-06
2.36573e-06
2.73895e-06
0.000760944
0.000752868
0.000722808
0.000442255
6.88886e-06
2.28019e-06
2.21831e-06
2.14525e-06
2.0618e-06
1.98589e-06
1.97783e-06
1.98668e-06
2.00999e-06
2.05201e-06
2.11026e-06
2.32983e-06
0.00085374
0.000856255
0.00083617
0.000656192
4.19656e-06
2.95185e-06
2.74041e-06
2.56516e-06
2.42977e-06
2.32864e-06
2.26088e-06
2.20852e-06
2.2024e-06
2.21292e-06
2.23828e-06
2.32157e-06
0.000845746
0.000847323
0.000826297
0.00069549
4.45899e-06
2.94501e-06
2.75477e-06
2.59261e-06
2.4636e-06
2.3608e-06
2.28321e-06
2.22987e-06
2.19258e-06
2.1889e-06
2.19267e-06
2.23117e-06
0.000740302
0.000708756
0.000679407
0.000603214
3.7068e-06
1.99185e-06
1.97846e-06
1.95124e-06
1.92592e-06
1.89771e-06
1.86831e-06
1.86603e-06
1.86986e-06
1.88257e-06
1.90206e-06
1.965e-06
0.000604793
0.000463282
0.000298748
0.000212804
1.09336e-06
4.48836e-06
4.82942e-06
3.94212e-06
3.60505e-07
4.79344e-07
7.40633e-07
9.65013e-07
1.12136e-06
1.23897e-06
1.32317e-06
1.39889e-06
1.46943e-06
1.52867e-06
1.58086e-06
1.69316e-06
0.000431847
0.000210435
6.1808e-05
4.11807e-06
2.11722e-06
2.90261e-06
2.88828e-06
1.97803e-06
5.06943e-07
1.66119e-07
2.25987e-07
3.50687e-07
5.16057e-07
6.86656e-07
8.47076e-07
9.86104e-07
1.09332e-06
1.19465e-06
1.27781e-06
1.42942e-06
0.000269111
8.58715e-05
1.71769e-05
2.68091e-06
2.02811e-06
2.63186e-06
2.64458e-06
1.93136e-06
7.66711e-07
2.28667e-07
1.18293e-07
1.46154e-07
2.24871e-07
3.54438e-07
4.99942e-07
6.32925e-07
7.60006e-07
8.83237e-07
9.83038e-07
1.16882e-06
0.000162786
4.22371e-05
8.37073e-06
2.30367e-06
1.94725e-06
2.42537e-06
2.45396e-06
1.88118e-06
9.82949e-07
3.57512e-07
1.45409e-07
1.04412e-07
1.21524e-07
1.72428e-07
2.54057e-07
3.62246e-07
4.83346e-07
6.0706e-07
7.24657e-07
9.34729e-07
0.000105498
2.59271e-05
6.06901e-06
2.14418e-06
1.87739e-06
2.27027e-06
2.30779e-06
1.83781e-06
1.12111e-06
5.23852e-07
2.22685e-07
1.19289e-07
1.00679e-07
1.07513e-07
1.39639e-07
2.07598e-07
3.01293e-07
4.18599e-07
5.31566e-07
7.34974e-07
7.9397e-05
1.95579e-05
5.21094e-06
2.07315e-06
1.82938e-06
2.1577e-06
2.19621e-06
1.79425e-06
1.21815e-06
6.91803e-07
3.525e-07
1.66948e-07
1.06508e-07
1.08929e-07
1.22252e-07
1.55604e-07
2.16434e-07
3.02197e-07
3.89456e-07
5.68968e-07
6.69786e-05
1.78798e-05
4.91474e-06
2.03197e-06
1.81574e-06
2.08461e-06
2.11458e-06
1.75914e-06
1.29299e-06
8.49911e-07
5.02015e-07
2.47532e-07
1.35201e-07
1.21846e-07
1.28333e-07
1.45602e-07
1.73978e-07
2.22301e-07
2.87044e-07
4.3812e-07
5.58894e-05
1.66486e-05
4.8424e-06
2.03552e-06
1.82257e-06
2.02998e-06
2.05866e-06
1.74472e-06
1.36162e-06
9.86712e-07
6.38655e-07
3.56722e-07
1.98757e-07
1.52608e-07
1.45831e-07
1.50784e-07
1.60341e-07
1.86991e-07
2.29475e-07
3.4555e-07
4.55146e-05
1.49219e-05
4.7723e-06
2.05494e-06
1.84386e-06
2.02359e-06
2.01607e-06
1.74653e-06
1.42172e-06
1.08713e-06
7.62803e-07
4.78604e-07
2.9072e-07
2.10627e-07
1.75416e-07
1.61812e-07
1.65592e-07
1.79392e-07
1.97909e-07
2.84201e-07
4.48177e-05
1.49798e-05
4.83841e-06
2.10329e-06
1.88625e-06
2.03438e-06
2.01326e-06
1.7567e-06
1.46977e-06
1.17539e-06
8.78077e-07
6.04066e-07
4.09417e-07
2.97084e-07
2.25389e-07
1.90553e-07
1.81344e-07
1.83621e-07
1.93032e-07
2.54741e-07
4.63243e-05
1.57102e-05
5.03692e-06
2.17733e-06
1.9457e-06
2.05919e-06
2.01773e-06
1.77393e-06
1.51146e-06
1.24487e-06
9.7167e-07
7.22105e-07
5.26146e-07
3.88005e-07
2.9038e-07
2.34772e-07
2.04542e-07
1.96295e-07
2.0307e-07
2.55218e-07
5.74244e-05
2.03755e-05
6.2677e-06
2.54951e-06
2.16561e-06
2.14369e-06
2.06068e-06
1.83567e-06
1.61036e-06
1.38028e-06
1.14549e-06
9.24326e-07
7.26247e-07
5.64603e-07
4.3909e-07
3.53646e-07
2.95516e-07
2.67119e-07
2.60889e-07
2.8559e-07
0.00208126
0.00200631
0.00136925
0.000944939
0.000939036
0.0010655
0.00104666
0.000913945
0.0007116
0.000430916
0.000208126
0.000103119
6.09629e-05
4.65396e-05
4.11516e-05
3.54831e-05
3.15049e-05
3.195e-05
3.38263e-05
4.34024e-05
0.00199258
0.00132822
0.00104166
0.00116619
0.00157135
0.00169555
0.00161297
0.00129832
0.000635164
0.000161707
4.73983e-05
2.143e-05
1.30066e-05
1.04719e-05
1.05822e-05
1.05164e-05
1.01752e-05
1.04528e-05
1.12913e-05
1.52705e-05
0.00134648
0.00098414
0.00163155
0.00224058
0.00311349
0.00307466
0.00307556
0.00243397
0.00039391
2.81048e-05
6.90214e-06
3.79448e-06
2.87594e-06
2.80811e-06
2.89623e-06
3.07585e-06
3.21489e-06
3.37809e-06
3.60731e-06
4.67062e-06
0.000914998
0.000986189
0.00215034
0.00188625
0.00362973
0.00457502
0.00446472
0.00375907
0.000514038
9.70175e-07
1.09388e-06
1.19521e-06
1.26226e-06
1.32354e-06
1.38803e-06
1.46057e-06
1.54077e-06
1.63549e-06
1.73086e-06
2.06357e-06
0.000907118
0.00151522
0.00324409
0.00377369
6.42123e-06
9.26938e-07
1.03794e-06
1.13254e-06
1.19697e-06
1.25431e-06
1.32163e-06
1.39779e-06
1.47368e-06
1.55468e-06
1.63581e-06
1.85481e-06
0.00103457
0.00170994
0.00344981
0.00576206
1.15357e-06
1.20822e-06
1.30328e-06
1.38366e-06
1.45333e-06
1.51546e-06
1.57084e-06
1.62331e-06
1.67784e-06
1.73717e-06
1.79345e-06
1.90864e-06
0.00102545
0.00164086
0.00337288
0.00581104
1.30269e-06
1.25573e-06
1.35439e-06
1.43865e-06
1.51081e-06
1.56936e-06
1.61711e-06
1.66124e-06
1.70597e-06
1.75457e-06
1.79072e-06
1.86823e-06
0.00090493
0.00132717
0.00261358
0.00535747
1.13943e-06
8.80275e-07
9.94797e-07
1.09803e-06
1.18831e-06
1.2621e-06
1.32524e-06
1.39192e-06
1.45814e-06
1.51812e-06
1.56487e-06
1.66303e-06
0.000702942
0.000623286
0.000367723
0.000467654
1.02295e-06
9.08313e-07
1.03709e-06
8.86316e-07
1.14741e-07
2.13507e-07
3.8002e-07
5.47145e-07
6.90116e-07
8.21904e-07
9.45568e-07
1.05484e-06
1.14608e-06
1.22347e-06
1.2938e-06
1.44094e-06
0.000417761
0.000152771
2.50065e-05
3.4239e-07
6.84919e-07
9.84846e-07
1.01491e-06
7.16037e-07
2.00193e-07
8.31816e-08
1.15916e-07
1.94559e-07
3.17985e-07
4.64591e-07
6.08675e-07
7.3702e-07
8.4103e-07
9.47263e-07
1.05161e-06
1.22756e-06
0.000193256
4.1835e-05
5.34543e-06
6.05879e-07
8.10684e-07
1.07595e-06
1.10942e-06
8.2419e-07
3.44268e-07
1.12493e-07
7.28103e-08
9.23962e-08
1.49007e-07
2.42785e-07
3.5458e-07
4.62211e-07
5.74159e-07
7.07452e-07
8.22347e-07
1.00686e-06
9.2587e-05
1.80049e-05
2.80806e-06
7.93688e-07
9.14853e-07
1.15516e-06
1.19293e-06
9.23527e-07
4.90619e-07
1.83528e-07
9.02689e-08
7.61009e-08
8.63785e-08
1.19337e-07
1.75528e-07
2.58159e-07
3.71344e-07
5.00251e-07
6.10978e-07
7.99467e-07
5.52107e-05
1.12865e-05
2.2545e-06
9.35807e-07
9.88727e-07
1.22266e-06
1.2673e-06
1.01061e-06
6.158e-07
2.94482e-07
1.40831e-07
8.47058e-08
7.2978e-08
7.74268e-08
1.00211e-07
1.57656e-07
2.43502e-07
3.47192e-07
4.42484e-07
6.19715e-07
4.20223e-05
9.10747e-06
2.2615e-06
1.05047e-06
1.049e-06
1.27914e-06
1.32736e-06
1.07968e-06
7.3132e-07
4.26587e-07
2.26566e-07
1.13593e-07
7.68584e-08
7.93915e-08
9.43697e-08
1.25171e-07
1.76133e-07
2.45514e-07
3.12981e-07
4.74323e-07
3.66979e-05
9.01065e-06
2.34454e-06
1.13924e-06
1.11432e-06
1.33088e-06
1.37624e-06
1.13999e-06
8.43174e-07
5.59721e-07
3.31989e-07
1.64841e-07
9.64243e-08
9.41268e-08
1.01271e-07
1.1623e-07
1.38217e-07
1.72686e-07
2.24143e-07
3.69457e-07
3.13222e-05
8.85108e-06
2.50913e-06
1.22098e-06
1.18543e-06
1.38169e-06
1.42072e-06
1.20427e-06
9.45023e-07
6.80166e-07
4.34532e-07
2.4192e-07
1.46991e-07
1.21557e-07
1.164e-07
1.19876e-07
1.26871e-07
1.48333e-07
1.90001e-07
3.01762e-07
2.7341e-05
8.51548e-06
2.66312e-06
1.30277e-06
1.25606e-06
1.43468e-06
1.46407e-06
1.26815e-06
1.02847e-06
7.75463e-07
5.37887e-07
3.46442e-07
2.25007e-07
1.67441e-07
1.38192e-07
1.27928e-07
1.31749e-07
1.51361e-07
1.7607e-07
2.5607e-07
2.76893e-05
8.7613e-06
2.83606e-06
1.39483e-06
1.33205e-06
1.4918e-06
1.5111e-06
1.32539e-06
1.09737e-06
8.69385e-07
6.58023e-07
4.67371e-07
3.23522e-07
2.32861e-07
1.71608e-07
1.50043e-07
1.52469e-07
1.61111e-07
1.74055e-07
2.3091e-07
2.93501e-05
9.49315e-06
3.0496e-06
1.48498e-06
1.40815e-06
1.54459e-06
1.54757e-06
1.3702e-06
1.1585e-06
9.60079e-07
7.63397e-07
5.74271e-07
4.16811e-07
2.98688e-07
2.20209e-07
1.90363e-07
1.79174e-07
1.76016e-07
1.82596e-07
2.31265e-07
3.78026e-05
1.30011e-05
3.98016e-06
1.7878e-06
1.6096e-06
1.65365e-06
1.62535e-06
1.46308e-06
1.28919e-06
1.1178e-06
9.33479e-07
7.50847e-07
5.84072e-07
4.49799e-07
3.55817e-07
2.9782e-07
2.57279e-07
2.35756e-07
2.35178e-07
2.6106e-07
0.00266893
0.0030548
0.00214158
0.00134728
0.00131376
0.00148936
0.00145118
0.00135419
0.000718185
0.000224465
6.06484e-05
2.20152e-05
1.27577e-05
1.09855e-05
1.05439e-05
9.85501e-06
9.97969e-06
1.06963e-05
1.20248e-05
1.66666e-05
0.00304801
0.00235677
0.00199169
0.00259822
0.00324245
0.00342151
0.00327537
0.00275072
0.000350699
3.8653e-05
7.94317e-06
3.3997e-06
2.47754e-06
2.52295e-06
2.82043e-06
3.19537e-06
3.49129e-06
3.88812e-06
4.46631e-06
6.5181e-06
0.00213327
0.00181033
0.00380985
0.00535326
0.00627496
0.00602512
0.00624595
0.00389919
7.81687e-05
2.95163e-06
8.1495e-07
8.16693e-07
8.76754e-07
1.00557e-06
1.20183e-06
1.44503e-06
1.66248e-06
1.87053e-06
2.08721e-06
2.79845e-06
0.00128729
0.00202883
0.00468261
0.0199389
0.0104172
0.0110867
0.024017
0.000835104
1.07596e-05
3.46483e-07
4.88202e-07
6.29071e-07
7.55301e-07
8.70678e-07
9.76925e-07
1.07275e-06
1.16773e-06
1.27485e-06
1.37761e-06
1.67897e-06
0.00130188
0.00296765
0.00477463
0.000504027
3.2475e-07
9.80043e-07
1.07548e-06
1.15338e-06
1.20377e-06
1.2403e-06
1.28105e-06
1.33065e-06
1.38497e-06
1.4438e-06
1.50542e-06
1.67364e-06
0.00142964
0.00341735
0.00665882
0.0259861
1.13239e-06
1.46015e-06
1.4584e-06
1.4636e-06
1.47876e-06
1.50222e-06
1.53072e-06
1.56345e-06
1.60264e-06
1.64924e-06
1.69577e-06
1.78527e-06
0.00142596
0.00335374
0.00660103
0.0268809
1.30819e-06
1.51224e-06
1.51455e-06
1.52313e-06
1.54002e-06
1.56031e-06
1.57974e-06
1.60482e-06
1.63704e-06
1.67791e-06
1.71034e-06
1.77387e-06
0.00134917
0.00286129
0.00411978
0.000611532
1.14612e-06
1.05735e-06
1.12286e-06
1.17826e-06
1.22052e-06
1.25977e-06
1.30206e-06
1.35589e-06
1.41254e-06
1.46076e-06
1.49845e-06
1.59042e-06
0.000717098
0.000347919
8.02748e-05
1.04617e-05
3.30457e-07
9.72082e-07
1.1144e-06
9.6312e-07
1.14881e-07
2.55858e-07
4.22799e-07
5.75937e-07
7.07374e-07
8.27892e-07
9.46545e-07
1.04478e-06
1.11367e-06
1.17581e-06
1.24014e-06
1.38788e-06
0.000215863
3.4958e-05
2.58702e-06
2.58348e-07
8.20011e-07
1.22068e-06
1.25876e-06
8.77278e-07
2.26669e-07
8.15486e-08
1.13412e-07
1.92993e-07
3.19186e-07
4.7004e-07
6.06442e-07
7.13978e-07
8.03912e-07
9.05283e-07
1.01587e-06
1.19695e-06
5.3481e-05
6.33265e-06
5.91706e-07
3.72864e-07
8.85169e-07
1.2064e-06
1.24929e-06
9.30506e-07
3.66194e-07
1.07746e-07
6.90175e-08
8.96688e-08
1.46542e-07
2.3238e-07
3.31216e-07
4.30023e-07
5.37614e-07
6.81229e-07
8.07802e-07
9.84782e-07
1.81665e-05
2.53072e-06
5.97164e-07
4.83843e-07
9.40661e-07
1.20603e-06
1.25153e-06
9.73891e-07
4.95496e-07
1.75836e-07
8.72482e-08
7.2895e-08
7.96874e-08
1.05483e-07
1.56446e-07
2.35162e-07
3.52734e-07
4.94268e-07
6.00936e-07
7.73689e-07
1.04514e-05
1.91874e-06
6.57061e-07
5.85946e-07
9.78312e-07
1.21179e-06
1.26085e-06
1.00572e-06
6.03205e-07
2.83942e-07
1.35929e-07
7.82211e-08
6.74473e-08
7.18687e-08
9.31698e-08
1.5062e-07
2.39199e-07
3.37023e-07
4.22999e-07
5.91012e-07
8.92915e-06
1.95213e-06
7.68213e-07
6.80097e-07
1.00451e-06
1.22344e-06
1.27224e-06
1.03248e-06
7.00753e-07
4.11667e-07
2.09344e-07
9.97727e-08
7.15789e-08
7.43905e-08
8.98388e-08
1.19751e-07
1.63726e-07
2.2353e-07
2.86872e-07
4.49128e-07
8.56274e-06
2.15384e-06
9.23677e-07
7.67139e-07
1.03365e-06
1.24028e-06
1.2835e-06
1.06378e-06
7.9827e-07
5.27123e-07
2.95077e-07
1.43799e-07
8.98748e-08
8.95678e-08
9.61084e-08
1.05617e-07
1.22115e-07
1.52633e-07
2.02016e-07
3.56516e-07
7.92104e-06
2.42476e-06
1.11174e-06
8.45691e-07
1.07127e-06
1.26249e-06
1.29991e-06
1.1074e-06
8.79143e-07
6.18811e-07
3.8286e-07
2.14086e-07
1.40267e-07
1.15465e-07
1.04889e-07
1.06819e-07
1.14773e-07
1.3851e-07
1.82379e-07
3.00016e-07
7.97344e-06
2.66121e-06
1.28682e-06
9.24166e-07
1.11416e-06
1.29188e-06
1.32498e-06
1.15355e-06
9.34977e-07
6.95445e-07
4.78672e-07
3.19002e-07
2.17552e-07
1.51632e-07
1.18885e-07
1.14617e-07
1.20206e-07
1.44278e-07
1.76027e-07
2.57764e-07
8.51599e-06
2.98706e-06
1.45962e-06
1.01292e-06
1.16149e-06
1.3289e-06
1.35853e-06
1.19267e-06
9.858e-07
7.81943e-07
6.02765e-07
4.42517e-07
3.031e-07
2.01879e-07
1.45061e-07
1.38111e-07
1.44115e-07
1.59578e-07
1.76003e-07
2.33255e-07
9.60814e-06
3.45549e-06
1.63514e-06
1.09678e-06
1.21088e-06
1.36749e-06
1.38725e-06
1.22471e-06
1.03898e-06
8.73658e-07
7.101e-07
5.37234e-07
3.80686e-07
2.58765e-07
1.892e-07
1.78499e-07
1.75744e-07
1.76664e-07
1.84135e-07
2.3385e-07
1.35064e-05
5.13341e-06
2.20145e-06
1.34201e-06
1.34686e-06
1.44342e-06
1.44484e-06
1.30496e-06
1.16162e-06
1.02556e-06
8.63672e-07
6.91477e-07
5.32597e-07
4.05699e-07
3.27566e-07
2.83807e-07
2.48979e-07
2.33186e-07
2.3486e-07
2.65959e-07
0.00279473
0.00402103
0.00421171
0.0028658
0.00238668
0.00230298
0.00213336
0.00197194
0.000215227
2.83577e-05
4.71397e-06
1.52885e-06
1.31814e-06
1.44108e-06
1.68721e-06
1.96018e-06
2.2926e-06
2.766e-06
3.37254e-06
5.00744e-06
0.00404448
0.00962521
0.0131275
0.00962823
0.00802583
0.00788852
0.00707346
0.00556696
4.82842e-05
2.38389e-06
5.21074e-07
5.28798e-07
6.08363e-07
7.73664e-07
1.04351e-06
1.37131e-06
1.6835e-06
2.0254e-06
2.4106e-06
3.438e-06
0.0043451
0.0134729
0.0143142
0.00868593
0.00848657
0.00928651
0.00972919
0.00610348
8.15301e-06
3.39596e-07
3.85743e-07
4.70444e-07
6.07182e-07
7.95153e-07
1.05748e-06
1.38799e-06
1.68285e-06
1.91195e-06
2.11709e-06
2.71159e-06
0.00295298
0.0103001
0.00916341
0.000358165
0.000893214
0.00248188
0.0281522
0.00036591
2.36537e-07
4.54343e-07
6.45779e-07
8.4474e-07
1.01785e-06
1.1564e-06
1.26975e-06
1.34001e-06
1.40806e-06
1.49656e-06
1.58513e-06
1.86274e-06
0.0024018
0.00851272
0.00928158
0.000721411
6.32505e-07
1.36934e-06
1.4603e-06
1.53676e-06
1.58299e-06
1.59458e-06
1.60904e-06
1.6371e-06
1.67954e-06
1.73016e-06
1.77995e-06
1.91865e-06
0.00219783
0.00787645
0.00976181
0.0132682
1.70943e-06
2.04467e-06
2.01679e-06
1.98337e-06
1.95741e-06
1.93757e-06
1.93705e-06
1.94211e-06
1.95578e-06
1.9799e-06
2.01063e-06
2.07461e-06
0.00201293
0.00683406
0.00960203
0.0292916
1.96005e-06
2.11496e-06
2.09192e-06
2.06607e-06
2.04339e-06
2.02355e-06
2.00265e-06
2.00016e-06
2.00562e-06
2.02115e-06
2.03724e-06
2.07306e-06
0.00184113
0.00527853
0.00652779
0.000486584
1.70782e-06
1.46197e-06
1.5367e-06
1.58899e-06
1.6114e-06
1.62663e-06
1.64946e-06
1.68633e-06
1.72637e-06
1.75591e-06
1.77984e-06
1.85155e-06
0.00020969
4.05056e-05
3.94995e-06
1.72315e-07
5.31305e-07
1.38544e-06
1.58394e-06
1.36339e-06
1.48986e-07
3.26197e-07
5.4785e-07
7.45288e-07
9.1246e-07
1.05619e-06
1.18723e-06
1.29258e-06
1.35904e-06
1.41657e-06
1.47822e-06
1.61552e-06
2.78778e-05
2.06896e-06
3.00881e-07
3.5076e-07
1.08241e-06
1.60981e-06
1.65735e-06
1.14967e-06
2.88987e-07
9.59858e-08
1.34249e-07
2.35429e-07
3.92333e-07
5.77324e-07
7.44639e-07
8.67532e-07
9.66017e-07
1.08204e-06
1.20338e-06
1.39408e-06
4.35228e-06
4.44404e-07
3.31581e-07
4.99798e-07
1.15323e-06
1.58463e-06
1.63824e-06
1.21476e-06
4.70545e-07
1.28002e-07
7.73058e-08
1.00956e-07
1.69949e-07
2.74108e-07
3.87979e-07
5.03356e-07
6.32855e-07
8.01402e-07
9.49847e-07
1.14741e-06
1.34647e-06
4.49433e-07
3.91126e-07
6.56784e-07
1.21223e-06
1.55794e-06
1.61984e-06
1.26029e-06
6.30245e-07
2.12845e-07
9.75804e-08
8.22835e-08
9.0651e-08
1.17922e-07
1.76172e-07
2.70903e-07
4.07829e-07
5.77245e-07
7.02261e-07
8.93223e-07
1.11665e-06
5.08381e-07
4.9138e-07
7.94673e-07
1.24682e-06
1.53768e-06
1.60509e-06
1.28066e-06
7.59984e-07
3.42253e-07
1.5567e-07
8.89782e-08
7.4387e-08
7.9464e-08
1.04964e-07
1.70223e-07
2.75043e-07
3.89203e-07
4.81671e-07
6.71465e-07
1.21589e-06
6.32756e-07
6.30104e-07
9.0324e-07
1.25717e-06
1.52489e-06
1.59284e-06
1.29481e-06
8.704e-07
4.94396e-07
2.44179e-07
1.11891e-07
7.92142e-08
8.2996e-08
9.9723e-08
1.33672e-07
1.83496e-07
2.44076e-07
3.1653e-07
5.04614e-07
1.41843e-06
8.31059e-07
8.24333e-07
9.91099e-07
1.26932e-06
1.52609e-06
1.58241e-06
1.31559e-06
9.74641e-07
6.35945e-07
3.4454e-07
1.62012e-07
1.00917e-07
9.91287e-08
1.06005e-07
1.14103e-07
1.27333e-07
1.59729e-07
2.19214e-07
3.96152e-07
1.62633e-06
1.07959e-06
1.07126e-06
1.04499e-06
1.29255e-06
1.53282e-06
1.58338e-06
1.34808e-06
1.06359e-06
7.41925e-07
4.44849e-07
2.43358e-07
1.55897e-07
1.27904e-07
1.13246e-07
1.12087e-07
1.20076e-07
1.49703e-07
1.97965e-07
3.3374e-07
1.87358e-06
1.32321e-06
1.28839e-06
1.09752e-06
1.32762e-06
1.54654e-06
1.59097e-06
1.38407e-06
1.12216e-06
8.23353e-07
5.53068e-07
3.58533e-07
2.4327e-07
1.68331e-07
1.24171e-07
1.19221e-07
1.27439e-07
1.57019e-07
1.95071e-07
2.88728e-07
2.21372e-06
1.5822e-06
1.4596e-06
1.16568e-06
1.36816e-06
1.56815e-06
1.60786e-06
1.41307e-06
1.16932e-06
9.15137e-07
6.88615e-07
5.00227e-07
3.41799e-07
2.17908e-07
1.4947e-07
1.46135e-07
1.5488e-07
1.76312e-07
1.98512e-07
2.63828e-07
2.65525e-06
1.86986e-06
1.61342e-06
1.23346e-06
1.40697e-06
1.59516e-06
1.62529e-06
1.43623e-06
1.21715e-06
1.00922e-06
8.1031e-07
6.10206e-07
4.24816e-07
2.78896e-07
1.98061e-07
1.88363e-07
1.91771e-07
1.9719e-07
2.09213e-07
2.65845e-07
3.90498e-06
2.65145e-06
2.05884e-06
1.44377e-06
1.51605e-06
1.65426e-06
1.66413e-06
1.49928e-06
1.32678e-06
1.16636e-06
9.80951e-07
7.79049e-07
5.90794e-07
4.39729e-07
3.47118e-07
3.02689e-07
2.71003e-07
2.5723e-07
2.61201e-07
2.99189e-07
0.00173457
0.0017242
0.00148126
0.00116298
0.00100353
0.00087976
0.000794807
0.000731018
2.20472e-05
1.75249e-06
3.49836e-07
3.826e-07
5.0198e-07
7.16447e-07
1.00282e-06
1.32056e-06
1.63661e-06
1.97644e-06
2.35688e-06
3.27904e-06
0.00174409
0.00268715
0.00263656
0.00252923
0.00246689
0.00259805
0.00247774
0.00189515
2.98691e-06
2.04758e-07
2.25869e-07
2.94539e-07
4.29289e-07
6.34949e-07
9.21844e-07
1.28731e-06
1.63795e-06
1.97742e-06
2.32481e-06
3.15975e-06
0.00152317
0.00266892
0.00467688
0.00507389
0.00675346
0.00695343
0.00731288
0.00497966
6.83144e-08
1.92458e-07
3.50891e-07
5.08733e-07
6.92383e-07
9.11194e-07
1.20432e-06
1.56172e-06
1.8915e-06
2.15606e-06
2.39265e-06
3.04055e-06
0.00121526
0.00240304
0.00488254
0.00148991
0.00224804
4.15869e-09
0.0218189
0.00041277
1.20294e-06
5.55756e-07
7.92621e-07
1.03909e-06
1.25438e-06
1.41285e-06
1.55071e-06
1.63773e-06
1.7062e-06
1.79758e-06
1.88665e-06
2.16608e-06
0.00103057
0.00249192
0.00572042
9.59307e-05
7.42709e-07
1.65604e-06
1.75287e-06
1.83995e-06
1.9071e-06
1.92374e-06
1.93281e-06
1.95504e-06
1.99891e-06
2.05596e-06
2.1083e-06
2.24421e-06
0.000877291
0.00266012
0.00704005
0.00031629
2.2002e-06
2.46191e-06
2.42237e-06
2.38154e-06
2.35023e-06
2.32954e-06
2.32155e-06
2.32452e-06
2.33432e-06
2.35319e-06
2.38076e-06
2.44036e-06
0.0007847
0.00248782
0.00744179
0.0241588
2.52193e-06
2.55871e-06
2.52505e-06
2.49284e-06
2.46522e-06
2.4421e-06
2.42169e-06
2.4037e-06
2.40262e-06
2.41007e-06
2.42222e-06
2.45139e-06
0.000717655
0.00186785
0.00499817
0.000303138
2.20459e-06
1.76098e-06
1.84639e-06
1.90591e-06
1.94073e-06
1.96543e-06
1.99307e-06
2.02659e-06
2.06053e-06
2.09216e-06
2.11997e-06
2.19001e-06
2.54143e-05
3.25655e-06
1.8191e-07
1.86307e-07
5.86607e-07
1.70821e-06
1.94867e-06
1.67354e-06
1.74556e-07
3.77376e-07
6.41021e-07
8.88173e-07
1.09583e-06
1.26815e-06
1.41371e-06
1.53412e-06
1.62637e-06
1.70469e-06
1.77332e-06
1.90701e-06
2.32684e-06
2.46713e-07
2.22802e-07
4.33112e-07
1.30865e-06
1.93207e-06
1.99073e-06
1.37875e-06
3.37621e-07
1.09496e-07
1.59748e-07
2.81357e-07
4.62476e-07
6.70291e-07
8.6936e-07
1.0383e-06
1.17075e-06
1.30421e-06
1.42998e-06
1.63663e-06
5.48513e-07
2.79763e-07
3.1941e-07
6.21269e-07
1.38515e-06
1.90152e-06
1.96717e-06
1.45059e-06
5.50234e-07
1.51756e-07
8.76683e-08
1.11694e-07
1.87102e-07
3.12544e-07
4.63195e-07
6.13262e-07
7.65241e-07
9.4408e-07
1.11118e-06
1.35489e-06
4.83615e-07
3.51063e-07
4.29659e-07
8.1527e-07
1.45234e-06
1.87025e-06
1.94453e-06
1.50203e-06
7.47555e-07
2.51958e-07
1.07305e-07
9.29201e-08
1.05011e-07
1.45185e-07
2.19672e-07
3.31018e-07
4.78265e-07
6.62023e-07
8.23903e-07
1.0683e-06
5.48283e-07
4.53898e-07
5.65424e-07
9.849e-07
1.50281e-06
1.84647e-06
1.92763e-06
1.53817e-06
9.08729e-07
3.99227e-07
1.69603e-07
1.02662e-07
9.21102e-08
9.66465e-08
1.23846e-07
1.92888e-07
3.05187e-07
4.49875e-07
5.78138e-07
8.06908e-07
6.88121e-07
5.89039e-07
7.30746e-07
1.10709e-06
1.51635e-06
1.82961e-06
1.91612e-06
1.56476e-06
1.04108e-06
5.67783e-07
2.74666e-07
1.35454e-07
9.60194e-08
9.77839e-08
1.10368e-07
1.44096e-07
2.06652e-07
2.95265e-07
3.87747e-07
6.0088e-07
8.91651e-07
7.80739e-07
9.48547e-07
1.21269e-06
1.52494e-06
1.82864e-06
1.90647e-06
1.58749e-06
1.15343e-06
7.33021e-07
4.02532e-07
1.9712e-07
1.17722e-07
1.09663e-07
1.16086e-07
1.30094e-07
1.5407e-07
1.96684e-07
2.63439e-07
4.5734e-07
1.12757e-06
1.03927e-06
1.21336e-06
1.28091e-06
1.54219e-06
1.83229e-06
1.89923e-06
1.61208e-06
1.24927e-06
8.74174e-07
5.29029e-07
2.89545e-07
1.73185e-07
1.37668e-07
1.29435e-07
1.33455e-07
1.44083e-07
1.72375e-07
2.19896e-07
3.79201e-07
1.36478e-06
1.30047e-06
1.4588e-06
1.33155e-06
1.57538e-06
1.84128e-06
1.89968e-06
1.64113e-06
1.32893e-06
9.81868e-07
6.52866e-07
4.09884e-07
2.64138e-07
1.87693e-07
1.4945e-07
1.43018e-07
1.49987e-07
1.7601e-07
2.20102e-07
3.40168e-07
1.613e-06
1.55362e-06
1.65664e-06
1.39681e-06
1.61725e-06
1.85629e-06
1.90714e-06
1.67266e-06
1.39472e-06
1.0845e-06
7.94133e-07
5.59694e-07
3.86035e-07
2.59044e-07
1.79879e-07
1.6778e-07
1.73065e-07
1.95262e-07
2.31114e-07
3.15871e-07
1.89644e-06
1.81478e-06
1.82973e-06
1.45957e-06
1.65449e-06
1.87818e-06
1.92063e-06
1.69993e-06
1.44607e-06
1.17915e-06
9.25995e-07
6.95414e-07
4.94796e-07
3.32119e-07
2.27999e-07
2.07391e-07
2.12021e-07
2.28094e-07
2.50302e-07
3.16062e-07
2.61349e-06
2.46738e-06
2.29112e-06
1.65547e-06
1.75407e-06
1.93054e-06
1.95269e-06
1.7584e-06
1.54688e-06
1.34315e-06
1.12768e-06
9.01117e-07
6.84354e-07
5.02588e-07
3.79725e-07
3.30133e-07
3.10585e-07
3.02262e-07
3.06611e-07
3.4242e-07
0.00171028
0.00172394
0.00149083
0.00116242
0.000996875
0.000871785
0.000787958
0.000724683
1.92429e-05
1.54979e-06
3.84978e-07
4.17571e-07
5.33286e-07
7.39368e-07
1.01805e-06
1.33447e-06
1.6527e-06
2.00283e-06
2.39782e-06
3.32662e-06
0.00171483
0.00266546
0.00263728
0.00257482
0.00244024
0.00255282
0.00244499
0.00188674
2.83958e-06
2.69856e-07
2.81912e-07
3.39731e-07
4.67512e-07
6.68625e-07
9.5275e-07
1.31896e-06
1.67563e-06
2.02691e-06
2.39025e-06
3.24595e-06
0.00151198
0.00266025
0.00468778
0.00506212
0.00695526
0.00691529
0.00720647
0.00495081
3.08377e-07
3.10235e-07
4.00307e-07
5.41449e-07
7.29033e-07
9.57933e-07
1.26413e-06
1.63552e-06
1.97887e-06
2.25353e-06
2.50179e-06
3.18938e-06
0.00121697
0.00240909
0.00493911
0.00158038
0.00615337
0.000144915
0.0170858
0.00021764
8.96645e-07
5.68556e-07
8.12788e-07
1.07426e-06
1.3041e-06
1.46913e-06
1.60947e-06
1.70274e-06
1.78349e-06
1.88633e-06
1.97952e-06
2.27289e-06
0.00103721
0.00256781
0.00581063
1.50448e-06
8.1654e-07
1.72102e-06
1.81972e-06
1.90984e-06
1.98178e-06
2.00031e-06
2.01142e-06
2.03444e-06
2.08003e-06
2.14076e-06
2.19739e-06
2.34071e-06
0.000883898
0.0027242
0.00717798
0.00302006
2.39705e-06
2.55837e-06
2.51863e-06
2.47727e-06
2.4475e-06
2.42648e-06
2.41906e-06
2.42301e-06
2.43513e-06
2.45644e-06
2.48541e-06
2.5453e-06
0.000789434
0.00251469
0.00750022
0.0272447
2.75982e-06
2.66028e-06
2.62415e-06
2.59255e-06
2.5683e-06
2.54626e-06
2.52109e-06
2.50303e-06
2.50409e-06
2.51607e-06
2.53056e-06
2.56012e-06
0.000720488
0.00189081
0.00503293
0.000737824
2.41066e-06
1.8385e-06
1.92628e-06
1.98915e-06
2.02861e-06
2.05678e-06
2.08337e-06
2.12036e-06
2.16145e-06
2.19475e-06
2.22271e-06
2.29324e-06
2.14185e-05
2.94929e-06
1.5723e-07
1.4661e-07
5.66314e-07
1.92006e-06
2.19405e-06
1.88929e-06
2.00839e-07
4.04186e-07
6.82565e-07
9.42402e-07
1.15443e-06
1.33311e-06
1.48484e-06
1.613e-06
1.71621e-06
1.80135e-06
1.86689e-06
2.00056e-06
1.94048e-06
2.40653e-07
2.16065e-07
4.49724e-07
1.37472e-06
2.04148e-06
2.10539e-06
1.44987e-06
3.43662e-07
1.1552e-07
1.72164e-07
3.00925e-07
4.89558e-07
7.04126e-07
9.14656e-07
1.09816e-06
1.24272e-06
1.37789e-06
1.50662e-06
1.72213e-06
4.82782e-07
2.77457e-07
3.25812e-07
6.49285e-07
1.45564e-06
2.00848e-06
2.07686e-06
1.5284e-06
5.64959e-07
1.58133e-07
9.17611e-08
1.16517e-07
1.94392e-07
3.2721e-07
4.89487e-07
6.51981e-07
8.10351e-07
9.93688e-07
1.16699e-06
1.42454e-06
4.81151e-07
3.54116e-07
4.47261e-07
8.52142e-07
1.52538e-06
1.97393e-06
2.0511e-06
1.58549e-06
7.74216e-07
2.59674e-07
1.11038e-07
9.6596e-08
1.09964e-07
1.53772e-07
2.33566e-07
3.50078e-07
5.01426e-07
6.90458e-07
8.62341e-07
1.12346e-06
5.48973e-07
4.64308e-07
5.96565e-07
1.02901e-06
1.5781e-06
1.9466e-06
2.03176e-06
1.61571e-06
9.41872e-07
4.10589e-07
1.73801e-07
1.06857e-07
9.69124e-08
1.01432e-07
1.29184e-07
1.99466e-07
3.14747e-07
4.69282e-07
6.06568e-07
8.48622e-07
6.91626e-07
6.06779e-07
7.73894e-07
1.15872e-06
1.59119e-06
1.92906e-06
2.01598e-06
1.6333e-06
1.0795e-06
5.84567e-07
2.81529e-07
1.4105e-07
1.00548e-07
1.01927e-07
1.14038e-07
1.48367e-07
2.15217e-07
3.10404e-07
4.08629e-07
6.30274e-07
8.96952e-07
8.04127e-07
9.99327e-07
1.27076e-06
1.59845e-06
1.92208e-06
1.99816e-06
1.65296e-06
1.19984e-06
7.5653e-07
4.14512e-07
2.05246e-07
1.22332e-07
1.13376e-07
1.2009e-07
1.35915e-07
1.62028e-07
2.0664e-07
2.75524e-07
4.77874e-07
1.13771e-06
1.07008e-06
1.27243e-06
1.34174e-06
1.61445e-06
1.92476e-06
1.98716e-06
1.68511e-06
1.30404e-06
9.04294e-07
5.47566e-07
3.00943e-07
1.79253e-07
1.42384e-07
1.35208e-07
1.39575e-07
1.50281e-07
1.78825e-07
2.29495e-07
3.98144e-07
1.38271e-06
1.33901e-06
1.52763e-06
1.39307e-06
1.6467e-06
1.93295e-06
1.98861e-06
1.72242e-06
1.38211e-06
1.01736e-06
6.77208e-07
4.26602e-07
2.74308e-07
1.95287e-07
1.56061e-07
1.49121e-07
1.55948e-07
1.8294e-07
2.29456e-07
3.57374e-07
1.64013e-06
1.59914e-06
1.73487e-06
1.46017e-06
1.68931e-06
1.94794e-06
1.99806e-06
1.75033e-06
1.44553e-06
1.12485e-06
8.26572e-07
5.82681e-07
3.99945e-07
2.67801e-07
1.87307e-07
1.74196e-07
1.79797e-07
2.03728e-07
2.40004e-07
3.27391e-07
1.92745e-06
1.86412e-06
1.91482e-06
1.52623e-06
1.7292e-06
1.96936e-06
2.01021e-06
1.77102e-06
1.49926e-06
1.2274e-06
9.65175e-07
7.20568e-07
5.10966e-07
3.43433e-07
2.36637e-07
2.15729e-07
2.21052e-07
2.374e-07
2.58099e-07
3.25734e-07
2.64611e-06
2.52273e-06
2.39076e-06
1.72731e-06
1.83292e-06
2.01933e-06
2.03663e-06
1.82796e-06
1.61093e-06
1.4004e-06
1.16972e-06
9.30184e-07
7.06913e-07
5.1958e-07
3.93366e-07
3.44518e-07
3.24681e-07
3.12519e-07
3.1629e-07
3.53898e-07
0.00275556
0.00402896
0.00423863
0.00286789
0.0023349
0.00227517
0.00211823
0.00195377
0.000175856
2.13611e-05
3.55576e-06
1.22533e-06
1.23376e-06
1.37599e-06
1.61923e-06
1.90107e-06
2.24143e-06
2.68346e-06
3.26937e-06
4.84969e-06
0.00399827
0.00965012
0.0133774
0.0097656
0.00793859
0.00759381
0.00684402
0.00542465
3.34786e-05
1.81592e-06
5.46207e-07
5.69259e-07
6.71484e-07
8.49025e-07
1.11512e-06
1.45269e-06
1.78173e-06
2.13954e-06
2.55367e-06
3.62373e-06
0.00429969
0.0132433
0.0141705
0.00881984
0.00980675
0.00933928
0.00950141
0.00636939
3.81085e-06
3.96694e-07
4.5254e-07
5.48975e-07
7.0016e-07
9.07972e-07
1.20459e-06
1.56784e-06
1.8824e-06
2.13993e-06
2.36938e-06
3.03166e-06
0.00293829
0.0102965
0.00906647
0.00108249
0.0056672
2.27526e-09
0.0187994
0.000173245
2.63345e-07
5.19888e-07
7.41108e-07
9.75067e-07
1.17672e-06
1.33079e-06
1.45905e-06
1.54217e-06
1.62311e-06
1.7227e-06
1.81653e-06
2.11536e-06
0.00242374
0.00894467
0.00877469
1.31637e-06
7.9608e-07
1.60061e-06
1.69909e-06
1.78746e-06
1.84648e-06
1.85948e-06
1.87307e-06
1.90231e-06
1.95029e-06
2.00668e-06
2.05893e-06
2.20567e-06
0.00219381
0.0082521
0.0101341
0.0067927
2.3447e-06
2.38652e-06
2.34413e-06
2.30185e-06
2.27282e-06
2.25203e-06
2.24973e-06
2.25453e-06
2.26715e-06
2.28981e-06
2.31989e-06
2.38273e-06
0.00200486
0.00705153
0.00981938
0.0309569
2.70139e-06
2.47721e-06
2.4431e-06
2.41079e-06
2.38485e-06
2.36399e-06
2.34085e-06
2.33155e-06
2.33494e-06
2.34709e-06
2.36054e-06
2.39178e-06
0.00184731
0.00542184
0.00655528
0.00019298
2.35679e-06
1.71986e-06
1.80024e-06
1.85888e-06
1.8892e-06
1.91028e-06
1.93696e-06
1.97661e-06
2.02001e-06
2.0515e-06
2.07483e-06
2.1438e-06
0.000161701
2.89759e-05
2.22602e-06
1.98483e-07
6.48762e-07
1.86744e-06
2.13664e-06
1.84074e-06
1.97488e-07
3.95699e-07
6.60647e-07
8.92303e-07
1.08526e-06
1.24761e-06
1.39569e-06
1.52167e-06
1.60415e-06
1.66759e-06
1.73126e-06
1.87409e-06
1.95927e-05
1.61691e-06
3.15954e-07
4.19078e-07
1.26933e-06
1.87985e-06
1.9408e-06
1.33704e-06
3.19786e-07
1.10686e-07
1.60234e-07
2.82627e-07
4.64733e-07
6.7771e-07
8.76593e-07
1.02795e-06
1.14471e-06
1.27527e-06
1.40834e-06
1.62036e-06