/*--------------------------------*- C++ -*----------------------------------*\
  =========                 |
  \\      /  F ield         | OpenFOAM: The Open Source CFD Toolbox
   \\    /   O peration     | Website:  https://openfoam.org
    \\  /    A nd           | Version:  9
     \\/     M anipulation  |
\*---------------------------------------------------------------------------*/
FoamFile
{
    format      ascii;
    class       volScalarField;
    location    "0.0095";
    object      rhoE;
}
// * * * * * * * * * * * * * * * * * * * * * * * * * * * * * * * * * * * * * //

dimensions      [1 -1 -2 0 0 0 0];

internalField   nonuniform List<scalar> 
9720
(
2.81112e+06
2.25828e+06
1.47867e+06
1.0819e+06
1.23217e+06
1.36633e+06
1.34605e+06
1.21132e+06
1.00666e+06
780244
626937
526214
486057
503733
532240
590221
674913
799620
946143
1.2794e+06
2.26595e+06
1.16477e+06
749545
741380
1.1496e+06
1.32819e+06
1.31184e+06
1.13589e+06
798609
485566
337358
278010
297976
343903
410410
497641
608478
742890
895378
1.21557e+06
1.48624e+06
740746
656587
621357
1.12151e+06
1.31785e+06
1.30461e+06
1.09098e+06
606652
291661
205935
246169
309641
390330
485228
578851
676496
774763
888406
1.17172e+06
1.071e+06
725895
612013
532880
883401
1.3149e+06
1.35848e+06
1.19521e+06
574273
205319
255607
313315
373000
424716
472763
517503
565927
613736
666056
795895
1.1872e+06
1.10629e+06
1.07883e+06
876586
205604
511876
557907
587173
605129
619865
638168
655574
674416
692999
714599
775165
1.31613e+06
1.28126e+06
1.27389e+06
1.26632e+06
694212
723830
713152
704056
698254
694429
693766
695699
700761
709511
718098
740465
1.29088e+06
1.26126e+06
1.25582e+06
1.31471e+06
757237
729021
721531
714182
708016
703489
700005
700440
703768
709436
714954
729221
1.1615e+06
1.08988e+06
1.04573e+06
1.14984e+06
655351
511778
540784
559233
573665
584544
594789
604371
614662
623957
633855
656619
959765
755419
567293
512616
226387
634303
692212
591471
63220
116681
198968
275242
338027
390019
431943
466082
497493
523308
545760
587411
741085
454379
269160
195126
478560
671638
672392
472888
121881
42584.6
56528.9
96022.2
154572
213885
273557
326149
370399
413365
450070
506684
596493
318622
198676
243479
518019
659809
664192
500975
202786
56752.6
31363.6
40074.2
65120.9
105133
154459
203752
256020
304749
347546
417825
502085
269061
239909
298398
541519
651051
656995
518193
274764
99840.3
40218.3
28682.4
34500
48467.7
75148.9
114130
159992
205992
255012
330516
465113
288499
300307
353224
558998
644534
652445
530915
331344
159265
66901.6
34549.8
32551.2
34675.6
45001.5
68187.2
100885
143734
186337
257607
481378
330975
375776
400951
574999
640993
647813
541206
378159
217037
108388
49903.6
35003.8
35748.1
40146.2
50344.6
71352.4
101270
132376
196467
509897
394981
463074
448432
593240
641486
647556
551826
417609
273617
158751
78413.8
46864.6
41181.5
42071.7
46184.4
56124.5
72247.9
94889.4
149240
566263
479539
549082
491181
609473
644848
649365
562233
448025
323171
208184
119006
71420.2
53146.8
47972.2
47943.2
51578.3
60436.9
75426.6
116638
648065
585544
643818
536751
627643
651320
654222
573919
475735
364878
258132
165923
105732
75758.9
60343.5
53538.3
53629.5
57666
64962.7
95670.2
767321
712248
737539
582218
646781
661143
662079
585448
499709
403906
304929
213257
150141
108195
79195.4
64733.9
59419.3
59501.7
64901.9
85596.6
907722
854444
845797
631940
668897
670480
669068
597889
521679
437233
345899
260028
193123
141196
103499
81874.7
69641.1
66382.6
71052.8
86569.1
1.22796e+06
1.15727e+06
1.10905e+06
758269
731699
694852
686513
624214
563625
491636
412521
331971
263644
206165
160678
127443
105332
93465
89534.7
96714.3
2.82865e+06
2.16651e+06
1.41008e+06
1.06628e+06
1.25513e+06
1.39156e+06
1.36742e+06
1.23008e+06
1.01575e+06
781456
619342
515354
472848
489771
517144
574466
656983
778133
920060
1.24869e+06
2.18076e+06
1.08502e+06
743787
747642
1.1849e+06
1.36019e+06
1.3377e+06
1.15614e+06
801704
484006
330439
267798
285407
329322
394163
481982
590316
720442
866966
1.17861e+06
1.4149e+06
730184
644564
632716
1.16717e+06
1.35354e+06
1.33531e+06
1.11258e+06
606077
287513
199553
238255
297745
373222
464214
560779
657418
752822
859400
1.12701e+06
1.04676e+06
721347
603191
528306
955019
1.33941e+06
1.38508e+06
1.21668e+06
593001
204525
251751
307326
365828
416490
460754
501284
546727
592102
642149
762572
1.19244e+06
1.11368e+06
1.08773e+06
858669
211537
510761
555823
585320
601213
613424
629888
646480
663835
680295
700212
754506
1.32555e+06
1.2957e+06
1.29286e+06
1.29266e+06
694027
728311
715673
704284
696734
690961
689018
689488
693129
700766
708606
728306
1.30104e+06
1.27674e+06
1.27649e+06
1.33229e+06
756624
733666
724062
714933
707542
700670
694128
694048
696872
702237
706737
718302
1.17082e+06
1.10395e+06
1.0632e+06
1.16741e+06
654085
513195
541353
559234
571403
580224
588753
598645
610156
618285
625205
644592
963798
758908
569822
532011
229373
660627
719840
613282
66640.9
115667
195810
271194
331353
381749
426839
461839
490885
512637
531746
573523
740027
455248
268465
198650
493388
700080
701075
492311
125787
40305.7
54635.9
90558.1
147475
208425
267419
318531
358916
396348
434225
494296
585899
311372
192076
245279
534799
686825
691304
519832
205696
55438.7
31038.1
39098.1
63555
101893
148891
193603
240090
290129
336660
406342
486992
256454
230900
298255
561543
676095
683328
537937
278593
96109.7
39692.5
27920.7
33380.9
46161.4
69147.2
102734
148158
197525
246592
317419
447885
272347
288004
353775
577927
668635
677280
548997
335552
155992
66326.2
33666.9
29214.2
31044.3
39273.4
61228.2
94783.5
137019
177935
241705
464180
313466
359457
402223
590948
662904
671284
557512
383082
217814
107297
48162.6
31298.9
31274.4
35685.4
46226.4
66560.4
94900.7
121442
179268
491880
377283
445692
447108
606838
661281
666425
566909
426467
275665
156549
73412
41144.8
36547.4
38159.2
41946.5
50403.3
63090.6
81690.7
133908
547609
463281
536511
487125
622027
662291
667371
577944
459109
324776
202602
109511
64929
48811.8
43730.5
43094.3
44877.2
50986.3
65065.4
105218
627762
568167
631704
530228
638324
666437
670818
590274
484656
363421
248903
156992
100900
71130.3
54432.4
46590.4
45886
50483.2
58573.9
87728.3
744250
691331
723397
572669
654578
674159
676873
598964
504723
399403
298498
208705
145394
101946
69617.3
54882.6
52122.8
53381.5
59105.1
78823.2
880215
828756
824245
620186
674199
681636
682156
607713
523754
435098
344457
256955
187050
130659
90295.3
71102.1
62521.6
60329.3
64795.1
78725.9
1.19377e+06
1.12359e+06
1.07291e+06
735899
728257
701500
695103
629467
565834
493404
411673
325551
251604
190782
146026
115821
96178.6
85290.8
81190.9
87715.2
2.96261e+06
2.11587e+06
1.35448e+06
1.07968e+06
1.27505e+06
1.41416e+06
1.38662e+06
1.24716e+06
1.02931e+06
789358
620689
512939
467710
487489
516053
571010
651866
771486
917462
1.25607e+06
2.12167e+06
1.00552e+06
741916
775564
1.20756e+06
1.38175e+06
1.35559e+06
1.16819e+06
808141
488166
328988
264463
280379
327363
395012
484849
593207
724649
874454
1.19849e+06
1.34456e+06
723077
633431
644822
1.18223e+06
1.37388e+06
1.35298e+06
1.12188e+06
602488
289647
200987
236382
294258
371697
464236
570150
673755
771750
876683
1.14237e+06
1.02034e+06
719924
602606
518183
974095
1.36511e+06
1.40803e+06
1.23562e+06
586009
208342
257158
313890
373597
429447
475359
512954
556630
601752
652506
769173
1.19882e+06
1.12356e+06
1.09539e+06
853195
202720
523743
568891
604812
624441
635226
649421
665684
684413
701228
721804
773678
1.33497e+06
1.30367e+06
1.299e+06
1.31007e+06
703720
755312
743374
732060
724173
718755
717145
717513
720990
728553
737577
758602
1.31651e+06
1.29056e+06
1.28831e+06
1.34598e+06
771552
761804
752040
743198
736678
730511
723440
723263
726024
732080
737630
750578
1.18298e+06
1.11497e+06
1.07356e+06
1.17977e+06
665333
530599
562021
581938
593057
603071
613031
624618
636218
645273
653418
673282
973608
771361
582375
559539
197025
683224
746821
637957
62718.4
122099
200612
277775
341371
392926
440119
477107
505470
531017
551686
594462
743347
460582
271797
192235
504099
729152
730960
506632
121919
36006.9
52737.4
89658.2
145766
209087
268344
319789
365019
405492
442962
507398
581144
305966
186854
240135
546660
717344
721823
538811
200332
52948.5
31274.9
38348.1
61201.1
97907.2
144542
191637
239155
290959
339178
412013
476501
246134
221521
294545
580170
706015
714372
559215
277300
92568.8
38922.7
27398.9
31207.1
43895
67235.6
99877.2
144630
195916
243209
317502
434750
260753
276371
352251
599932
698431
709176
570524
340665
151373
63167
31457.3
26942.1
29563.1
37344
57669.1
90604.2
129980
172351
238747
453848
304059
349946
406547
611288
693038
703790
580559
391886
215931
102341
45633.1
29656.2
29742.5
32995.2
42285.7
59974.4
87980.9
116250
174257
483362
370907
439223
453732
625051
691564
697907
591601
438134
275386
151556
71284.2
38870.3
33401.6
34581.8
37375.8
45279.3
58690
76576.3
128370
537026
459794
539354
492020
641024
691982
698842
604992
474098
326674
201323
106991
61467.8
44011
38191.4
38973.2
42005.8
48362.5
61067.9
100326
616755
566288
641372
535075
659808
695447
702665
617237
501093
372168
250883
154625
96931.1
63490.2
47591.9
43214
43269.3
47361.8
55148.6
82864.7
732589
692998
736676
578472
676478
703084
709100
626828
526814
413568
303111
207617
138456
93710.4
63340.8
51432.4
49189
50181.2
54872.7
74364.2
873598
836978
837865
627052
696600
712240
715402
636757
548234
449774
350765
255982
182847
125028
83905.4
66343.3
58830.6
56102.9
60186
73900.9
1.19733e+06
1.14768e+06
1.08861e+06
739297
747257
734079
730348
659272
591241
512783
423687
331429
252654
187581
140393
110695
90959
80477.6
76574.2
82640.3
3.0501e+06
2.04945e+06
1.29482e+06
1.09685e+06
1.28576e+06
1.42722e+06
1.39811e+06
1.25477e+06
1.03199e+06
786034
615100
506227
457318
478257
511819
566770
649069
769128
920710
1.27218e+06
2.05363e+06
923714
734296
794965
1.21066e+06
1.39084e+06
1.36692e+06
1.17425e+06
808026
480981
321329
257620
270959
317722
392413
486322
597901
731080
884865
1.22348e+06
1.27448e+06
716184
624199
641407
1.17302e+06
1.38188e+06
1.36447e+06
1.12751e+06
597967
282402
199114
230522
286488
366449
462400
573832
692465
796972
901796
1.16271e+06
1.00387e+06
731461
618198
517300
937663
1.38326e+06
1.4226e+06
1.24467e+06
554424
203244
256771
315802
377808
437535
490706
531533
574119
618681
668376
778269
1.20343e+06
1.13566e+06
1.1079e+06
898026
298130
552345
595376
632535
658733
669108
679804
693499
712916
730723
750699
795903
1.34182e+06
1.31208e+06
1.30557e+06
1.3049e+06
747162
799550
786859
773514
763840
757105
754957
754078
755271
760757
768632
788274
1.3245e+06
1.29668e+06
1.29355e+06
1.34993e+06
821649
808498
798002
788635
780545
773488
765661
762574
764194
767773
772346
784586
1.18867e+06
1.11732e+06
1.07419e+06
1.18316e+06
708998
558477
592063
612967
623553
633894
646390
659320
668536
674799
683407
703491
980330
771731
572576
537461
231192
718760
787002
670593
61312.7
121090
199333
278612
350409
408977
457437
494752
522805
552582
578348
620455
747581
460388
267491
191816
529859
768620
771477
533199
129331
33305.3
48486.5
88162
145529
209160
268842
319692
370158
421490
461641
525085
580325
304299
188491
244104
571096
755376
761348
567487
209062
51028.5
30266.1
37799.2
58285.2
92647.3
136251
186342
241924
299617
345748
420394
472567
240857
220178
301648
606894
742442
753427
588228
285937
94353.5
38765.4
27494.5
29136.8
39988.3
63645.2
99937.4
146806
197441
241740
318745
425400
254090
272799
361637
632202
733701
747506
599102
354590
154313
61243.5
29674.3
24614
28159.6
37426.8
57625.6
89137.7
125111
164481
236467
445197
297830
347231
418461
643060
727973
742242
609909
410550
218874
98885.2
42382.4
28338.8
29798.9
32786.6
40525.6
55538.5
79192.6
109624
172583
477488
368011
438670
469579
653893
726514
736281
623863
456650
279110
146212
68744.6
38722
32979.4
32697.1
33806
39326.1
53173.7
73662.6
126948
528693
458078
542651
508438
667533
726619
736530
638399
492702
330416
199041
107859
60579.5
41672.5
34344.5
34477.1
38744.7
47738.5
60070
99211.6
606225
563772
653751
548630
687266
728637
739117
648850
520400
380102
255440
156004
93821.8
58489.6
40805.7
39223
41620.6
47377.9
54658
81531.3
719960
690250
751196
590355
704678
734866
743937
657034
549843
430274
311188
207024
132525
84584.9
55993.9
49206.1
48428.8
49652.3
54128.1
73121.9
864811
836614
849533
637097
724035
743538
749472
667732
575345
467910
355817
253282
174871
117684
78590.9
63022.6
57127.5
55113.8
58715.2
72937.6
1.20132e+06
1.16115e+06
1.0888e+06
741458
767912
765388
764825
690118
616610
529751
431749
333283
250655
184372
135691
106238
87313.2
77672.9
75085
81201.7
3.10551e+06
2.0203e+06
1.2587e+06
1.09594e+06
1.29139e+06
1.43189e+06
1.40336e+06
1.25643e+06
1.02983e+06
780996
607998
498778
449885
472085
510714
566661
651653
773418
928858
1.28663e+06
2.02605e+06
883361
722515
807398
1.22073e+06
1.39758e+06
1.37352e+06
1.17695e+06
804476
474044
315512
253377
263827
309375
387876
485130
600424
736641
894462
1.24165e+06
1.23688e+06
705339
610696
653134
1.1855e+06
1.38711e+06
1.37173e+06
1.13163e+06
589658
274048
198666
227247
281017
359452
455626
567362
695344
807544
914647
1.17317e+06
999570
729900
605873
509894
948063
1.38471e+06
1.43242e+06
1.25314e+06
564195
197310
254878
315976
379889
439702
495837
540114
582279
626826
676640
783408
1.20376e+06
1.13341e+06
1.10116e+06
885179
238668
562824
604748
641729
672554
685409
695063
707287
727407
746816
767976
811873
1.34364e+06
1.31577e+06
1.31184e+06
1.3154e+06
776852
818924
805294
791615
781356
774051
772041
771409
772312
777471
785453
806054
1.32643e+06
1.3015e+06
1.30009e+06
1.35975e+06
855422
832367
821852
812472
803808
796222
790105
785083
785556
787959
792274
805789
1.18813e+06
1.1177e+06
1.07571e+06
1.18936e+06
740598
571960
607625
628018
639047
650219
664762
678323
686293
691494
701459
722538
980203
767517
561689
533215
235615
750735
823290
700874
61180.1
120835
197660
278686
354717
418879
467854
503128
532927
566484
595670
635915
746162
456670
263615
190837
547766
793073
797766
550438
134542
32618.9
47003.2
88889.2
147853
210290
267741
321529
375284
432404
473224
535330
578373
301610
188200
246347
588210
779460
787638
585365
214187
50826
29480.6
38045.9
56945.7
89656.3
134420
187077
247051
306073
349978
427490
470519
238908
221015
306024
622949
765751
778800
605139
291502
96380.5
39046.1
28676.9
29041.3
40627.2
65382.2
104008
150773
198578
242582
324826
422789
252135
272887
368857
651069
755319
771499
617429
362736
158371
60391.6
29778.8
24981
28635.8
38764.3
58813.5
87623.5
123849
164779
241274
442570
296281
346797
425603
663037
748348
766105
630580
423670
222571
96747.2
43053.8
28911.4
31102.4
33669.6
39818.7
54378.5
79828.3
112900
177625
475730
367596
439012
477895
672455
746613
762160
645216
469561
280834
144812
70087.2
39861
33744.3
32371.8
33655.5
40546.4
55738.6
77512.3
129148
525351
458813
542918
518562
683626
746536
760349
657360
502158
334263
199237
110961
61216.7
40522.8
33961.4
34987.1
40144.2
49414.8
60680.1
99421.4
601464
564421
659731
557885
702546
747792
761146
665587
531351
386176
259298
159049
91584.2
56598.7
41719.8
40417.6
43911.5
49084.5
55679.3
83509.7
711729
689231
761100
598776
720392
752485
763934
673584
564891
440288
316670
207371
130468
84268.2
57938.8
50236.9
49803.3
50347.5
55424
76424
855997
833018
857761
643948
739629
760020
768951
686413
593273
478638
359103
252568
173275
119143
80975.6
62288.2
57082.2
56309.4
60549.5
75569.1
1.19699e+06
1.15593e+06
1.08017e+06
741739
779118
780613
784738
709143
630980
538026
436209
336002
251559
185459
134309
103301
87437.6
79881.5
77426.5
82544.7
3.10407e+06
2.01416e+06
1.2503e+06
1.09054e+06
1.29366e+06
1.4344e+06
1.40477e+06
1.25716e+06
1.02995e+06
781393
607077
498467
450661
472163
510778
566710
653403
777277
934377
1.2929e+06
2.02408e+06
879544
719946
811318
1.22904e+06
1.40224e+06
1.37566e+06
1.17782e+06
803726
474525
315553
255017
264882
309692
388253
485763
601328
738355
898585
1.24935e+06
1.23877e+06
702613
607919
660653
1.19735e+06
1.39167e+06
1.37467e+06
1.13259e+06
587971
274802
199757
228503
282492
362260
459610
572034
699940
810734
917560
1.1809e+06
1.00886e+06
733209
602342
511933
979163
1.38636e+06
1.43536e+06
1.25834e+06
556974
196924
255073
317182
381585
440856
496191
540641
584185
629998
679875
786730
1.20252e+06
1.12756e+06
1.09189e+06
852571
240086
562846
604414
641359
672581
685306
695164
706782
726109
745393
767062
811408
1.33902e+06
1.30818e+06
1.30307e+06
1.31404e+06
781130
819894
806573
792943
782949
775348
773108
772137
772990
778102
785708
805375
1.32528e+06
1.30133e+06
1.30005e+06
1.36099e+06
863186
832945
821861
812689
804974
797465
789792
784258
785239
788793
793131
805795
1.18715e+06
1.11745e+06
1.07648e+06
1.19062e+06
745128
573835
609571
629669
640817
652370
666106
680060
689670
694430
703880
723752
980221
769397
566200
555386
202509
759779
834583
712615
62628.5
125323
203646
284170
358576
422885
472104
507449
537849
571524
599138
637766
745298
456529
263740
188275
546136
796196
801846
550069
130004
32736.4
48289.6
91203.2
150774
213241
271411
325870
379734
435792
476470
538878
578229
301418
187699
243661
587256
783262
791189
587002
208856
49999.1
29439.6
38221.9
57254.8
90646.5
136222
189379
249051
308247
352216
429855
470692
239440
220378
303870
622954
769914
782677
608939
287577
94553.1
38770.4
28554.4
29022.6
40844.3
65787.8
104368
151148
199167
243223
325820
422739
252624
272928
367422
652037
759746
776194
619603
358894
155622
59342.4
29483.2
24806.9
28422.3
38479.4
58313
87115
124000
164727
241521
442616
296664
347459
425248
664627
752832
770512
629129
419665
219210
94806.4
42430
28640.2
30849.4
33397.4
39473.5
54313.4
79559.1
112865
177172
476092
367935
439301
478656
674359
751145
763981
642276
467073
277624
142399
69120.9
39438.6
33475.5
32087.6
33512
40337.3
55323.8
76719.4
128345
525760
459099
541951
519254
685618
750886
761953
657527
502043
331221
196788
109566
60666.4
40312.5
33800.2
34727.3
39686.9
48863.9
60278.6
99398.7
601900
565203
658257
557611
704374
752078
763474
669398
530515
383413
256828
157977
91349
56538
41388.6
40033
43454.9
48731
55388.7
83516.2
711613
689596
759450
597490
722215
757241
767634
677294
562295
437055
315002
206856
129812
83492.8
57534.2
49747.6
49358.7
50082.7
54963
75471.8
855162
831680
855392
642583
742131
765067
773203
686934
589759
476979
359167
251812
172146
118286
79993.8
61682.3
56737.6
55858.6
59953.7
74534.1
1.19505e+06
1.15085e+06
1.07223e+06
740023
782405
785388
787914
708371
630688
539015
435620
334000
249938
184182
133247
103102
87366
79113.9
76460.4
81579.3
3.05229e+06
2.0374e+06
1.27805e+06
1.09091e+06
1.29155e+06
1.43469e+06
1.40203e+06
1.25615e+06
1.02915e+06
782621
610591
504820
458002
479249
513333
568095
652783
776868
931539
1.28548e+06
2.04877e+06
911242
721983
810896
1.22886e+06
1.40257e+06
1.37079e+06
1.17475e+06
802822
476455
317812
258279
270113
316779
392765
487913
600907
736736
895289
1.2412e+06
1.27138e+06
704281
611947
665266
1.19853e+06
1.39058e+06
1.36876e+06
1.12767e+06
587691
278080
198506
230677
286551
368269
467024
581762
703110
808472
914784
1.18538e+06
1.00669e+06
722707
598370
514677
982378
1.38621e+06
1.43342e+06
1.25617e+06
555383
199874
256153
318000
380918
441087
495824
538911
583377
629571
680309
792480
1.19688e+06
1.12255e+06
1.08993e+06
853220
236572
554014
596595
634730
663440
674818
685802
699692
720434
739857
760671
807471
1.336e+06
1.3056e+06
1.30008e+06
1.31118e+06
775105
805512
791880
778255
768930
762592
760842
760589
762202
768141
776212
796734
1.32001e+06
1.29625e+06
1.29447e+06
1.3584e+06
853868
815018
804617
795539
787910
781366
774084
771982
773786
777529
782159
795030
1.18287e+06
1.113e+06
1.07066e+06
1.18772e+06
735536
564023
597874
618626
629643
640693
654683
669056
679336
685866
694744
714131
974906
764181
559686
527895
234459
749242
823613
703595
62863.4
127274
207551
286373
358328
417303
465616
503986
533154
562903
588942
630195
742148
454716
263024
191264
537453
776916
782467
537610
124183
32946.6
49233.8
90819.2
149241
213518
274389
326550
377233
429552
469784
533737
578635
301580
187228
246443
577839
764293
772718
572494
202657
49284.4
29670.3
37603.2
58636.8
94095.6
139138
190002
246442
304350
350357
426982
472507
241861
222454
306321
612063
751633
764562
594555
280317
90651.4
37666.3
27274.2
29072
40351.6
64408.5
101046
147685
198530
243540
322252
424898
255109
276311
367303
639034
742820
758296
606368
350957
149440
59294.8
29211.5
24217.9
27671.9
36863.9
56634.9
88109.6
125239
165073
238451
444835
298315
350632
423260
651386
736813
752865
617443
408675
214188
95900.3
41388
27703.2
29193
32072.9
39699
55201.3
79153.5
110087
173231
478667
369883
443253
475283
662028
735287
745810
630419
456427
274764
142288
66745.5
37614.3
32209.6
32025.3
33498.8
39108.3
52609.5
72723.9
126312
530788
462687
546227
515837
674563
735089
744610
644159
493166
326284
194397
104790
58935.3
40910.6
33995.9
34007.1
38140.4
46973.6
59274.7
99433.9
607886
569956
659774
556545
693715
736696
746737
654827
521213
376904
251127
153256
92447.4
58042
40500.8
38557.8
40949.1
46762.7
54792
82304.1
719977
695898
760459
598539
711390
742798
751779
663305
551334
427987
309064
205447
131155
83823.9
55185.8
48271
47742.1
49532
53971.7
72377.8
863665
839896
859044
644942
731147
751549
758036
673225
577284
468196
355534
251263
172817
116274
76780
62060.1
57160.8
54916.5
58288.5
71628.2
1.19903e+06
1.1608e+06
1.0902e+06
746549
774341
772999
772993
695403
620352
531966
431606
330831
247964
181972
133762
105901
87977.2
77271.7
73825.7
79519.4
2.96508e+06
2.0953e+06
1.33833e+06
1.08909e+06
1.28646e+06
1.42882e+06
1.39491e+06
1.25227e+06
1.02696e+06
785489
615515
511109
467667
486913
515148
570244
652847
776078
924713
1.2667e+06
2.11141e+06
989884
736112
795754
1.22305e+06
1.39779e+06
1.36266e+06
1.17147e+06
802587
481549
323140
261641
277150
324254
394053
485374
595277
729241
883192
1.21344e+06
1.33585e+06
715289
626716
661678
1.19878e+06
1.38754e+06
1.35986e+06
1.12428e+06
595091
283410
196986
232023
290682
372230
468482
579100
685650
786740
894848
1.17223e+06
1.00973e+06
712470
598298
520680
985469
1.38393e+06
1.42433e+06
1.24659e+06
556501
203976
254711
313766
374262
432569
480822
521053
567085
614401
666805
788381
1.19296e+06
1.11797e+06
1.0902e+06
852234
229717
533066
577412
614630
635865
646095
659284
675473
694675
711864
732481
786182
1.33234e+06
1.30319e+06
1.29882e+06
1.30891e+06
749625
770912
757997
745238
737130
731147
728878
728038
729999
736565
745302
766881
1.31049e+06
1.28849e+06
1.28803e+06
1.35125e+06
823042
778367
768607
759862
752614
746024
737635
736189
738079
742779
747773
760388
1.17628e+06
1.10952e+06
1.06839e+06
1.17988e+06
708704
539285
572184
592972
604343
614375
624805
637624
649893
657581
664499
682568
967481
763657
570793
551979
197593
723406
792765
676600
66381.2
122119
201918
280741
346251
399698
448346
487212
515833
541386
562223
604719
738818
455508
266455
192689
518868
748671
751293
520696
125293
35630.3
52263.5
89727.9
146388
211348
272784
325313
371405
413085
451197
517294
579238
303195
186660
243448
560676
736389
741791
552202
204270
52754.4
30901.1
38175.1
61297.8
98681.7
145918
193958
242466
295266
345161
420637
474688
245381
223530
300721
593069
724279
733765
572583
281106
91577.3
38236
27468.2
31210.6
43763.4
66964.8
99771
144927
197796
246735
322884
431928
260966
280559
358960
614328
716190
727732
584156
344885
149888
62220.3
31380.3
26105.8
28746.6
36509.7
56688.8
90273.1
130583
174046
241701
450885
304534
355743
413972
626622
710513
721977
593974
396848
215298
101325
45040
28792.6
29025.4
32410.9
41890.2
59728.6
87887.4
116804
175198
482454
373221
446339
463842
640271
708728
714580
604297
443812
276118
150389
69919.3
37600.5
32719
34146.8
37141.1
44988.1
58313.2
75822.4
128338
536828
464774
545842
503823
655520
708755
714404
617024
480771
328065
200014
104689
59595.4
43498.9
37815.9
38589.1
41663
47942.6
60521.9
101065
616937
572108
649912
546889
673941
711631
717261
629851
508592
373587
249386
151850
95305.9
63116.3
47052.5
42614.8
42704.1
46791.8
55390.7
84059.5
732609
698805
746296
589736
690375
718770
723492
639250
533258
414665
302234
206083
137614
93152.2
62356.2
50408.6
48387.6
50127.5
55145.3
74722.6
874885
842028
846140
637170
710585
727538
729666
647640
554102
452173
351591
255471
181983
123971
82016.1
65014.5
58702.8
56278.1
60319.2
73286.4
1.20209e+06
1.15544e+06
1.08984e+06
744538
759088
748209
743325
668617
597813
517141
425863
330872
250972
185475
138372
110055
91328.1
80335
75707.6
81213.2
2.83271e+06
2.14446e+06
1.40171e+06
1.08993e+06
1.27535e+06
1.41288e+06
1.38129e+06
1.24267e+06
1.02348e+06
785776
619446
517399
474737
490442
516154
572754
656056
779335
922700
1.2544e+06
2.16851e+06
1.07156e+06
751716
773811
1.20683e+06
1.38154e+06
1.34998e+06
1.16607e+06
807062
486480
330016
268269
285755
328945
393840
479906
587551
717577
865720
1.18037e+06
1.39737e+06
722396
647585
647760
1.18781e+06
1.37361e+06
1.34728e+06
1.12093e+06
609468
288508
198648
236555
297049
374709
466977
565337
662110
759646
868922
1.14551e+06
1.02541e+06
708221
597080
532347
990075
1.38073e+06
1.41571e+06
1.24017e+06
591693
203321
250120
305418
363836
415340
459807
501949
549781
597803
649918
776425
1.18424e+06
1.10706e+06
1.08275e+06
855169
203028
508500
553705
583632
599676
612309
629147
646343
664007
680893
701073
758622
1.32103e+06
1.29468e+06
1.29309e+06
1.30584e+06
709483
729320
716123
704339
697192
691611
689565
689609
692875
700116
707508
727169
1.29546e+06
1.27415e+06
1.27485e+06
1.34392e+06
777706
735011
725013
715943
709029
702599
695866
695700
698255
703481
707718
718640
1.16462e+06
1.10111e+06
1.06192e+06
1.17451e+06
669039
515997
543379
561076
572549
581373
590864
602221
614183
621294
627595
646001
956992
756363
571444
528150
228150
696967
760088
648209
65161.2
118359
197970
272880
333072
383974
430250
465545
493461
514888
534062
576116
733429
451924
266059
195082
501440
714632
714975
498444
124425
39332.3
53647.1
90362.3
148136
210581
269794
319722
359851
397595
436053
497161
579586
306362
190049
243061
542128
700867
704690
527597
203439
54040.4
30912.1
39174.4
64106.1
102577
148997
193245
239837
290659
338563
408576
479733
252914
229204
297554
568825
689322
696145
545950
276993
93942.9
39382.2
27800.8
33193
45575.1
67907.1
101161
146990
197824
247531
317761
440269
268675
287638
353640
586467
681389
689942
556810
335635
153942
65465.4
33300.1
28194.5
30158.8
38312.2
60159.8
94267.5
137092
178021
240904
456387
309722
360773
403825
600051
675217
683628
564972
384657
216442
105794
47120.6
30380.4
30571
35320.8
46169.7
66521.4
94647.7
120652
177708
485661
375232
447481
451054
615723
673416
677362
574245
428953
274622
154360
71456.7
39899.4
36031
37938
41974.6
50232.1
62383.9
80341.6
132449
542031
462906
538633
491720
630592
673976
677757
585973
462408
324100
200427
106896
63337.3
48342.9
43405.8
42737.8
44430.6
50269.6
64045.8
104307
624181
568465
633760
535149
646758
677467
680998
598714
488450
363373
247142
154102
99155.3
70387
53660
45862.8
45110.4
49652
58040.6
87278
742760
693050
725074
577091
662360
684539
686960
606819
508573
399746
296780
205926
143533
100809
68252.6
53697.6
51270
52652.7
58589.3
78329.7
882390
832726
824508
623798
681886
691932
691792
614634
527379
435640
342994
254692
185315
129029
88318.8
69643.3
61590.2
59753.8
64285.9
77458.4
1.203e+06
1.13595e+06
1.07123e+06
733785
733230
711227
704054
635256
569561
494703
410976
323737
249553
188523
143739
114172
95144.9
84291.3
79835.3
85998.3
2.81346e+06
2.23569e+06
1.46954e+06
1.10128e+06
1.25534e+06
1.39057e+06
1.36339e+06
1.22706e+06
1.018e+06
787137
628991
529693
488238
504060
529894
586420
671235
797551
944959
1.28071e+06
2.25838e+06
1.15019e+06
761895
763115
1.17862e+06
1.35228e+06
1.32692e+06
1.14816e+06
806771
489765
337868
279784
300183
344638
408656
491910
600590
733621
886803
1.20832e+06
1.47357e+06
730254
658047
639644
1.15501e+06
1.3406e+06
1.32035e+06
1.10226e+06
612256
293941
205692
245638
309386
390474
484400
575754
670885
769144
885837
1.17691e+06
1.05192e+06
708430
595318
532953
972033
1.34307e+06
1.38663e+06
1.21845e+06
592821
204403
252834
308166
365658
415098
461769
508037
558674
609228
662189
799635
1.17471e+06
1.0919e+06
1.06407e+06
847636
207941
496830
542439
570157
586572
601227
620446
638979
658531
677576
699626
764372
1.30951e+06
1.27779e+06
1.27144e+06
1.28629e+06
674586
704326
693794
684980
679541
675226
674882
676927
682237
690993
699616
722227
1.285e+06
1.25827e+06
1.25324e+06
1.3185e+06
737522
709875
702545
695212
689118
684916
681602
682281
685888
691707
697291
711414
1.15552e+06
1.08683e+06
1.04304e+06
1.1571e+06
638185
498869
528008
545295
558737
569381
579993
589808
599785
608858
618773
641784
952217
747505
558377
527666
220868
656535
715848
609449
67952.1
114316
194517
269117
330608
381304
422341
455301
485903
511456
533744
575251
733842
448921
264281
195999
482181
676665
677786
476026
122466
41954.6
55228.7
94564.2
152252
210363
268240
318979
362512
404682
440637
496276
588500
312437
196429
244238
522991
665082
669598
504585
202353
56148.6
31144
39815.2
64570
103558
151380
199466
250551
298160
340404
409511
494551
265337
237407
299534
546756
656319
662745
521831
274573
99043
39872.2
28184.3
33881.3
47385.7
73322.1
111432
156306
201725
250086
323889
456907
283946
298654
354692
564295
650003
658436
534604
332189
158643
66042.8
33833.4
31697.2
33908.9
44099.6
66771
98825.8
141271
182829
252392
472179
325576
374750
403402
580098
646918
654315
545079
379796
216727
107108
48756.1
34369.9
35194.2
39684.6
49766.3
70374.1
99604
129908
192453
501032
390369
462443
451855
598291
647611
653684
556310
419627
273122
157025
76706.4
46016
40684.2
41677.2
45901.8
55510.6
71135
92984.2
146172
557501
475356
548069
494759
614882
651283
655651
567611
450379
323091
206723
117101
70446.8
52616.9
47372.8
47420.6
51030
59563.9
74036.5
114549
640875
580821
640271
540153
633383
657986
660673
579342
478424
365512
257301
164140
104545
74906.6
59311.7
52834.2
52852.5
56778.4
64155.7
94436
762489
707626
731611
584310
651794
667937
668696
590646
502776
404961
304180
211222
148593
106840
77834.9
63771.6
58431.2
58534.1
64154.9
85000.4
906657
851452
835977
632909
673493
677345