/*--------------------------------*- C++ -*----------------------------------*\
  =========                 |
  \\      /  F ield         | OpenFOAM: The Open Source CFD Toolbox
   \\    /   O peration     | Website:  https://openfoam.org
    \\  /    A nd           | Version:  9
     \\/     M anipulation  |
\*---------------------------------------------------------------------------*/
FoamFile
{
    format      ascii;
    class       volVectorField;
    location    "0.0095";
    object      rhoU;
}
// * * * * * * * * * * * * * * * * * * * * * * * * * * * * * * * * * * * * * //

dimensions      [1 -2 -1 0 0 0 0];

internalField   nonuniform List<vector> 
9720
(
(-765.135 -769.337 68.7057)
(-485.256 -747.628 46.8488)
(-458.15 -750.23 1.39731)
(-387.124 -671.111 -7.52557)
(-252.345 -842.007 -4.47482)
(-79.8317 -945.491 -9.43275)
(80.0716 -928.524 -5.3926)
(256.484 -827.578 -3.76849)
(367.422 -649.909 -3.68932)
(382.843 -455.565 1.34296)
(366.397 -318.672 0.910919)
(337.447 -228 0.625975)
(329.389 -178.8 4.82989)
(351.821 -156.546 3.52455)
(377.945 -137.905 2.58729)
(420.705 -131.242 2.31558)
(478.267 -134.085 8.72239)
(560.541 -140.204 13.67)
(655.388 -146.92 16.4336)
(860.277 -169.076 19.5257)
(-730.309 -492.317 54.5911)
(-530.904 -526.969 4.74153)
(-380.553 -428.102 -5.35022)
(-297.89 -484.051 -10.8287)
(-267.91 -781.13 -4.12069)
(-80.9738 -922.682 -9.02991)
(84.241 -908.771 -5.77067)
(266.169 -778.178 -0.847701)
(350.053 -500.126 -3.74501)
(292.706 -253.813 -1.04744)
(233.768 -137.418 3.06393)
(204.549 -88.6837 1.07718)
(222.714 -77.1699 1.58874)
(254.894 -76.7208 1.03928)
(301.586 -76.9897 2.93961)
(360.765 -81.6491 4.63153)
(432.768 -90.5316 5.18547)
(521.288 -94.871 5.70342)
(622.677 -89.5874 7.42053)
(833.169 -82.2056 11.9015)
(-743.114 -448.21 18.0611)
(-424.839 -374.955 2.6351)
(-361.062 -358.556 -4.07102)
(-290.876 -386.101 -13.7234)
(-279.017 -760.337 -5.54715)
(-92.3182 -913.249 -7.71202)
(91.4867 -903.001 -7.56779)
(277.637 -741.412 -0.0988299)
(306.849 -360.903 -0.555775)
(200.522 -126.631 -6.8871)
(152.363 -64.5148 2.7603)
(181.06 -61.7796 2.05373)
(221.893 -65.3083 0.744225)
(273.248 -71.948 -3.47307)
(333.612 -79.6381 -4.62606)
(393.269 -87.2926 -1.19623)
(453.337 -95.3754 1.94213)
(516.833 -99.1341 1.64196)
(590.036 -98.3811 -0.0247468)
(778.454 -90.9059 0.227169)
(-665.252 -380.337 7.66774)
(-475.444 -291.519 7.3547)
(-382.168 -285.243 11.4992)
(-304.239 -292.273 -10.6263)
(-311.955 -586.721 -9.64616)
(-163.283 -903.182 -4.30359)
(36.6534 -932.383 -5.89729)
(231.697 -812.59 -3.85099)
(286.422 -350.109 -7.13952)
(143.79 -58.4586 -1.97738)
(175.093 -59.2408 -1.82938)
(210.165 -66.8261 -1.01515)
(245.976 -76.243 -1.01538)
(279.066 -82.4468 -0.905583)
(310.48 -87.1194 -1.14364)
(340.52 -90.3899 -1.2489)
(372.014 -92.9525 -1.02331)
(404.565 -94.8575 -0.909251)
(438.82 -95.5836 -1.0907)
(527.038 -91.9723 -0.778447)
(-815.475 -243.304 -5.55869)
(-756.146 -259.816 -5.67642)
(-735.659 -268.977 -2.01786)
(-587.354 -299.618 0.972657)
(140.427 -50.1045 -1.98903)
(340.112 -65.1351 -0.229725)
(368.292 -69.887 -0.537714)
(386.706 -70.8677 -0.874154)
(397.829 -69.4465 -0.88614)
(407.39 -67.2934 -1.39828)
(419.077 -65.4584 -1.14528)
(430.762 -63.5693 -0.470158)
(442.822 -61.5481 -0.420465)
(455.197 -59.462 -1.30361)
(468.964 -57.2309 -2.09084)
(509.504 -56.4854 -2.11176)
(-916.739 -78.4086 -6.31404)
(-896.039 -79.233 -6.65787)
(-887.951 -89.6962 -7.48368)
(-874.24 -158.335 -7.53131)
(466.484 -40.7317 -1.8121)
(484.435 -22.521 -0.968901)
(477.388 -21.946 -1.25374)
(471.563 -21.3738 -1.53052)
(468.073 -20.7521 -1.61943)
(466.02 -20.2905 -1.55496)
(466.05 -19.8524 -1.67553)
(467.678 -19.3072 -1.95131)
(471.377 -18.909 -2.18407)
(477.341 -18.4614 -1.94822)
(483.325 -18.6068 -1.67626)
(498.168 -17.4351 -1.56994)
(-896.631 77.1454 -7.00563)
(-879.369 80.5831 -7.48827)
(-873.544 88.0495 -9.05149)
(-907.677 34.9447 -8.41217)
(509.42 6.07173 -1.96343)
(488.01 22.8247 -0.422357)
(483.042 21.7767 -0.925393)
(478.293 20.7481 -1.38769)
(474.362 19.9453 -1.19711)
(471.416 19.2183 -0.894786)
(469.223 18.6251 -1.03132)
(469.576 17.9637 -1.44331)
(471.495 17.4825 -1.64468)
(475.007 17.6367 -1.51729)
(478.335 18.0746 -1.25354)
(487.445 19.0692 -1.24502)
(-799.127 247.928 -4.59649)
(-751.332 257.645 -1.90098)
(-714.718 268.851 -1.70248)
(-786.933 222.591 -4.84595)
(438.401 52.3581 -1.78054)
(338.551 64.1121 -0.66028)
(356.987 65.0628 -2.2838)
(368.864 65.2347 -0.788071)
(378.448 63.9379 1.22929)
(385.677 62.9082 0.537179)
(392.612 61.2103 -2.12212)
(399.674 59.4199 -3.38471)
(406.732 58.2759 -1.98458)
(413.382 56.4293 0.029226)
(419.947 55.9941 -0.571769)
(435.245 55.0923 -1.8603)
(-622.913 353.386 -6.89347)
(-473.919 334.862 -6.40044)
(-336.777 290.598 -3.78252)
(-309.721 262.807 -9.72189)
(-54.2866 153.063 -3.80838)
(-38.7277 433.225 -3.67545)
(6.4951 473.399 -3.29501)
(50.8653 401.886 -2.50427)
(28.8233 32.4988 0.107599)
(71.9787 34.8356 -1.53426)
(125.549 49.8981 2.09096)
(175.163 63.0871 1.94768)
(216.26 71.2912 -1.61701)
(250.958 76.0094 -4.74252)
(278.419 79.3038 -3.91745)
(301.067 80.424 0.226133)
(321.549 80.3079 3.03519)
(338.594 80.8454 1.30283)
(353.902 80.1767 -2.5737)
(382.06 79.842 -2.56344)
(-433.804 366.353 -3.12844)
(-236.906 276.773 -4.11398)
(-115.802 187.388 -8.31274)
(-54.719 138.172 -3.42456)
(-63.2215 322.147 -2.02195)
(-21.2602 455.779 -3.31823)
(22.8687 456.59 -3.05438)
(63.1927 317.349 -1.83901)
(34.8106 77.1087 -2.12067)
(20.2498 21.0937 1.27413)
(32.5715 22.2598 1.02193)
(57.8527 32.2328 -2.03951)
(94.2764 46.8064 -3.64024)
(132.558 60.1875 -1.95035)
(170.761 70.961 2.20316)
(204.692 78.6748 4.27928)
(233.159 84.3686 1.861)
(261.842 87.5169 -3.53507)
(285.903 90.6266 -3.76763)
(323.464 93.9635 -1.18458)
(-303.964 350.393 -4.39179)
(-130.033 222.42 -1.0048)
(-63.3288 147.392 0.939841)
(-57.6282 167.794 -2.22254)
(-66.9804 346.474 -2.78891)
(-20.326 447.796 -3.43816)
(21.6758 450.842 -2.93351)
(63.6829 335.312 -3.21999)
(50.6376 130.152 1.02812)
(21.698 33.9013 0.897054)
(15.6727 16.0893 -1.2227)
(22.3126 17.4323 -1.75896)
(37.4268 25.2788 -0.391424)
(62.027 37.5414 1.89893)
(92.2771 51.3071 2.97738)
(123.218 63.192 0.940659)
(156.547 73.323 -3.70718)
(188.911 81.7082 -5.17143)
(215.917 88.8827 -1.08804)
(260.991 97.0551 1.39218)
(-218.247 323.595 -4.4188)
(-86.3555 198.669 -3.3766)
(-60.9936 176.69 -1.33154)
(-65.8992 201.145 -2.25279)
(-66.9925 361.501 -2.84855)
(-19.5904 442.097 -3.30468)
(20.5279 446.042 -3.36499)
(63.2796 346.583 -1.62747)
(63.1253 177.332 1.62915)
(33.0787 61.0235 -1.92075)
(17.1745 22.917 -1.79718)
(14.5207 14.8188 -0.0846884)
(18.6717 15.5321 1.22226)
(27.3362 20.3206 1.24657)
(43.2678 29.4751 -0.126801)
(66.8755 41.6715 -2.73274)
(95.1222 55.1192 -3.9642)
(124.329 67.0493 -1.08574)
(153.828 77.6871 2.94512)
(201.445 92.0485 2.27931)
(-171.731 316.842 0.40771)
(-75.3003 216.401 -1.92853)
(-61.8733 217.102 -2.39289)
(-73.7355 235.503 -3.20656)
(-65.5609 372.488 -2.3279)
(-18.9665 437.945 -3.37203)
(19.6274 443.022 -3.35842)
(61.5478 355.384 0.45087)
(70.6398 214.764 -1.48663)
(47.8821 98.3895 -3.88949)
(25.6337 39.0146 -0.67557)
(15.3099 18.9735 1.27606)
(15.8544 16.0835 1.20901)
(18.1731 15.8585 -0.113744)
(24.5808 19.2839 -1.57563)
(37.8612 28.1206 -2.12872)
(56.8934 39.937 -0.966221)
(82.1944 52.9305 2.47612)
(106.961 65.4722 2.63232)
(151.601 82.8267 0.410996)
(-150.428 337.901 -0.976028)
(-74.1226 246.741 -2.5988)
(-67.9343 265.961 -5.45866)
(-79.1686 267.098 -3.03352)
(-63.6865 382.986 -2.54843)
(-18.5744 436.008 -3.42842)
(18.8666 439.905 -2.87196)
(60.257 362.405 -0.282382)
(74.6585 246.514 -5.09765)
(61.0613 136.284 -2.67098)
(38.3839 64.6801 1.76324)
(20.5733 28.2796 1.41671)
(15.716 18.5164 0.000568706)
(17.4398 17.7132 -1.45367)
(20.8184 18.7975 -1.58019)
(27.1535 22.4925 -0.470344)
(38.589 30.518 1.22614)
(55.3 41.1124 2.068)
(73.1009 51.8434 0.0758241)
(112.105 70.4589 -1.51913)
(-133.391 363.862 -2.10843)
(-74.6502 291.951 -1.37636)
(-77.8699 320.962 -6.42427)
(-83.8581 298.03 -2.89607)
(-61.8603 394.746 -2.08749)
(-18.2429 436.637 -3.70275)
(18.1705 439.815 -2.68739)
(58.506 369.746 -3.04568)
(77.5301 272.821 -4.66903)
(71.1431 173.265 1.5419)
(52.3778 95.84 3.18818)
(30.25 45.193 0.18164)
(19.6542 25.4911 -1.41705)
(18.8153 21.4841 -1.5733)
(20.6685 21.0149 -0.429922)
(24.0899 21.8986 0.927119)
(29.5305 25.4368 1.21233)
(38.6214 31.414 0.263928)
(51.4318 39.989 -1.49931)
(82.8585 58.7909 -1.61667)
(-127.114 405.656 -3.05543)
(-79.4612 349.553 -0.219268)
(-85.6552 376.027 -2.90652)
(-86.9745 326.868 -2.70072)
(-59.855 405.803 -1.50132)
(-17.7886 439.208 -4.03452)
(17.481 440.894 -2.90148)
(56.7112 377.436 -4.29965)
(78.1778 293.909 -0.711977)
(78.1804 205.936 3.91)
(64.4207 127.253 1.30039)
(42.9876 69.8852 -2.50087)
(28.912 39.537 -2.13521)
(23.2902 28.3621 -0.500742)
(22.3155 24.8952 1.08161)
(23.7344 23.9889 1.28154)
(26.3442 24.7025 0.23962)
(31.8062 27.7147 -1.08348)
(39.8116 34.1597 -1.38449)
(62.7959 49.7645 -0.512874)
(-130.448 461.579 1.75467)
(-88.6837 418.657 -0.480095)
(-92.5847 435.296 -0.0328773)
(-89.242 356.944 -2.47689)
(-57.8878 417.582 -1.87892)
(-17.5702 443.899 -4.16446)
(17.1035 443.763 -3.22433)
(55.6759 385.316 -2.88656)
(77.533 312.67 2.01189)
(83.6487 233.334 1.54578)
(74.2039 160.07 -3.66424)
(56.8774 99.1269 -4.00118)
(41.3205 59.6142 -1.11482)
(31.7978 40.6987 1.43576)
(26.7569 31.4875 1.53266)
(25.0311 27.4529 0.482019)
(26.3416 26.7279 -1.00042)
(29.5998 27.6916 -1.1773)
(33.4836 30.631 -0.251313)
(49.9441 42.4904 0.960752)
(-136.447 540.78 6.64182)
(-93.8945 502.487 0.529983)
(-95.5865 497.086 -0.273438)
(-91.0693 388.557 -2.51149)
(-55.9369 430.47 -3.05562)
(-17.246 450.696 -3.97979)
(17.3372 448.646 -3.29374)
(54.0027 393.211 -0.914061)
(77.9167 328.909 0.265083)
(86.3781 260.362 -3.88667)
(82.3282 191.859 -5.45176)
(69.3787 129.503 -1.52355)
(54.6512 86.2291 2.41265)
(43.1946 58.9104 2.51992)
(33.7772 42.0572 0.834145)
(29.1253 33.9502 -0.802567)
(28.224 30.4759 -1.17598)
(29.5614 29.5449 -0.387652)
(32.2641 31.0847 1.039)
(43.0943 39.2143 1.63775)
(-142.692 632.257 9.37918)
(-90.0583 597.592 2.58792)
(-94.5752 567.567 -1.84048)
(-91.3038 421.742 -2.80305)
(-54.1776 444.881 -3.84616)
(-17.4614 457.283 -3.90274)
(17.7367 453.068 -3.06896)
(53.687 401.195 -1.50869)
(77.325 344.01 -3.45571)
(88.9025 282.931 -4.33539)
(89.1857 218.362 -1.74558)
(79.3391 158.863 2.39842)
(67.3239 111.789 2.84044)
(54.7967 77.9408 0.771249)
(43.0141 55.9369 -0.94831)
(36.4698 43.1604 -1.14098)
(32.6774 35.7159 -0.216088)
(31.7588 33.0163 1.1047)
(33.9568 34.1874 1.69435)
(42.2534 40.32 1.22674)
(-163.973 830.041 12.3583)
(-82.9227 798.117 6.53131)
(-86.7258 744.343 -1.84882)
(-87.2099 508.427 -2.65056)
(-53.6949 487.292 -3.89349)
(-16.2565 473.631 -3.88681)
(18.6362 464.405 -2.9229)
(52.9761 418.749 -2.77901)
(77.1812 372.31 -3.49914)
(91.997 319.302 -2.1065)
(96.7504 261.978 0.399022)
(93.0138 205.434 1.64785)
(84.8809 156.661 0.59955)
(73.7539 118.175 -1.00462)
(62.6867 89.3885 -1.12494)
(53.8016 68.8 -0.159164)
(46.7074 55.1072 1.20034)
(42.8446 47.134 1.86776)
(41.7854 43.9016 1.31665)
(46.0395 45.9376 0.735537)
(-766.194 -773.082 83.5723)
(-467.257 -733.925 90.6561)
(-451.781 -737.618 30.551)
(-380.191 -669.688 1.61725)
(-253.457 -859.676 -8.06035)
(-78.6261 -965.953 -8.79289)
(82.1414 -945.747 -4.74183)
(259.149 -842.53 -3.9014)
(369.033 -657.475 -2.41993)
(382.143 -457.602 3.61482)
(361.375 -315.85 5.58957)
(330.236 -224.114 4.47682)
(320.376 -174.649 9.20649)
(342.268 -152.75 8.84399)
(367.498 -134.574 8.11707)
(409.854 -127.713 7.24869)
(465.939 -130.346 14.53)
(545.986 -135.983 19.8922)
(638.085 -141.536 25.6325)
(840.438 -163.245 29.4433)
(-710.933 -479.266 94.571)
(-506.611 -508.07 46.1621)
(-373.477 -429.664 -0.997715)
(-294.351 -492.048 -4.79098)
(-265.705 -808.164 -7.4954)
(-80.7548 -947.789 -8.44181)
(86.5619 -929.26 -5.5349)
(268.511 -794.207 -1.61446)
(349.103 -503.781 0.317237)
(290.028 -253.572 0.214667)
(228.304 -134.88 5.55639)
(196.71 -85.6564 4.31556)
(213.301 -73.5379 6.2223)
(243.871 -73.1389 6.38255)
(289.429 -73.5507 8.18512)
(349.122 -78.356 8.96898)
(419.48 -87.2878 10.4328)
(504.935 -91.3703 12.691)
(602.231 -85.5696 17.2232)
(807.576 -77.0492 25.0929)
(-724.402 -442.723 47.4472)
(-419.109 -370.959 6.71361)
(-350.899 -356.515 -2.17183)
(-287.129 -399.509 1.1454)
(-275.767 -796.404 -4.49382)
(-91.6957 -941.126 -7.77014)
(92.4695 -927.832 -6.92933)
(278.826 -759.598 -0.981206)
(303.599 -362.601 6.62417)
(196.523 -125.069 -3.64798)
(147.498 -62.009 4.61463)
(174.424 -60.0823 4.51751)
(211.85 -63.8275 4.94016)
(259.637 -69.6478 2.41002)
(317.78 -76.064 1.75013)
(379.418 -83.2959 3.54064)
(438.952 -91.877 5.96418)
(500.025 -95.9412 6.99348)
(568.259 -95.0844 7.88353)
(746.153 -88.5098 13.0467)
(-654.838 -374.924 16.2069)
(-473.03 -289.907 7.88796)
(-375.372 -283.862 14.0889)
(-290.505 -299.659 -7.8488)
(-311.17 -640.881 -8.75825)
(-162.17 -925.219 -3.79167)
(36.7437 -956.703 -5.48368)
(230.77 -832.317 -1.65054)
(287.715 -366.147 1.82239)
(141.795 -57.3321 1.28402)
(171.157 -57.1331 1.8322)
(204.876 -63.8961 1.62978)
(239.608 -73.2051 1.24214)
(271.548 -79.4356 1.75563)
(300.507 -83.7445 2.32078)
(327.839 -86.6849 2.7619)
(357.355 -89.1667 3.3955)
(388.107 -91.0608 3.90961)
(420.606 -92.1596 4.13732)
(502.382 -89.5493 6.54389)
(-821.289 -246.148 -3.87179)
(-763.442 -261.499 -4.5129)
(-745.953 -269.726 -0.220502)
(-578.121 -297.413 3.63072)
(142.911 -50.0012 0.614083)
(336.001 -63.4761 1.98698)
(363.619 -67.9263 1.87016)
(382.227 -69.1096 1.65639)
(392.161 -67.6593 1.92928)
(400.143 -65.4259 1.66017)
(410.686 -63.5902 1.8235)
(421.785 -61.8572 2.56639)
(432.947 -59.9057 3.06725)
(443.961 -57.9109 2.56962)
(456.618 -55.5346 2.17249)
(492.944 -54.8121 3.19889)
(-926.464 -78.1525 -4.10433)
(-909.213 -79.8173 -4.94528)
(-904.793 -88.9888 -5.30865)
(-899.143 -156.792 -4.29079)
(461.423 -39.4132 0.896479)
(482.362 -22.0451 1.29138)
(474.549 -21.2256 1.38657)
(467.65 -20.7494 1.51298)
(463.25 -20.1961 1.56912)
(460.057 -19.6327 1.64487)
(459.463 -19.1437 1.62058)
(460.262 -18.5999 1.5032)
(463.131 -18.2691 1.38321)
(468.385 -17.7704 1.80135)
(473.882 -18.0064 2.39251)
(487.109 -17.0054 2.92258)
(-906.832 76.9739 -4.52057)
(-893.416 80.2849 -5.46211)
(-891.722 87.8006 -6.02674)
(-925.82 34.367 -5.11138)
(503.712 5.9737 1.0117)
(485.967 22.5439 2.08137)
(480.079 21.3468 1.99448)
(474.556 20.3012 1.72607)
(470.078 19.5927 1.91651)
(465.833 18.9297 2.40384)
(461.848 18.216 2.56859)
(461.926 17.5455 2.30375)
(463.589 17.0342 2.16917)
(466.953 17.1636 2.1914)
(469.693 17.5245 2.57284)
(477.142 18.5652 3.04251)
(-808.149 247.359 -2.89817)
(-763.406 257.242 -1.75911)
(-729.976 267.859 -1.55404)
(-804.248 220.026 -2.1793)
(433.262 50.772 0.973423)
(335.769 62.7594 1.86858)
(354.034 63.2784 -0.00897114)
(365.766 63.6204 1.12059)
(373.843 62.4844 3.56721)
(379.644 61.1283 3.83621)
(385.452 59.6137 1.78813)
(392.893 57.6924 -0.186555)
(400.817 56.7628 0.572032)
(406.556 55.2252 2.95784)
(411.221 54.2595 3.27916)
(424.385 53.3348 2.49008)
(-628.036 352.157 -5.37107)
(-478.751 333.255 -3.01757)
(-341.2 288.586 2.03765)
(-326.349 264.937 -0.0984673)
(-46.839 156.047 -1.79401)
(-38.3507 443.126 -3.02228)
(6.65577 483.779 -2.56679)
(50.8471 409.395 -2.11746)
(28.8189 34.1896 0.339337)
(70.515 33.8885 -1.60697)
(122.661 47.8464 2.41366)
(171.154 60.4904 3.67248)
(210.168 68.5824 1.45173)
(244.039 73.0254 -1.96674)
(273.744 76.3375 -2.43089)
(296.624 78.2452 0.941391)
(315.082 78.0167 4.98503)
(329.296 77.8458 5.04615)
(342.513 77.466 1.84228)
(370.939 76.9051 1.31486)
(-435.55 364.103 -1.61745)
(-238.843 275.179 -4.56082)
(-116.246 185.47 -6.02597)
(-54.5686 138.822 -1.15213)
(-62.6154 326.447 -1.22922)
(-20.9467 466.605 -2.42597)
(23.0518 467.525 -1.98859)
(63.0918 324.066 -1.10921)
(34.4578 77.9177 -1.75954)
(18.8608 19.8477 1.00132)
(30.7633 20.9698 1.91394)
(53.9251 29.8726 -0.425554)
(89.4908 43.5527 -2.61599)
(128.611 57.3433 -1.82491)
(166.134 68.3143 2.11937)
(198.452 75.5574 5.79736)
(224.097 80.4585 5.30863)
(249.591 83.4443 0.976332)
(274.988 86.0872 -1.02412)
(314.066 90.245 1.55076)
(-300.668 343.792 0.49837)
(-127.891 216.521 0.57193)
(-60.8063 142.261 2.40044)
(-55.8111 167.41 0.294301)
(-66.5463 352.125 -1.91376)
(-20.0868 458.557 -2.53492)
(21.6998 461.626 -2.02055)
(63.3273 342.364 -2.91759)
(49.4051 130.165 1.04064)
(20.4764 32.3544 1.70524)
(15.0647 15.5234 -0.419234)
(21.5138 16.743 -1.59767)
(36.2602 24.4287 -0.803821)
(59.5965 35.8837 1.81546)
(88.0361 48.5444 3.96751)
(115.864 59.1561 3.5389)
(145.708 68.1795 -0.219526)
(179.342 76.2794 -2.90347)
(208.342 84.8011 -0.272172)
(252.287 93.2706 3.57027)
(-213.458 313.677 0.296674)
(-82.9912 188.949 -0.107472)
(-59.0414 169.255 0.828335)
(-63.1452 199.389 -0.508178)
(-67.2511 369.314 -2.35678)
(-19.5198 452.196 -2.63501)
(20.6425 456.834 -2.65684)
(63.3098 354.543 -1.83156)
(61.6942 177.305 2.56606)
(30.9345 57.9099 -0.548813)
(16.5388 22.3202 -1.63797)
(13.9564 14.3055 -0.383702)
(17.8191 14.932 1.09657)
(25.6348 18.9667 1.79886)
(39.2927 26.7016 1.32774)
(59.8609 37.137 -0.663764)
(87.9031 50.1172 -2.51968)
(118.845 63.2962 -0.969683)
(147.822 74.2917 3.5908)
(192.223 87.3063 4.7987)
(-166.89 304.964 5.49783)
(-70.9132 204.444 2.97817)
(-60.9657 206.329 1.98574)
(-71.524 233.199 -1.78728)
(-65.8488 379.802 -1.87818)
(-18.9679 447.909 -2.8851)
(19.8018 453.33 -2.83062)
(61.7598 362.336 0.516367)
(69.4487 214.333 0.59982)
(45.3867 95.3229 -2.99528)
(25.0013 38.339 -1.09429)
(14.7673 18.288 1.09111)
(14.0375 14.259 1.40233)
(16.0171 14.006 0.655752)
(21.339 16.7157 -0.617686)
(34.0214 24.9513 -1.38485)
(53.3423 37.0787 -0.890339)
(77.9633 50.1096 2.518)
(101.464 61.6324 4.12645)
(141.37 77.0938 3.22985)
(-146.298 325.884 5.3982)
(-70.5484 233.367 2.99393)
(-66.6063 252.109 0.83568)
(-77.4593 264.486 -1.39331)
(-63.7649 388.479 -2.09301)
(-18.488 444.826 -3.08409)
(19.1478 449.782 -2.41367)
(60.1798 368.156 0.618231)
(73.7187 246.462 -3.35809)
(59.5149 135.381 -2.78734)
(37.3555 63.3692 1.44916)
(19.4684 26.941 1.81782)
(13.8977 16.3305 0.701832)
(15.1794 15.4242 -0.589544)
(18.4646 16.6144 -1.065)
(24.7841 20.5033 -0.28021)
(35.7197 28.2438 1.4845)
(51.3196 38.0798 3.10531)
(66.4732 47.2749 2.25142)
(101.827 63.9064 1.14609)
(-129.908 351.083 4.9898)
(-72.1618 278.154 4.25272)
(-75.0532 306.757 -0.103455)
(-81.9929 293.732 -0.42196)
(-61.8568 398.871 -1.90314)
(-18.0873 444.438 -3.28292)
(18.353 446.982 -2.06147)
(58.5822 374.657 -1.66098)
(76.7454 275.554 -4.47977)
(70.3142 172.829 0.928777)
(50.5775 93.4028 3.83044)
(27.9102 41.8415 1.39365)
(17.1615 22.3277 -0.574251)
(16.6333 19.0494 -1.07293)
(18.619 18.9118 -0.308175)
(21.6506 19.6775 1.25216)
(26.2327 22.5735 1.96886)
(33.4598 27.1543 1.76913)
(44.1968 34.2284 0.371149)
(74.2933 52.2478 0.436633)
(-123.238 392.534 3.38821)
(-77.5867 336.745 4.91578)
(-82.4938 365.071 1.64647)
(-85.0048 320.734 0.294562)
(-59.9808 409.247 -1.28571)
(-17.598 445.691 -3.3459)
(17.6263 447.596 -2.14347)
(56.7288 382.986 -3.69314)
(78.3623 297.689 -1.31859)
(76.974 204.495 4.81434)
(61.4727 122.259 3.47492)
(39.1411 63.8685 -0.682226)
(26.0159 35.9751 -1.48278)
(21.2815 25.9704 -0.389671)
(20.1862 22.4714 1.30455)
(21.1192 21.3045 2.01424)
(22.7591 21.3149 1.44828)
(26.8754 23.2321 0.352189)
(34.5331 29.1586 -0.162919)
(56.6643 44.5396 0.822524)
(-126.337 447.354 8.7967)
(-86.9371 405.093 5.90121)
(-90.3306 424.414 4.0078)
(-87.1711 349.138 1.07833)
(-57.9963 419.882 -0.944288)
(-17.4028 449.01 -3.25578)
(17.0923 449.726 -2.06096)
(55.9508 391.502 -2.83356)
(77.5191 314.606 2.80455)
(81.5059 229.436 4.28573)
(70.5697 152.453 -0.554238)
(52.8113 93.3292 -2.79564)
(39.0026 56.6869 -1.1099)
(29.6891 37.9815 1.55477)
(23.9381 28.1239 2.23406)
(21.6272 23.7072 1.61991)
(22.4823 22.8547 0.298368)
(25.9674 24.188 -0.241507)
(30.2209 27.5688 0.327116)
(45.7615 38.7873 1.83825)
(-132.231 524.812 13.6162)
(-91.754 486.4 8.57429)
(-93.7346 484.107 5.18029)
(-88.8743 378.49 1.54307)
(-56.0945 430.909 -1.62416)
(-16.9207 454.476 -2.64026)
(17.2385 453.618 -2.01362)
(54.4217 397.585 -0.187741)
(77.028 328.052 2.84698)
(84.3998 254.406 -0.242104)
(78.7204 186.273 -3.71295)
(66.755 125.952 -1.57329)
(52.6243 82.9814 2.33244)
(40.2545 55.0942 3.44872)
(29.4846 36.693 2.25767)
(24.5319 28.7884 0.645556)
(24.6451 26.8105 -0.165439)
(26.4866 26.4743 0.160396)
(29.3799 28.2907 1.38655)
(39.6803 35.9412 2.3858)
(-137.496 613.74 19.4598)
(-87.0457 578.254 12.9758)
(-92.5844 549.268 6.25235)
(-89.7146 409.862 1.73076)
(-53.9058 443.637 -1.90225)
(-17.2549 459.882 -2.03625)
(17.5191 456.985 -1.57536)
(53.3907 403.226 0.228733)
(76.6389 341.291 -0.4204)
(86.7204 278.982 -2.49789)
(87.0922 215.459 -1.2916)
(77.3464 155.477 2.96604)
(64.2111 107.475 4.20162)
(50.349 71.5104 2.82389)
(37.4156 48.5883 0.900673)
(31.376 37.6032 0.176294)
(29.2416 32.0883 0.458917)
(28.8564 29.9426 1.55549)
(30.9035 31.1157 2.26457)
(38.3983 36.6084 2.07134)
(-158.42 807.943 24.0831)
(-78.7016 774.133 19.9987)
(-85.9689 716.135 11.041)
(-86.8683 489.21 4.11503)
(-53.2848 480.167 -0.619315)
(-16.2577 473.446 -1.45449)
(18.4009 465.574 -0.888002)
(52.4557 417.899 -0.519332)
(76.1526 369.998 -1.1414)
(90.564 317.381 -0.385386)
(95.0538 258.737 2.02243)
(89.8584 199.549 3.8174)
(80.1738 148.333 3.11353)
(67.8234 108.684 1.48967)
(56.5145 81.0023 0.89479)
(48.5074 62.3939 1.33944)
(42.4025 50.1948 2.3271)
(38.8722 42.9563 2.8429)
(37.7435 39.8259 2.27138)
(41.69 41.682 1.80398)
(-801.329 -806.899 69.6827)
(-469.359 -754.451 99.1123)
(-458.549 -733.298 32.9326)
(-381.69 -684.995 7.26686)
(-254.13 -875.978 -4.19849)
(-77.4296 -985.53 -2.92777)
(84.2184 -962.824 -3.87281)
(261.307 -857.263 -1.3348)
(371.73 -668.146 -0.462971)
(383.462 -463.799 3.64898)
(360.251 -317.494 6.55679)
(327.125 -223.988 4.01742)
(315.442 -173.587 9.10511)
(339.057 -152.885 9.41491)
(364.84 -135.569 8.76828)
(405.82 -126.813 7.52971)
(460.627 -128.689 14.8424)
(539.237 -134.69 19.5382)
(633.875 -139.511 25.5343)
(841.833 -161.552 28.9877)
(-729.901 -470.907 99.8783)
(-494.506 -488.036 42.2098)
(-370.516 -429.934 0.80883)
(-302.283 -510.274 4.89994)
(-265.972 -826.952 -2.50734)
(-80.3349 -966.547 -3.54489)
(86.8469 -945.381 -4.98952)
(269.771 -805.298 0.035772)
(350.052 -508.671 3.92367)
(290.601 -255.685 -1.277)
(225.975 -133.418 5.16329)
(192.993 -84.1743 3.85059)
(208.689 -70.7244 6.9044)
(240.268 -71.9935 7.21334)
(287.01 -73.5076 8.63452)
(348.049 -77.1473 8.35346)
(418.07 -86.2312 10.2658)
(503.008 -91.3926 12.4864)
(601.067 -85.3997 16.8201)
(812.973 -75.9306 24.1541)
(-719.533 -439.059 39.1187)
(-419.992 -362.971 0.152782)
(-346.401 -349.582 0.311798)
(-290.04 -407.288 14.382)
(-273.687 -811.124 0.059039)
(-90.5548 -959.289 -5.82395)
(92.3643 -943.58 -6.43346)
(279.928 -768.817 -1.7495)
(300.67 -360.345 8.81906)
(196.583 -125.503 -3.64471)
(147.604 -60.3936 3.67125)
(172.085 -57.2853 3.94192)
(206.847 -63.265 6.19831)
(253.896 -70.7226 4.90406)
(312.529 -76.243 4.58917)
(380.168 -80.9446 4.99378)
(444.116 -89.307 6.10757)
(505.183 -94.7951 6.04309)
(570.565 -94.4992 6.6165)
(744.304 -90.417 11.3981)
(-646.195 -366.973 10.3981)
(-474.281 -286.62 1.24399)
(-376.896 -281.567 6.08075)
(-282.907 -295.386 -7.99696)
(-310.309 -656.406 1.37685)
(-158.968 -946.221 -5.60275)
(37.4533 -976.263 -6.78335)
(231.597 -849.003 -2.19805)
(282.041 -362.165 2.43098)
(141.909 -57.4289 2.10246)
(171.771 -57.4361 3.14458)
(206.882 -61.4425 2.42417)
(241.848 -70.5091 1.69014)
(275.114 -77.9589 2.28047)
(304.291 -82.7747 3.22408)
(329.747 -85.6989 3.79249)
(357.894 -88.2381 4.10094)
(387.989 -90.1905 4.21252)
(420.049 -91.6854 3.77662)
(497.887 -90.4532 5.71281)
(-828.636 -247.362 -3.48203)
(-773.403 -260.505 -4.10675)
(-755.058 -267.064 -1.96598)
(-576.832 -294.238 2.37286)
(136.519 -46.8962 1.15174)
(339.378 -62.7874 2.11485)
(366.431 -67.079 2.15884)
(388.276 -68.9732 2.02618)
(400.207 -67.9571 2.15372)
(407.074 -65.4557 1.58879)
(415.887 -63.2746 1.28775)
(426.457 -61.5943 2.12966)
(438.323 -59.8679 2.86521)
(449.491 -58.0905 2.62907)
(462.234 -55.7219 1.86745)
(496.277 -54.9754 2.56691)
(-936.623 -77.5255 -1.09064)
(-917.804 -79.3585 -2.15928)
(-911.588 -88.4366 -4.43993)
(-914.3 -155.072 -3.78212)
(463.75 -39.1774 2.07831)
(492.415 -21.9841 1.89384)
(484.675 -21.267 1.82638)
(477.552 -20.6726 1.57935)
(472.866 -20.2126 1.50106)
(469.818 -19.6399 1.64118)
(469.419 -19.0963 1.7595)
(470.159 -18.4975 1.80598)
(472.903 -18.2557 1.54631)
(478.094 -17.7548 1.66363)
(484.25 -18.0117 2.02194)
(498.188 -17.3485 2.47485)
(-920.872 75.8759 0.804487)
(-905.99 80.107 0.59463)
(-903.442 87.871 -1.51805)
(-938.877 35.9916 -0.635541)
(508.596 6.07795 2.38745)
(496.608 22.4675 2.67391)
(490.287 21.3132 2.81611)
(484.676 20.3359 2.29926)
(480.603 19.4588 2.03071)
(476.777 18.9142 2.33199)
(472.453 18.2507 2.72914)
(472.436 17.6357 2.74217)
(474.046 17.0137 2.38979)
(477.737 17.0182 2.05528)
(481.15 17.2731 2.10291)
(489.298 18.2435 2.4288)
(-819.247 246.534 2.11317)
(-773.194 256.066 2.99934)
(-739.422 266.499 0.818914)
(-815.227 221.8 -0.0870962)
(436.172 50.7341 2.52629)
(341.899 62.7801 3.30055)
(361.222 63.5047 0.733299)
(374.134 63.3803 0.739139)
(381.36 62.4673 2.93833)
(387.471 60.8006 4.51453)
(393.689 59.6049 3.42212)
(401.799 58.0355 0.936218)
(410.117 56.7294 0.411336)
(416.339 55.5642 2.30358)
(421.415 54.234 3.35214)
(434.573 53.3925 2.77521)
(-637.437 351.703 -1.59528)
(-490.296 333.301 2.12749)
(-353.68 289.085 5.38257)
(-349.721 269.608 -1.45076)
(-46.2577 132.945 -0.322891)
(-37.8283 451.869 -2.39379)
(6.64062 494.328 -1.57336)
(50.2466 419.527 -1.28183)
(30.0562 28.5215 0.0761606)
(73.1799 33.6937 -1.75381)
(124.352 46.8421 1.14228)
(173.053 58.7814 4.22092)
(212.873 67.543 3.77067)
(246.382 72.5648 0.551734)
(277.514 75.4075 -1.94884)
(301.694 77.5995 -0.270909)
(319.361 77.7812 3.87463)
(335.045 77.0731 5.7136)
(348.493 77.6472 3.50073)
(377.275 77.2727 1.82556)
(-441.142 362.021 -0.341691)
(-244.943 274.462 -3.39042)
(-121.34 184.401 -4.7341)
(-54.9898 131.814 -0.775252)
(-60.6517 328.613 -0.861741)
(-20.7508 478.143 -2.03491)
(22.7772 479.404 -1.39657)
(62.1734 328.1 0.438946)
(33.445 73.6252 -2.0813)
(17.2049 17.4459 0.130961)
(29.4296 19.1266 2.26314)
(52.327 28.328 1.2786)
(87.0452 41.3266 -1.3714)
(127.179 54.9667 -2.20712)
(164.728 66.1026 0.397756)
(196.757 73.2841 5.22998)
(224.08 78.3717 6.69591)
(250.181 82.7191 3.97037)
(275.793 85.2545 -0.209058)
(317.161 89.5713 0.832726)
(-301.18 338.913 2.41483)
(-126.717 211.084 1.63221)
(-58.7232 137.419 2.23691)
(-55.5236 161.09 1.22749)
(-64.8692 354.252 -0.996159)
(-19.8997 470.498 -2.2448)
(21.5687 473.518 -1.23312)
(62.7435 348.339 -2.34265)
(46.9168 125.019 0.0769177)
(19.0932 30.032 2.18249)
(14.6472 14.7521 0.569745)
(20.5986 15.7059 -1.17376)
(34.6186 22.7036 -1.35818)
(56.6978 33.4945 0.69334)
(84.3645 45.4642 3.8846)
(112.576 56.1886 5.09404)
(141.74 65.7522 2.56186)
(176.247 74.0071 -1.64357)
(206.873 82.3729 -1.25807)
(251.827 91.8808 2.2881)
(-211.536 305.322 0.13864)
(-80.6376 180.119 0.329966)
(-55.7922 161.71 0.899686)
(-59.584 194.838 1.17149)
(-66.5984 374.768 -1.46394)
(-19.3232 463.416 -2.05392)
(20.5416 468.679 -1.59839)
(62.6622 361.855 -2.34259)
(59.0871 173.84 2.92964)
(29.1991 54.4061 1.01179)
(15.8779 21.0361 -1.28488)
(13.5008 13.6055 -0.901349)
(16.5953 13.7546 0.468484)
(23.9851 17.4309 1.90117)
(37.2824 24.9906 2.30409)
(56.6691 34.927 1.1154)
(84.0753 47.1983 -1.56052)
(116.2 60.3916 -1.76125)
(143.95 71.4979 2.13249)
(189.225 84.6989 4.72926)
(-164.431 294.595 4.80117)
(-67.7757 194.974 4.45601)
(-60.8834 195.325 2.89605)
(-68.1923 229.029 -0.654086)
(-65.7134 386.967 -1.1902)
(-18.9526 458.931 -1.84671)
(19.6841 465.516 -1.71979)
(61.6727 369.479 -0.0383942)
(67.906 213.502 2.34741)
(42.8948 90.7458 -2.05031)
(23.3351 36.0342 -1.66673)
(13.751 16.9441 0.447143)
(12.8468 12.9893 1.39069)
(14.993 12.9375 1.21409)
(19.8676 15.4003 0.218035)
(31.6694 22.7504 -0.954657)
(50.5296 34.3441 -1.23456)
(73.4552 46.5586 1.23256)
(97.0597 57.876 4.37216)
(137.234 73.8808 4.25287)
(-145.464 317.026 4.92916)
(-69.0315 224.385 4.10597)
(-68.6223 240.307 3.0069)
(-75.4889 261.879 -0.711633)
(-63.3333 394.294 -1.28078)
(-18.3824 455.912 -1.64681)
(19.119 462.299 -1.34315)
(59.8642 375.775 1.56689)
(72.9981 246.763 -1.21828)
(56.8105 131.978 -3.42342)
(34.9414 59.7247 0.173021)
(18.0845 25.1524 1.82253)
(12.9535 15.1553 1.20903)
(14.2057 14.2403 0.129151)
(16.9073 14.9432 -0.82374)
(22.4744 18.3028 -0.538262)
(32.0181 24.9319 0.891606)
(47.0143 34.2963 3.17842)
(62.4368 43.9311 3.38609)
(97.1287 60.5153 2.0788)
(-130.387 343.055 5.12454)
(-72.1729 270.302 3.97343)
(-75.8296 296.513 2.0649)
(-80.653 291.815 0.328536)
(-61.1824 402.974 -1.25653)
(-17.8821 455.561 -1.7623)
(18.4209 458.743 -0.911224)
(58.6575 382.708 0.341549)
(75.7752 277.683 -4.20885)
(68.0334 170.174 -1.09621)
(47.6831 89.1343 3.34762)
(26.5015 39.7445 2.2072)
(16.0333 20.6657 0.171385)
(15.065 17.1447 -0.838673)
(16.7451 16.8589 -0.603577)
(19.104 17.1877 0.780795)
(23.2095 19.7397 2.07252)
(30.4164 24.4802 2.43726)
(40.492 31.2168 1.24896)
(70.1266 48.512 0.718579)
(-121.932 383.35 3.84617)
(-77.4131 330.542 3.45131)
(-81.0919 360.836 1.56353)
(-83.8642 317.697 1.16981)
(-59.476 413.443 -0.471959)
(-17.4756 456.353 -2.05758)
(17.9237 459.211 -0.976217)
(57.2282 392.017 -2.29628)
(77.7606 301.82 -2.73697)
(75.0992 202.446 3.7198)
(58.9997 119.002 4.43631)
(37.371 60.8304 0.767765)
(24.2217 33.6574 -1.1812)
(18.9828 23.3161 -0.614973)
(17.4264 19.4898 0.780127)
(18.7459 18.7867 2.11121)
(20.7801 19.3277 2.06095)
(24.866 21.2949 1.22324)
(32.0992 26.3027 0.126812)
(53.4552 41.0885 0.772717)
(-124.507 437.686 9.8524)
(-87.6135 399.403 4.82652)
(-89.126 424.218 2.0505)
(-86.3894 345.707 1.63184)
(-57.8486 425.367 -0.166667)
(-17.331 459.154 -2.40662)
(17.1811 461.525 -1.36404)
(56.0638 400.945 -2.84306)
(77.6183 319.141 1.41099)
(80.058 230.117 5.01092)
(68.8967 149.6 1.49937)
(50.4757 90.0469 -2.30387)
(36.719 54.0388 -1.58102)
(26.2822 33.8415 0.880578)
(20.5925 24.2379 2.19343)
(19.6874 21.3099 2.14657)