/*--------------------------------*- C++ -*----------------------------------*\
  =========                 |
  \\      /  F ield         | OpenFOAM: The Open Source CFD Toolbox
   \\    /   O peration     | Website:  https://openfoam.org
    \\  /    A nd           | Version:  9
     \\/     M anipulation  |
\*---------------------------------------------------------------------------*/
FoamFile
{
    format      ascii;
    class       volScalarField;
    location    "0.0095";
    object      T;
}
// * * * * * * * * * * * * * * * * * * * * * * * * * * * * * * * * * * * * * //

dimensions      [0 0 0 1 0 0 0];

internalField   nonuniform List<scalar> 
9720
(
1020.21
1004.96
942.343
869.141
871.733
885.283
885.273
870.05
848.08
827.135
814.722
815.561
818.341
825.116
834.151
843.922
855.354
870.334
885.519
915.679
1005.52
907.911
825.536
822.932
866.5
883.227
883.05
863.135
825.317
790.293
778.474
780.427
785.823
795.845
810.064
823.397
835.787
850.276
864.573
897.204
945.39
824.786
814.2
811.328
864.001
883.215
882.891
860.832
808.832
776.998
776.892
781.269
791.513
801.988
811.794
817.612
820.291
823.937
829.78
859.62
868.792
821.336
810.272
793.459
837.121
882.516
888.332
874.035
801.586
754.67
751.177
749.199
749.685
750.957
752.745
755.098
758.012
762.067
766.382
787.3
868.353
862.611
860.325
836.951
735.197
741.622
745.92
745.914
745.343
745.428
746.3
748.2
750.712
753.842
757.136
767.48
881.468
879.303
879.98
878.901
762.586
765.442
763.684
761.859
760.471
759.409
758.852
759.039
759.663
760.873
762.455
766.02
880.997
879.045
879.626
885.02
770.843
766.304
764.763
763.187
761.871
760.739
760.009
759.539
759.621
760.028
760.523
762.219
865.449
858.801
856.638
870.088
756.888
736.526
737.077
737.564
738.466
739.454
740.612
742.111
743.708
745.31
746.794
750.223
843.513
821.386
805.549
796.514
719.313
758.379
766.72
751.504
730.139
713.897
711.662
710.121
710.77
713.016
715.976
719.516
723.216
726.808
730.046
736.65
823.541
786.123
771.776
745.852
738.833
762.09
762.535
730.509
706.038
723.489
713.61
706.46
703.214
703.271
704.259
705.994
708.027
711.646
715.367
723.909
811.509
773.544
769.32
743.23
741.287
759.994
760.71
732.534
704.487
710.34
708.952
702.298
700.321
699.969
698.497
697.608
699.084
702.359
705.38
713.42
811.959
775.761
775.844
743.521
740.921
758.005
759.079
733.704
704.71
703.308
701.177
696.447
693.182
692
692.1
695.453
696.479
696.847
697.872
704.31
814.503
781.49
788.079
745.015
740.828
756.564
757.82
734.999
705.926
699.81
697.511
691.341
684.274
685.596
691.099
696.919
696.729
697.03
697.072
701.342
821.069
791.382
798.213
747.066
741.349
755.305
756.828
736.263
709.218
699.891
696.02
688.149
684.581
686.947
692.439
699.346
699.538
699.007
698.646
702.166
829.816
805.377
806.349
749.333
742.823
755.134
756.029
737.683
713.715
701.181
694.286
688.218
688.559
691.477
696.662
700.146
700.146
701.197
702.026
704.594
839.527
818.741
811.473
751.992
745.018
755.464
755.978
739.541
718.502
703.513
693.877
691.968
694.226
698.556
700.758
699.662
699.633
703.238
704.946
706.811
850.711
830.811
815.038
755.11
747.648
756.338
756.177
741.44
722.694
706.247
695.764
694.152
695.012
699.446
701.835
700.673
700.867
703.044
703.704
707.131
865.442
844.66
819.51
759.533
751.081
757.926
756.877
743.344
726.567
710.542
699.954
695.43
695.967
699.287
703.678
705.323
704.667
702.981
703.051
708.239
880.596
858.313
825.487
764.268
754.764
759.825
757.713
745.121
729.973
714.832
703.987
696.717
696.597
699.169
704.047
708.276
707.358
704.687
705.306
710.869
911.141
891.093
854.388
785.881
765.994
763.968
760.087
749.176
736.871
724.259
713.03
703.007
701.478
702.88
706.334
710.921
712.624
713.805
715.302
719.372
1022.65
1002.86
934.768
865.259
872.591
885.866
885.793
870.373
847.973
826.841
813.939
814.845
817.35
823.888
833.041
843.107
854.481
869.345
884.436
915.054
1004.3
899.809
824.074
822.539
868.384
884.043
883.764
863.496
824.998
791.443
777.9
779.254
783.686
793.113
807.647
821.794
834.197
848.367
862.516
895.517
938.903
822.921
812.707
811.332
866.069
884.326
883.65
861.058
808.891
779.144
776.711
779.528
787.49
797.224
807.979
815.332
817.959
820.958
826.091
855.061
865.372
820.32
808.675
792.909
843.79
882.595
888.411
874.084
803.433
754.06
749.074
746.274
746.665
747.765
749.224
751.135
753.732
757.487
761.545
781.045
867.622
862.204
859.221
832.71
739.695
738.137
742.772
743.07
742.472
742.403
743.033
744.674
746.974
749.865
752.995
762.791
881.106
879.19
880.063
878.515
759.703
762.814
761.055
759.219
757.737
756.675
755.933
756.027
756.532
757.623
759.137
762.589
880.82
879.044
879.82
884.523
767.927
763.625
762.01
760.441
759.126
757.887
756.921
756.462
756.562
756.999
757.453
758.94
865.297
858.963
856.939
869.912
754.212
733.278
734.172
734.766
735.444
736.211
737.276
739.009
740.912
742.364
743.462
746.568
843.006
820.684
804.989
798.447
732.001
757.478
765.873
750.451
749.097
719.973
713.27
707.319
707.048
709.151
713.447
717.525
720.535
722.985
725.614
732.459
822.487
786.745
774.099
748.595
736.51
761.013
761.44
729.077
713.137
729.908
715.394
706.09
704.578
703.731
702.731
702.99
703.555
706.05
710.405
720.084
809.184
772.85
770.5
744.812
740.658
759.297
759.953
731.791
707.466
712.197
710.482
707.51
704.861
701.189
695.876
693.376
694.748
699.4
703.08
710.41
810.028
774.319
774.739
743.544
740.926
757.544
758.544
733.198
704.717
703.849
706.786
704.99
699.895
691.628
688.272
691.294
695.618
697.345
697.767
701.317
812.763
778.947
784.17
744.47
740.72
756.169
757.428
734.235
705.067
703.62
704.094
699.336
686.517
682.569
687.113
695.302
697.161
696.396
694.036
697.545
819.472
788.303
793.506
746.023
740.904
755.012
756.424
735.212
708.005
703.012
699.96
690.339
682.1
684.277
691.146
699.087
698.76
696.484
694.328
698.385
828.634
802.822
802.96
747.744
741.843
754.499
755.472
736.559
713.433
702.434
694.652
686.85
686.195
690.859
697.395
698.865
697.035
695.755
696.364
701.062
838.841
817.244
810.003
749.853
743.624
754.726
755.302
738.697
718.501
702.999
692.585
689.901
693.944
699.151
699.654
695.852
693.419
696.705
701.281
704.713
850.108
829.588
813.681
752.574
745.958
755.407
755.464
740.877
721.825
704.006
694.194
694.883
696.911
699.418
698.936
695.043
694.976
699.526
702.019
705.337
864.726
843.185
817.325
756.477
748.972
756.661
756.027
742.457
724.441
707.132
699.528
697.652
696.687
697.823
698.214
699.064
701.074
701.789
701.935
705.971
879.57
856.676
822.423
760.665
752.277
758.279
756.669
743.715
727.263
712
704.034
698.294
695.088
695.978
698.742
704.449
705.513
703.781
703.83
708.079
910.166
889.612
850.192
780.141
762.428
761.983
758.552
747.217
734.394
722.266
711.993
701.77
698.816
700.167
703.549
708.749
710.372
710.957
712.085
716.282
1031.47
1003.94
925.283
863.091
873.056
886.097
885.861
870.22
847.902
827.177
814.564
815.992
818.891
825.752
835.509
845.865
857.354
872.197
887.728
919.563
1005.46
886.354
823.927
824.544
868.881
884.163
883.754
862.969
824.899
793.28
780.627
781.688
785.801
794.953
809.693
824.975
837.584
851.386
865.684
899.996
929.513
821.115
811.511
812.686
865.691
884.282
883.689
860.356
809.548
782.059
783.893
784.301
788.28
796.031
807.376
818.963
822.413
824.095
827.694
854.281
860.234
819.324
807.535
791.006
844.909
883.431
888.837
874.251
804.185
756.257
750.688
747.148
746.719
747.325
748.632
750.194
752.328
755.571
759.22
776.423
866.932
861.94
858.567
830.966
735.61
735.974
739.754
742.085
741.82
741.311
741.65
742.838
744.862
747.541
750.545
759.761
880.764
878.887
879.902
878.744
757.872
761.678
759.867
758.029
756.554
755.544
754.796
754.845
755.278
756.292
757.825
761.46
880.979
879.229
879.584
884.535
766.295
762.47
760.76
759.155
757.857
756.704
755.674
755.277
755.394
755.862
756.432
758.057
865.352
859.124
857.106
870.062
752.28
731.022
732.861
733.694
734.023
734.557
735.604
737.558
739.768
741.305
742.284
745.272
842.675
820.202
804.297
798.556
732.978
756.369
764.699
749.609
762.266
723.726
714.89
707.364
706.286
707.713
712.332
716.951
719.377
721.212
723.356
730.238
821.628
787.612
775.963
753.413
735.428
760.392
760.715
727.71
720.924
735.619
719.622
706.469
706.653
706.599
704.574
701.868
701.742
703.359
707.869
718.226
807.647
774.379
777.121
747.869
738.52
758.528
759.075
730.619
711.546
717.095
714.395
713.736
711.834
706.525
698.195
694.159
695.403
700.49
703.805
709.841
809.089
775.276
778.103
744.086
740.41
756.642
757.543
731.934
705.252
704.673
713.254
714.164
709.716
699.403
692.109
693.496
698.262
701.175
700.272
701.993
812.459
779.683
782.784
744.065
740.196
755.159
756.381
732.539
705.073
705.569
711.389
709.58
698.006
688.854
691.611
699.503
702.506
700.732
697.219
700.3
819.874
789.003
790.525
744.858
739.749
754.138
755.436
733.308
706.853
705.989
705.924
698.875
688.649
690.039
697.194
704.461
703.483
701.015
698.223
702.16
830.179
803.899
801.368
746.492
740.08
753.408
754.357
734.655
712.202
704.384
697.661
691.599
691.129
696.937
702.509
703.463
701.821
700.674
701.093
705.906
841.039
819.74
812.846
748.342
741.306
753.505
754.209
737.05
717.517
702.647
694.477
693.228
698.748
704.027
703.426
699.928
698.379
701.93
708.353
711.433
852.826
832.705
817.483
750.683
743.402
754.031
754.461
739.526
720.362
702.869
696.002
698.589
702.361
703.266
702.396
699.316
700.047
708.172
711.328
712.932
867.565
846.16
819.677
754
746.174
755.094
755.087
741.245
722.535
705.064
701.49
701.994
700.939
701.188
701.907
703.447
708.98
711.873
710.538
713.385
882.701
859.889
823.258
757.635
749.221
756.633
755.77
742.427
724.99
709.964
705.306
701.499
698.321
699.509
702.615
710.12
713.941
712.177
711.618
715.26
914.275
894.114
848.742
774.439
758.484
760.43
757.693
745.826
732.27
720.826
712.233
703.607
701.811
703.934
708.11
714.672
717.393
717.721
718.939
723.581
1039.55
1004.43
915.539
862.272
873.303
886.388
886.038
870.031
847.176
825.875
813.933
815.953
819.482
826.722
837.746
848.871
861.13
876.11
891.961
925.141
1005.83
871.612
822.643
826.541
868.344
884.242
883.972
862.85
823.727
791.692
781.44
783.149
788.23
797.011
811.865
828.698
842.474
856.04
870.144
905.596
919.035
819.968
810.752
812.938
863.991
884.329
883.945
860.398
808.195
781.253
788.582
790.895
792.23
796.258
805.635
821.015
829.074
829.637
831.559
854.429
856.058
819.422
808.117
790.929
839.846
883.602
889.105
874.253
807.746
760.766
753.876
750.01
747.359
747.411
748.624
750.408
752.358
755.204
758.247
772.607
866.674
862.338
859.138
836.313
694.782
736.4
738.799
741.877
742.44
741.867
741.737
742.347
743.999
746.513
749.169
757.099
880.673
878.911
879.951
878.71
757.135
761.625
759.951
758.139
756.58
755.503
754.638
754.527
754.764
755.465
756.703
760.084
881.039
879.171
879.268
884.575
765.892
762.44
760.801
759.317
757.991
756.769
755.668
754.959
755.01
755.321
755.762
757.189
865.125
858.633
856.409
869.909
751.948
730.834
732.417
733.483
733.737
734.082
734.991
736.764
738.876
740.427
741.415
744.127
842.497
819.57
803.347
797.435
736.575
756.519
764.87
749.766
773.38
733.151
722.457
711.007
708.088
708.834
712.224
716.536
718.774
720.453
722.315
728.407
821.435
787.364
775.853
756.729
735.876
760.676
761.021
727.558
725.821
746.357
727.915
711.14
709.572
709.555
707.359
702.812
701.826
703.219
707.179
716.849
807.876
776.092
782.908
750.969
737.719
758.761
759.355
730.616
715.872
724.038
722.597
720.027
718.129
712.558
702.03
696.972
698.103
702.702
705.032
709.558
809.462
777.191
785.285
747.765
740.424
756.833
757.877
732.154
707.152
707.133
717.557
721.748
717.889
707.896
698.197
698.209
701.395
704.73
703.062
703.956
812.845
781.826
786.913
745.531
740.943
755.264
756.644
732.639
706.213
706.865
715.924
717.476
709.331
698.231
698.965
704.935
707.947
705.898
700.956
703.457
820.33
791.061
791.147
745.537
740.398
754.199
755.579
733.196
707.228
707.569
711.233
707.781
698.214
698.633
704.66
710.588
709.371
705.568
702.504
706.261
831.555
805.953
800.143
746.641
740.275
753.34
754.554
734.435
711.331
706.6
701.997
697.941
698.483
704.097
708.372
708.981
706.705
706.04
706.888
711.593
842.846
822.826
814.978
748.364
740.889
753.352
754.134
736.627
716.792
703.436
696.896
697.682
703.175
709.678
708.779
704.969
704.531
709.023
715.8
718.635
855.037
836.277
822.96
750.199
742.517
753.638
754.278
739.022
719.905
702.759
697.858
700.306
706.349
708.745
706.846
704.649
706.567
717.167
723.454
723.538
869.935
849.002
823.144
752.787
744.892
754.357
754.743
740.791
721.932
704.215
702.009
703.953
705.079
705.101
705.794
709.079
717.291
725.457
724.528
726.093
885.533
862.286
824.594
755.602
747.412
755.531
755.279
741.965
723.959
708.138
705.03
703.153
701.069
702.398
706.586
715.094
724.501
725.54
725.45
728.515
918.971
897.702
845.293
768.918
755.104
758.976
756.956
744.983
730.316
718.596
711.177
704.813
703.789
706.311
711.745
719.447
725.696
728.692
731.045
735.911
1044.84
1005.84
910.421
860.905
873.539
886.707
886.296
869.923
846.535
824.564
812.594
815.045
819.337
827.376
839.13
850.997
864.036
879.203
895.119
928.508
1007.92
866.27
821.02
827.382
868.796
884.765
884.353
862.949
822.582
789.926
780.423
782.306
788.52
798.355
813.224
830.406
845.366
859.452
873.693
909.835
914.72
819.111
809.822
813.625
864.83
884.897
884.407
860.748
805.855
778.845
789.32
794.89
794.808
795.968
803.154
819.198
831.897
832.802
834.37
855.692
854.748
819.097
806.88
789.753
840.631
883.751
889.631
874.834
800.296
761.275
754.377
751.211
748.387
747.533
748.497
750.33
752.347
755.288
758.241
771.231
866.223
861.526
857.69
834.11
735.287
737.467
738.569
741.175
742.774
742.417
741.961
742.4
743.916
746.45
749.096
756.559
880.311
878.63
879.91
878.45
757.671
761.997
760.154
758.263
756.633
755.462
754.529
754.468
754.699
755.344
756.51
759.878
880.82
879
879.492
884.446
766.483
763.013
761.166
759.578
758.196
756.914
755.899
755.078
755.025
755.282
755.762
757.292
864.615
858.164
856.106
869.772
752.823
731.855
732.144
732.943
733.501
733.986
734.923
736.554
738.487
740.239
741.46
744.13
842.014
818.782
802.273
796.874
734.842
756.672
765.207
749.982
771.826
737.375
726.329
714.551
709.608
709.97
712.124
715.672
718.372
720.53
722.435
727.824
820.88
787.104
776.122
758.384
736.348
760.664
761.112
727.585
729.792
756.885
734.588
716.271
711.377
710.85
708.912
704.707
703.198
704.159
706.9
715.893
807.987
776.794
785.071
751.867
737.405
758.814
759.479
730.168
719.43
730.384
728.463
722.562
719.791
716.243
708.351
701.049
701.003
703.299
705.494
710.013
809.763
778.209
789.663
749.142
739.856
756.919
758.033
731.846
709.222
710.569
718.807
724.297
722.802
716.738
706.362
702.63
703.384
706.112
705.587
706.724
813.555
783.607
790.532
746.922
741.219
755.269
756.764
732.736
707.132
707.838
716.454
722.342
719.298
711.008
705.966
707.63
709.916
709.913
706.424
707.235
821.071
793.036
792.709
745.846
740.866
754.103
755.671
733.488
707.854
708.145
713.725
715.577
710.477
706.103
707.519
714.474
715.355
713.602
708.634
709.954
832.438
807.778
799.69
746.595
740.352
753.193
754.905
734.564
710.77
707.425
706.708
704.783
704.46
706.83
711.186
715.38
715.505
715.212
713.446
715.576
843.779
824.752
814.25
748.159
740.707
753.192
754.315
736.223
715.458
704.66
699.568
700.729
705.396
713.001
715.037
715.18
715.108
717.079
720.029
723.572
856.019
838.294
824.876
749.876
742.058
753.42
754.289
738.329
719.32
703.618
699.441
701.32
707.273
714.027
715.117
714.992
715.677
720.149
728.873
731.442
870.642
850.419
824.955
752.293
744.286
753.994
754.551
740.407
722.117
704.591
701.538
704.015
707.729
712.211
714.255
716.501
719.964
729.69
737.525
737.593
886.437
863.12
825.779
754.775
746.65
754.978
755.073
741.963
724.15
707.279
704.116
704.03
704.892
706.925
711.58
718.278
728.021
737.519
738.21
738.987
921.196
898.617
842.81
766.053
753.53
758.142
756.723
744.866
729.488
716.794
710.349
705.836
705.994
708.141
713.772
722.301
731.898
739.549
740.542
742.708
1045.18
1005.93
909.618
860.174
873.634
886.925
886.408
869.983
846.547
824.634
812.436
814.839
819.37
827.423
839.137
851.193
864.638
880.127
896.096
929.101
1008.77
866.083
820.478
827.728
869.346
885.108
884.454
863.014
822.569
790.066
780.434
782.203
788.604
798.93
813.839
830.575
845.529
859.927
874.551
911.052
915.431
818.916
809.171
814.578
865.664
885.46
884.615
860.798
805.923
779.012
789.424
795.674
796.046
797.503
804.683
820.637
832.86
833.473
835.007
857.105
855.572
819.373
806.453
789.454
844.111
883.958
889.889
875.167
800.054
760.983
754.167
751.406
748.835
747.672
748.524
750.332
752.529
755.639
758.554
771.712
865.899
860.828
856.616
829.539
737.545
737.504
738.491
741.098
742.687
742.327
741.872
742.269
743.737
746.263
748.949
756.479
879.836
878.015
879.398
878.37
757.803
762.051
760.235
758.345
756.72
755.537
754.53
754.414
754.655
755.302
756.43
759.668
880.637
878.895
879.589
884.429
766.698
763.02
761.107
759.538
758.239
756.949
755.781
754.857
754.832
755.147
755.634
757.075
864.416
858.139
856.261
869.705
752.837
731.405
732.041
732.991
733.577
734.08
734.948
736.66
738.797
740.447
741.535
744.038
841.864
818.772
802.444
797.991
739.422
756.501
765.163
750.164
787.135
736.581
725.868
714.262
709.339
709.776
712.099
715.861
718.841
721.103
722.746
727.831
820.603
787.07
776.377
758.614
735.999
760.543
761.041
727.32
731.866
759.002
735.487
716.116
711.109
710.57
708.91
705.116
703.667
704.38
706.957
716.003
807.927
777.182
785.472
751.773
737.083
758.755
759.306
729.967
721.277
733.078
729.835
722.499
719.452
716.097
708.617
701.054
700.708
702.984
705.382
710.087
809.763
778.609
790.364
748.987
739.516
756.899
757.874
731.738
710.453
712.38
720.197
724.912
723.41
717.299
706.771
702.213
702.904
705.755
705.377
706.515
813.643
784.074
791.489
746.704
740.994
755.301
756.673
732.294
707.216
708.482
717.295
723.034
720.215
712.083
705.794
706.862
709.332
709.735
706.327
706.941
821.241
793.543
793.575
745.755
740.652
754.173
755.575
732.699
707.849
708.504
714.222
716.285
711.522
706.215
707.123
714.046
715.7
713.844
708.547
709.562
832.702
808.099
799.824
746.491
740.182
753.285
754.581
733.644
710.702
707.387
707.065
705.474
704.952
706.926
711.423
716.153
716.168
715.592
713.193
715.441
844.082
824.911
813.783
747.973
740.524
753.286
754.008
735.708
715.238
704.217
700.083
701.308
706.003
713.613
715.993
716.128
715.848
717.211
720.334
723.868
856.289
838.474
824.513
749.574
741.826
753.53
754.081
738.298
718.623
703.255
699.986
702.056
708.171
714.817
715.904
715.799
716.268
720.774
730.058
732.107
870.866
850.464
824.624
751.915
744.064
754.154
754.505
740.262
721.164
704.262
702.246
704.66
708.29
712.677
714.965
717.119
720.881
731.609
737.126
737.272
886.641
862.938
825.391
754.401
746.522
755.181
755.059
741.533
723.272
707.245
704.641
704.217
705.081
707.335
712.325
719.329
729.844
737.731
737.609
738.567
921.516
898.302
841.733
765.452
753.489
758.356
756.638
744.402
729.118
716.863
710.131
705.773
706.102
708.67
714.628
723.403
733.103
739.498
740.349
742.861
1040.43
1004.74
913.902
860.942
873.785
887.121
886.469
870.244
846.903
825.216
813.257
815.56
819.648
827.268
838.414
849.688
862.508
878.027
894.004
926.51
1007.53
871.235
821.062
827.842
869.782
885.39
884.427
863.063
822.886
790.515
780.67
782.583
788.653
798.539
813.588
830.067
843.99
858.155
872.882
908.697
920.283
818.975
809.177
815.644
866.039
885.65
884.438
860.638
806.07
779.641
788.596
793.059
794.608
798.428
808.012
823.985
832.171
832.384
834.229
858.223
856.606
818.612
806.189
790.078
844.422
883.993
889.913
875.264
799.856
759.933
753.986
751.115
748.335
748.069
749.121
750.98
753.173
756.256
759.333
774.111
865.536
860.696
856.851
829.883
739.388
736.805
738.559
741.683
742.588
742.025
741.859
742.498
744.272
746.947
749.678
757.753
879.721
877.993
879.309
878.389
757.624
761.731
759.857
757.954
756.382
755.296
754.434
754.438
754.71
755.449
756.705
760.144
880.465
878.799
879.592
884.434
766.552
762.583
760.809
759.273
757.952
756.757
755.723
755.05
755.097
755.412
755.876
757.367
864.288
857.985
856.002
869.583
752.49
730.153
731.971
733.218
733.622
734.074
735.132
737.054
739.285
740.915
741.887
744.438
841.675
818.588
801.88
795.658
734.947
756.138
764.864
750.02
783.658
732.351
722.129
710.947
707.984
708.659
711.907
716.657
719.37
721.063
722.791
728.566
820.738
786.967
776.101
756.405
735.809
760.299
760.835
727.378
731.039
750.891
729.825
711.536
709.251
709.404
707.709
703.401
702.142
703.424
707.144
716.814
807.907
776.635
783.226
750.741
737.224
758.449
759.11
729.908
719.848
728.286
725.064
720.846
718.675
713.488
703.549
697.541
698.416
702.608
705.043
709.774
809.651
778.222
787.594
748.206
739.784
756.559
757.639
731.55
708.837
709.204
719.681
723.461
719.62
710.442
699.587
698.84
701.224
704.82
703.397
704.249
813.255
782.925
789.756
746.11
740.747
754.992
756.383
732.094
706.756
707.958
717.747
719.359
712.527
700.585
700.12
704.625
708.119
706.788
701.668
703.654
820.997
791.921
793.215
745.756
740.319
753.922
755.302
732.677
707.559
708.39
712.679
709.82
700.295
700.104
704.921
711.389
710.702
707.025
703.163
706.606
832.58
806.955
800.861
746.643
740.066
753.037
754.195
733.804
711.136
706.945
702.919
699.243
699.901
704.879
709.329
710.614
708.685
707.423
707.775
712.419
844.058
824.165
814.517
748.31
740.586
753.028
753.697
735.829
715.965
703.11
697.678
698.818
704.507
711.327
710.751
707.32
706.471
710.059
717.36
720.561
856.063
837.753
823.884
750.168
742.118
753.298
753.832
738.193
718.82
702.361
698.705
701.524
707.883
710.656
709.079
706.702
708.439
718.978
726.648
726.178
870.818
850.135
824.293
752.795
744.519
754.048
754.329
740.035
720.934
703.88
702.94
704.886
706.513
706.994
707.679
710.598
719.671
728.755
727.029
727.779
886.476
862.984
825.517
755.56
747.099
755.296
754.938
741.29
723.045
707.977
705.469
703.713
702.108
703.675
708.247
717.805
728.112
728.331
727.119
729.407
920.274
898.326
844.323
768.116
754.69
758.816
756.666
744.367
729.525
718.123
710.888
705.097
704.596
707.63
713.726
722.353
728.652
730.507
731.776
736.5
1032.14
1003.34
922.984
862.973
874.16
887.328
886.581
870.725
847.696
826.323
813.842
815.649
819.202
826.409
836.112
846.204
857.99
873.437
889.218
920.598
1006.28
885.027
823.64
826.527
870.269
885.595
884.431
863.429
823.917
791.232
779.838
781.367
786.403
796.53
811.701
826.668
839.324
853.716
868.588
903.051
929.894
820.282
810.805
815.185
866.922
885.771
884.362
860.84
807.4
779.869
784.237
786.262
790.391
798.335
810.454
823.024
826.53
827.98
831.584
859.393
859.303
818.376
806.859
791.513
845.414
884.271
889.843
875.096
799.929
757.29
752.275
748.801
747.268
747.806
749.175
750.905
753.203
756.658
760.428
778.692
865.825
861.078
857.813
830.37
741.957
736.063
739.542
742.399
742.21
741.503
741.733
742.916
744.999
747.779
750.87
760.353
879.965
878.315
879.568
878.583
757.217
761.402
759.599
757.774
756.303
755.301
754.478
754.468
754.826
755.815
757.399
761.169
880.364
878.802
879.7
884.478
765.982
762.171
760.508
759.029
757.812
756.69
755.623
755.065
755.19
755.648
756.219
757.861
864.463
858.397
856.541
869.617
751.796
730.143
732.193
733.288
733.734
734.303
735.392
737.501
739.895
741.418
742.275
745.054
841.771
819.431
803.661
797.982
735.635
756.408
765.012
750.062
773.224
728.62
718.414
708.714
706.71
707.853
712.255
717.241
719.764
721.431
723.382
730.04
821.224
787.138
775.98
753.996
735.997
760.886
761.358
728.361
723.977
741.024
723.784
708.169
707.656
707.792
705.986
702.742
702.1
703.465
707.763
718.196
807.682
775.407
778.644
748.901
738.692
759.052
759.717
731.032
714.745
720.855
718.045
716.745
714.595
709.264
700.298
695.108
696.193
701.317
704.65
710.483
809.132
776.538
781.618
745.458
740.692
757.182
758.208
732.387
706.84
706.253
716.176
717.867
713.45
702.963
693.605
694.482
699.252
702.868
701.836
702.979
812.686
780.941
786.982
745.068
740.619
755.656
756.995
732.991
705.977
706.854
714.28
713.307
702.066
690.931
692.861
700.481
704.519
702.89
698.771
701.302
820.529
790.286
793.54
745.672
740.264
754.606
755.975
733.663
707.393
707.522
708.807
702.271
690.779
691.791
698.79
706.688
705.693
702.899
699.714
703.414
831.252
805.51
802.729
747.179
740.532
753.838
754.841
734.813
712.313
705.989
699.761
693.325
692.797
698.891
705.121
705.876
703.877
702.44
702.659
707.673
842.301
821.622
813.709
749.025
741.641
753.915
754.551
736.998
717.603
703.308
695.459
694.582
700.317
706.674
705.933
702.065
700.184
703.418
710.466
714.178
854.126
834.477
818.928
751.213
743.629
754.376
754.741
739.507
720.385
703.115
696.846
699.69
704.576
705.82
704.478
700.951
701.713
710.385
714.643
715.788
868.992
847.475
820.688
754.287
746.31
755.354
755.283
741.267
722.265
704.763
702.233
703.521
703.217
703.292
703.492
704.65
711.242
715.387
713.453
715.609
884.5
860.892
823.551
757.649
749.283
756.829
755.905
742.323
724.426
709.392
705.892
702.818
699.699
700.792
703.972
712.175
717.093
715.204
713.858
716.839
916.761
895.742
847.086
772.967
758.116
760.551
757.69
745.461
731.484
720.188
712.23
704.202
702.628
705.06
709.823
717.068
719.443
718.963
719.626
724.248
1022.89
1001.27
931.757
866.386
874.504
887.528
886.748
871.331
848.64
827.241
814.182
815.221
817.943
824.389
833.21
842.769
854.287
869.625
884.99
915.483
1004.43
897.543
825.657
825.44
870.358
885.666
884.586
864.24
825.665
791.747
778.266
779.679
784.559
794.519
808.878
822.241
834.52
849.155
863.79
897.112
938.871
821.91
813.197
813.78
867.619
885.648
884.425
861.666
809.735
779.219
777.843
780.315
788.311
799.024
810.625
818.466
820.931
823.874
829.212
859.553
863.68
818.487
807.354
793.187
846.477
884.211
889.583
875.075
804.826
754.385
749.351
746.066
746.309
747.512
749.238
751.469
754.376
758.496
762.861
784.111
866.453
861.367
858.721
831.087
742.842
737.021
742.015
742.558
741.947
741.909
742.646
744.478
746.949
750.061
753.398
763.759
880.244
878.652
879.903
878.619
757.3
761.902
760.289
758.546
757.17
756.171
755.435
755.525
756.069
757.269
758.881
762.427
880.237
878.689
879.688
884.414
765.796
762.692
761.221
759.794
758.615
757.488
756.526
756.088
756.217
756.724
757.257
758.799
864.581
858.701
856.932
869.672
751.769
732.006
733.489
734.284
734.96
735.692
736.848
738.851
740.93
742.322
743.322
746.352
842.001
820.124
804.659
796.617
733.863
757.248
765.707
750.642
765.467
719.693
712.367
706.633
706.411
708.706
713.528
717.951
720.749
722.918
725.387
732.248
821.701
786.274
774.015
749.968
737.319
761.548
761.944
729.332
716.01
731.257
714.755
705.393
705.451
705.04
703.767
702.869
703.153
705.512
710.086
720.072
807.868
773.135
772.062
745.347
740.63
759.78
760.414
732.022
708.808
712.644
710.716
708.665
706.798
702.865
696.327
693.25
694.927
700.095
703.808
710.658
808.882
774.318
776.418
743.554
740.904
757.948
758.946
733.307
704.695
703.865
708.112
706.975
702.026
692.504
688.115
691.352
696.677
698.721
698.598
701.411
812.058
779.034
785.972
744.402
740.729
756.473
757.787
734.196
704.823
704.063
705.385
700.856
687.078
682.115
686.831
695.976
698.651
697.632
694.628
697.847
819.316
788.726
794.833
745.932
740.889
755.345
756.72
735.04
707.607
703.633
700.707
690.349
681.45
683.897
691.757
700.29
699.865
697.317
694.85
698.807
828.846
803.459
803.501
747.744
741.732
754.697
755.718
736.308
713.124
702.498
694.416
686.204
685.582
691.217
698.726
699.899
697.782
696.221
696.803
701.649
839.385
817.928
810.429
749.847
743.413
754.852
755.403
738.5
718.291
702.754
692.062
689.341
693.773
699.763
700.156
696.159
693.476
696.901
701.771
705.532
851.059
830.15
813.777
752.422
745.651
755.429
755.525
740.766
721.512
703.426
693.749
694.747
697.198
699.727
698.896
694.673
694.822
699.81
702.597
705.966
866.147
843.592
816.732
755.998
748.495
756.542
756.022
742.281
723.893
706.199
699.253
697.78
696.816
697.773
697.766
698.526
701.074
702.2
702.377
706.347
881.578
857.224
821.116
759.844
751.649
758.069
756.586
743.396
726.502
710.952
703.651
698.177
694.83
695.631
698.282
704.107
705.414
703.854
703.951
708.074
912.975
891.504
847.899
777.539
761.24
761.693
758.341
746.673
733.51
721.278
711.278
701.243
698.441
699.868
703.378
708.613
710.023
710.379
711.331
715.774
1020.18
1002.98
938.597
869.771
873.889
887.085
886.448
871.239
849.084
828.062
815.78
816.181
818.623
825.118
833.735
842.94
854.441
869.867
885.363
915.62
1005.73
905.473
826.823
825.423
869.242
884.888
884.065
863.998
826.506
791.287
778.369
780.481
786.326
796.616
810.234
822.608
834.87
849.843
864.644
897.745
946.205
823.502
814.321
813.636
866.892
884.761
883.902
861.523
810.37
777.374
775.672
780.152
791.051
802.857
813.346
819.065
821.569
825.358
831.631
863.101
867.637
819.122
807.827
793.429
846.698
884.1
889.547
875.123
805.015
751.57
748.974
747.355
747.879
749.351
751.512
754.422
757.885
762.417
767.121
790.357
866.956
861.136
858.933
832.264
738.618
740.13
744.477
744.32
743.496
743.626
744.735
746.996
749.824
753.27
756.797
767.945
880.545
878.602
879.699
878.637
758.905
764.151
762.323
760.452
759.012
757.844
757.281
757.495
758.202
759.571
761.27
764.975
880.34
878.586
879.49
884.391
767.226
765.006
763.408
761.765
760.36
759.197
758.441
757.978
758.081
758.556
759.15
760.99
864.693
858.41
856.359
869.947
753.355
735.329
735.896
736.271
737.021
737.939
739.138
740.73
742.319
743.878
745.36
748.91
842.479
820.309
804.403
798.221
720.167
757.462
765.841
750.368
742.679
712.75
709.928
708.199
708.904
711.393
714.662
718.321
721.91
725.423
728.666
735.386
822.767
785.115
770.888
745.593
737.9
761.366
761.838
729.823
705.519
722.263
711.656
704.725
702.01
702.123
702.972
704.414
706.353
710.08
713.97
722.699
810.02
772.727
768.686
742.859
740.76
759.331
760.074
731.912
703.813
709.165
707.559
701.463
699.571
698.614
696.561
695.789
697.632
701.271
704.333
712.247
810.695
774.961
775.524
743.107
740.433
757.383
758.477
733.016
703.946
702.84
701.024
696.181
692.064
689.984
690.258
694.341
695.382
695.7
696.655
703.016
813.646
780.984
788.115
744.558
740.37
755.96
757.256
734.214
705.178
699.448
696.903
689.831
682.22
683.644
689.59
695.717
695.485
695.772
695.901
700.291
820.492
791.011
798.1
746.575
740.878
754.777
756.312
735.464
708.626
699.492
694.911
686.207
682.691
685.303
691.355
698.077
698.129