/*--------------------------------*- C++ -*----------------------------------*\
  =========                 |
  \\      /  F ield         | OpenFOAM: The Open Source CFD Toolbox
   \\    /   O peration     | Website:  https://openfoam.org
    \\  /    A nd           | Version:  9
     \\/     M anipulation  |
\*---------------------------------------------------------------------------*/
FoamFile
{
    format      ascii;
    class       volVectorField;
    location    "0.0095";
    object      U;
}
// * * * * * * * * * * * * * * * * * * * * * * * * * * * * * * * * * * * * * //

dimensions      [0 1 -1 0 0 0 0];

internalField   nonuniform List<vector> 
9720
(
(-405.378 -407.604 36.4012)
(-311.049 -479.231 30.0301)
(-481.119 -787.844 1.46737)
(-594.712 -1030.98 -11.561)
(-341.025 -1137.91 -6.04738)
(-95.6714 -1133.09 -11.3043)
(96.3364 -1117.13 -6.48798)
(352.412 -1137.1 -5.17795)
(625.487 -1106.38 -6.28057)
(841.221 -1001.01 2.95089)
(1006.75 -875.612 2.50292)
(1095.18 -739.973 2.0316)
(1165.75 -632.795 17.0935)
(1220.22 -542.95 12.2242)
(1245.7 -454.532 8.52768)
(1290.57 -402.602 7.10338)
(1337.62 -375.009 24.3947)
(1376.23 -344.228 33.5624)
(1393.44 -312.371 34.94)
(1371.26 -269.502 31.1235)
(-465.175 -313.585 34.7722)
(-693.249 -688.109 6.19143)
(-874.896 -984.211 -12.3002)
(-688.062 -1118.06 -25.0121)
(-384.639 -1121.47 -5.91609)
(-100.021 -1139.72 -11.154)
(104.275 -1124.9 -7.14306)
(393.273 -1149.79 -1.25251)
(756.944 -1081.46 -8.0981)
(1023.97 -887.909 -3.66424)
(1237.99 -727.736 16.226)
(1318.29 -571.554 6.94229)
(1419.25 -491.765 10.1243)
(1516.54 -456.464 6.18338)
(1573.83 -401.771 15.3403)
(1630.95 -369.12 20.9383)
(1708.39 -357.381 20.4701)
(1752.17 -318.885 19.1706)
(1777.55 -255.745 21.1834)
(1708.55 -168.576 24.406)
(-768.557 -463.556 18.6795)
(-984.04 -868.494 6.10358)
(-948.046 -941.465 -10.6893)
(-786.473 -1043.94 -37.1055)
(-413.991 -1128.15 -8.23057)
(-114.375 -1131.45 -9.5546)
(113.75 -1122.75 -9.40941)
(423.056 -1129.74 -0.150594)
(843.095 -991.612 -1.52704)
(1107.89 -699.641 -38.0516)
(1340.23 -567.49 24.2804)
(1563.01 -533.314 17.7289)
(1740.72 -512.336 5.83835)
(1863.37 -490.638 -23.6841)
(1950.14 -465.527 -27.0418)
(2010.22 -446.202 -6.11461)
(2080.43 -437.691 8.91272)
(2113.57 -405.406 6.71475)
(2144.74 -357.609 -0.089953)
(2089.98 -244.063 0.6099)
(-1024.2 -585.558 11.805)
(-1114.61 -683.424 17.242)
(-1041.89 -777.644 31.3498)
(-1013.8 -973.925 -35.4093)
(-595.086 -1119.23 -18.401)
(-203.447 -1125.34 -5.36217)
(43.3749 -1103.36 -6.97874)
(314.809 -1104.07 -5.23237)
(837.987 -1024.32 -20.8882)
(1762.91 -716.721 -24.2433)
(1988.74 -672.869 -20.7785)
(2109.21 -670.663 -10.188)
(2185.89 -677.54 -9.02328)
(2220.78 -656.102 -7.20653)
(2242.42 -629.214 -8.25986)
(2253.04 -598.062 -8.26329)
(2273.24 -567.998 -6.25308)
(2274.77 -533.361 -5.1125)
(2289.03 -498.595 -5.68943)
(2269.04 -395.966 -3.35143)
(-1139.46 -339.968 -7.76715)
(-1127 -387.244 -8.46046)
(-1131.6 -413.744 -3.1039)
(-1121.42 -572.053 1.85707)
(2007.97 -716.443 -28.4412)
(2344.06 -448.913 -1.58327)
(2361.63 -448.142 -3.44802)
(2377.89 -435.773 -5.37526)
(2395.29 -418.13 -5.33536)
(2405.97 -397.422 -8.25797)
(2416.1 -377.388 -6.6029)
(2417.84 -356.811 -2.63897)
(2422.88 -336.758 -2.30056)
(2421.64 -316.336 -6.93515)
(2424.75 -295.909 -10.8106)
(2403.79 -266.493 -9.96308)
(-1139.77 -97.4842 -7.85016)
(-1146.55 -101.384 -8.51921)
(-1138.42 -114.997 -9.59465)
(-1125.54 -203.848 -9.69615)
(2341.4 -204.443 -9.09537)
(2368.15 -110.094 -4.73646)
(2371.57 -109.023 -6.22832)
(2373.74 -107.591 -7.7043)
(2373.85 -105.245 -8.21297)
(2372.15 -103.283 -7.91508)
(2369.63 -100.939 -8.51922)
(2366.72 -97.7055 -9.87475)
(2363.06 -94.7927 -10.9489)
(2359.95 -91.2721 -9.63191)
(2354.58 -90.6455 -8.16611)
(2348.66 -82.1992 -7.40163)
(-1121.08 96.4566 -8.75929)
(-1128.41 103.404 -9.60896)
(-1124.14 113.309 -11.6481)
(-1108.46 42.6745 -10.273)
(2340.76 27.8993 -9.02184)
(2365.22 110.624 -2.04702)
(2368.94 106.798 -4.53833)
(2371.65 102.881 -6.88097)
(2373.4 99.7932 -5.98958)
(2375.64 96.8482 -4.50915)
(2376.38 94.3271 -5.22311)
(2377.29 90.9437 -7.30696)
(2380 88.2477 -8.30198)
(2381.46 88.4223 -7.60696)
(2383.24 90.0543 -6.2456)
(2382.57 93.2083 -6.08552)
(-1143.31 354.711 -6.5762)
(-1156.11 396.451 -2.92513)
(-1134.2 426.643 -2.70169)
(-1107.37 313.228 -6.81919)
(2351.71 280.864 -9.55138)
(2374.14 449.597 -4.63032)
(2388.74 435.361 -15.2818)
(2396.75 423.874 -5.12062)
(2402.43 405.885 7.80368)
(2405.73 392.401 3.35075)
(2408.48 375.495 -13.0182)
(2404.82 357.527 -20.3657)
(2404 344.441 -11.7299)
(2401.78 327.858 0.169805)
(2401.14 320.159 -3.26922)
(2397.12 303.422 -10.2457)
(-1109.47 629.415 -12.278)
(-1081.03 763.831 -14.5996)
(-988.467 852.927 -11.102)
(-1015.23 861.454 -31.8673)
(-739.469 2084.95 -51.8761)
(-204.279 2285.15 -19.387)
(31.334 2283.8 -15.8959)
(290.776 2297.41 -14.3159)
(1560.79 1759.83 5.82655)
(2156.49 1043.68 -45.9665)
(2263.07 899.432 37.6903)
(2307.89 831.215 25.6619)
(2343.19 772.447 -17.5205)
(2363.22 715.764 -44.6593)
(2380.86 678.154 -33.4995)
(2394.17 639.554 1.79827)
(2410.09 601.926 22.7495)
(2414.82 576.583 9.29165)
(2416.63 547.49 -17.5746)
(2414.61 504.599 -16.2009)
(-1000.52 844.95 -7.21538)
(-883.733 1032.45 -15.3464)
(-688.687 1114.42 -49.4367)
(-699.825 1767.14 -43.7983)
(-450.409 2295.07 -14.405)
(-108.228 2320.2 -16.8919)
(115.972 2315.47 -15.4895)
(462.297 2321.62 -13.4536)
(972.717 2154.66 -59.2582)
(1636.83 1705.05 102.991)
(1921.86 1313.42 60.2982)
(2084.21 1161.22 -73.4756)
(2184.27 1084.45 -84.3399)
(2224.68 1010.11 -32.7322)
(2278.02 946.651 29.3911)
(2317.32 890.676 48.4456)
(2347 849.261 18.7329)
(2368.37 791.592 -31.9748)
(2381.53 754.905 -31.3838)
(2392.1 694.882 -8.76028)
(-874.302 1007.85 -12.6323)
(-724.128 1238.61 -5.59554)
(-586.495 1365.01 8.70398)
(-679.267 1977.79 -26.1972)
(-447.992 2317.36 -18.6534)
(-105.543 2325.19 -17.8527)
(111.643 2322.1 -15.1092)
(443.94 2337.5 -22.4469)
(869.5 2234.84 17.6538)
(1226.81 1916.79 50.7196)
(1560 1601.46 -121.703)
(1810.3 1414.34 -142.711)
(1972.86 1332.51 -20.633)
(2053.41 1242.81 62.8642)
(2128.32 1183.37 68.6716)
(2189.16 1122.71 16.7123)
(2245.95 1051.95 -53.1861)
(2269.12 981.442 -62.1169)
(2300.48 946.995 -11.5924)
(2345.37 872.177 12.5107)
(-740.541 1098 -14.9936)
(-577.637 1328.91 -22.5863)
(-544.103 1576.2 -11.8782)
(-683.994 2087.77 -23.3826)
(-432.613 2334.44 -18.3949)
(-103.161 2328.04 -17.4021)
(107.039 2325.8 -17.5461)
(428.34 2346.02 -11.0163)
(810.529 2276.94 20.9183)
(1126.35 2077.89 -65.4029)
(1362.04 1817.46 -142.528)
(1565.07 1597.2 -9.12792)
(1794.18 1492.49 117.448)
(1882.78 1399.58 85.8578)
(1968.02 1340.66 -5.7675)
(2040.01 1271.17 -83.3611)
(2092.59 1212.57 -87.2085)
(2137.98 1152.99 -18.6706)
(2213.58 1117.92 42.3803)
(2273.12 1038.68 25.7199)
(-633.698 1169.17 1.50447)
(-495.563 1424.17 -12.692)
(-492.653 1728.63 -19.0529)
(-673.101 2149.81 -29.2714)
(-413.92 2351.71 -14.6973)
(-100.874 2329.24 -17.9344)
(103.168 2328.67 -17.6529)
(407.009 2350.12 2.98155)
(759.058 2307.74 -15.9746)
(1055.72 2169.32 -85.7565)
(1298.03 1975.6 -34.2092)
(1462.22 1812.12 121.874)
(1686.95 1711.33 128.642)
(1808.13 1577.83 -11.3169)
(1878.98 1474.08 -120.443)
(1919.99 1426.03 -107.95)
(1973.74 1385.49 -33.52)
(2065.49 1330.11 62.2233)
(2128.76 1303.04 52.3887)
(2196.02 1199.79 5.95349)
(-543.385 1220.59 -3.52567)
(-453.554 1509.8 -15.9019)
(-469.412 1837.74 -37.7182)
(-644.945 2175.91 -24.7125)
(-392.809 2362.2 -15.7183)
(-99.1807 2328.13 -18.3065)
(99.9806 2331.2 -15.2195)
(391.236 2353.02 -1.83344)
(703.827 2323.96 -48.057)
(985.299 2199.11 -43.0994)
(1217.72 2051.95 55.9381)
(1390.21 1910.96 95.7323)
(1560.04 1838.02 0.0564524)
(1675.47 1701.73 -139.656)
(1752.16 1582.07 -132.995)
(1807.2 1496.98 -31.3037)
(1883.99 1489.95 59.8624)
(1966.67 1462.11 73.5457)
(2016.9 1430.39 2.09204)
(2101.47 1320.79 -28.4768)
(-456.614 1245.54 -7.21741)
(-400.358 1565.77 -7.38158)
(-467.149 1925.48 -38.5398)
(-620.011 2203.51 -21.4123)
(-371.744 2372.19 -12.5446)
(-97.1832 2326.05 -19.7252)
(96.3757 2332.76 -14.2538)
(372.672 2355.21 -19.4004)
(664.308 2337.63 -40.006)
(921.782 2244.95 19.978)
(1160.45 2123.36 70.6352)
(1337.89 1998.78 8.03353)
(1486.04 1927.36 -107.142)
(1574.63 1797.97 -131.667)
(1648.47 1676.09 -34.2894)
(1716.36 1560.23 66.0553)
(1798.42 1549.11 73.8311)
(1863.98 1516.13 12.7379)
(1904.82 1481.03 -55.5282)
(1989.85 1411.86 -38.8243)
(-404.112 1289.64 -9.71364)
(-369.058 1623.5 -1.01839)
(-452.381 1985.96 -15.3505)
(-589.601 2215.84 -18.3082)
(-350.093 2373.55 -8.78128)
(-94.085 2323 -21.3389)
(92.5659 2334.64 -15.364)
(353.264 2351.12 -26.7833)
(622.86 2341.64 -5.67248)
(865.017 2278.55 43.2617)
(1101.2 2175.25 22.2286)
(1266.05 2058.22 -73.6543)
(1433.34 1960.09 -105.855)
(1523 1854.66 -32.7446)
(1574.65 1756.68 76.3214)
(1634.54 1652.08 88.2575)
(1712.39 1605.67 15.5754)
(1771.19 1543.34 -60.3355)
(1790.29 1536.13 -62.2591)
(1883.03 1492.26 -15.3793)
(-378.303 1338.59 5.08858)
(-360.195 1700.4 -1.94994)
(-436.827 2053.78 -0.155119)
(-558.757 2234.88 -15.5082)
(-329.721 2378.49 -10.7021)
(-91.7741 2318.61 -21.7522)
(90.1205 2338.25 -16.9895)
(339.846 2351.97 -17.6196)
(583.321 2352.38 15.1365)
(825.08 2301.53 15.247)
(1027.03 2215.48 -50.7156)
(1201.74 2094.41 -84.5395)
(1384.64 1997.66 -37.3574)
(1504.17 1925.22 67.9174)
(1567.3 1844.4 89.7767)
(1602.01 1757 30.8496)
(1646.15 1670.29 -62.5184)
(1696.86 1587.47 -67.491)
(1731.98 1584.43 -12.9994)
(1835.38 1561.47 35.3064)
(-347.709 1378.07 16.9253)
(-325.778 1743.44 1.83884)
(-399.984 2080.07 -1.14421)
(-523.257 2232.53 -14.4303)
(-308.824 2376.6 -16.8699)
(-88.5558 2314.26 -20.4356)
(90.4459 2340.52 -17.183)
(323.091 2352.53 -5.46871)
(557.772 2354.52 1.89761)
(767.319 2312.86 -34.5263)
(956.924 2230.04 -63.3673)
(1140.37 2128.63 -25.0424)
(1316.98 2077.94 58.1397)
(1465.09 1998.14 85.4711)
(1527.73 1902.22 37.728)
(1551.68 1808.73 -42.7577)
(1590.28 1717.16 -66.2604)
(1647.06 1646.14 -21.5986)
(1721.76 1658.83 55.4459)
(1798.19 1636.29 68.3384)
(-314.876 1395.19 20.6969)
(-266.605 1769.09 7.66117)
(-351.719 2110.74 -6.84462)
(-485.978 2244.78 -14.9196)
(-289.518 2377.38 -20.5534)
(-88.122 2307.76 -19.6959)
(91.654 2341.22 -15.8588)
(315.146 2355.04 -8.85607)
(529.664 2356.42 -23.6711)
(729.304 2321 -35.565)
(920.86 2254.63 -18.0235)
(1092 2186.54 33.011)
(1280.52 2126.25 54.0258)
(1428.36 2031.65 20.1038)
(1484.73 1930.79 -32.7332)
(1536.97 1818.93 -48.0849)
(1591.65 1739.64 -10.5252)
(1655.75 1721.31 57.5938)
(1726.2 1737.93 86.1327)
(1779.87 1698.43 51.6747)
(-270.822 1370.92 20.4113)
(-176.604 1699.78 13.91)
(-239.733 2057.56 -5.11061)
(-381.497 2224.1 -11.5948)
(-259.484 2354.87 -18.8156)
(-78.973 2300.86 -18.8818)
(93.8808 2339.47 -14.7243)
(297.646 2352.74 -15.6138)
(488.739 2357.6 -22.1578)
(672.03 2332.48 -15.3878)
(846.816 2292.98 3.49248)
(1011.14 2233.24 17.9136)
(1178.32 2174.79 8.323)
(1308.53 2096.63 -17.8238)
(1403.13 2000.81 -25.1799)
(1480.36 1893.04 -4.37942)
(1549.22 1827.83 39.8134)
(1624.63 1787.29 70.8242)
(1681.29 1766.44 52.9772)
(1738.76 1734.91 27.7788)
(-405.395 -409.04 44.2183)
(-312.686 -491.139 60.6666)
(-505.072 -824.626 34.1547)
(-601.611 -1059.71 2.55913)
(-340.989 -1156.57 -10.844)
(-93.9495 -1154.21 -10.5065)
(98.5665 -1134.86 -5.69001)
(355.797 -1156.74 -5.3564)
(630.786 -1123.82 -4.13638)
(848.538 -1016.09 8.0266)
(1015.06 -887.183 15.7004)
(1101.92 -747.814 14.938)
(1174.17 -640.085 33.7416)
(1229.71 -548.807 31.775)
(1252.12 -458.513 27.656)
(1295.51 -403.69 22.9125)
(1342.36 -375.523 41.8607)
(1382.11 -344.228 50.3554)
(1399.88 -310.513 56.2344)
(1376.36 -267.343 48.2184)
(-471.298 -317.719 62.6939)
(-726.971 -729.064 66.2411)
(-879.851 -1012.22 -2.35046)
(-686.436 -1147.47 -11.1727)
(-375.803 -1143.04 -10.6012)
(-99.1465 -1163.65 -10.3644)
(106.75 -1145.98 -6.82572)
(396.246 -1172.03 -2.38248)
(763.855 -1102.3 0.694131)
(1032.25 -902.496 0.764026)
(1252.77 -740.126 30.4895)
(1334.85 -581.252 29.2847)
(1438.58 -495.967 41.9655)
(1540.53 -462.016 40.3184)
(1594.33 -405.158 45.0881)
(1648.03 -369.88 42.3381)
(1723.03 -358.538 42.853)
(1770.1 -320.308 44.4897)
(1796.6 -255.276 51.3812)
(1725.15 -164.593 53.6037)
(-796.101 -486.542 52.1434)
(-1000.78 -885.801 16.0312)
(-948.092 -963.265 -5.86804)
(-785.363 -1092.75 3.13293)
(-401.905 -1160.69 -6.54933)
(-112.849 -1158.23 -9.56262)
(114.562 -1149.51 -8.5849)
(425.015 -1157.86 -1.49566)
(853.278 -1019.11 18.6176)
(1123.29 -714.872 -20.8512)
(1356.57 -570.308 42.4416)
(1588.64 -547.226 41.1452)
(1777.34 -535.489 41.4461)
(1902.1 -510.24 17.6558)
(1982.98 -474.646 10.921)
(2040.02 -447.858 19.037)
(2105.19 -440.638 28.6039)
(2141.82 -410.958 29.9561)
(2175.07 -363.945 30.175)
(2121.39 -251.643 37.0933)
(-1044.87 -598.234 25.8601)
(-1132.44 -694.039 18.8838)
(-1060.47 -801.942 39.8028)
(-1001.91 -1033.48 -27.0693)
(-558.4 -1150.07 -15.7168)
(-202.489 -1155.25 -4.73438)
(43.5891 -1134.94 -6.50529)
(314.099 -1132.86 -2.24654)
(831.799 -1058.55 5.26862)
(1809.69 -731.712 16.3876)
(2030.99 -677.957 21.7413)
(2149.71 -670.446 17.1009)
(2225.76 -680.015 11.5385)
(2261.82 -661.647 14.6232)
(2279.43 -635.223 17.6037)
(2286.7 -604.634 19.2645)
(2305.05 -575.153 21.9021)
(2306.72 -541.221 23.2368)
(2321.18 -508.597 22.8324)
(2301.16 -410.181 29.9743)
(-1155.93 -346.444 -5.4494)
(-1145.16 -392.248 -6.76934)
(-1162.72 -420.423 -0.343697)
(-1152.29 -592.794 7.23664)
(2049.98 -717.238 8.80865)
(2392.31 -451.947 14.1472)
(2406.18 -449.489 12.3754)
(2419.13 -437.397 10.4834)
(2433.58 -419.864 11.9723)
(2442.82 -399.417 10.1351)
(2451.83 -379.638 10.8865)
(2453.43 -359.809 14.9281)
(2457.37 -340.02 17.4095)
(2455.57 -320.307 14.2126)
(2458.88 -299.053 11.6988)
(2438.01 -271.091 15.8211)
(-1156.53 -97.5596 -5.12354)
(-1166.57 -102.41 -6.34503)
(-1162.18 -114.303 -6.81879)
(-1163.25 -202.848 -5.55115)
(2391.56 -204.279 4.64647)
(2416.39 -110.435 6.46915)
(2415.93 -108.06 7.05902)
(2414.58 -107.134 7.81184)
(2412.85 -105.192 8.17279)
(2409.9 -102.841 8.61625)
(2405.8 -100.239 8.48552)
(2401.73 -97.0576 7.84398)
(2397.09 -94.5579 7.15924)
(2393.69 -90.8158 9.20586)
(2388.04 -90.7401 12.0566)
(2380.35 -83.1002 14.2817)
(-1138.05 96.6003 -5.6732)
(-1148.56 103.213 -7.02201)
(-1148.81 113.114 -7.76432)
(-1137.6 42.2285 -6.28061)
(2390.14 28.3456 4.8006)
(2413.84 111.978 10.3384)
(2414.1 107.343 10.0294)
(2413.66 103.255 8.77905)
(2413.26 100.584 9.83889)
(2413.55 98.0777 12.4547)
(2412.87 95.1675 13.4193)
(2413.15 91.6594 12.035)
(2415.09 88.7405 11.3004)
(2415.85 88.7983 11.3375)
(2416.81 90.1724 13.2386)
(2415.03 93.9668 15.3995)
(-1160.96 355.347 -4.16341)
(-1175.55 396.119 -2.7088)
(-1158.65 425.16 -2.46665)
(-1136.09 310.811 -3.0785)
(2398.24 281.039 5.3882)
(2425.2 453.3 13.4964)
(2434.15 435.07 -0.0616809)
(2437.63 423.995 7.46814)
(2441.83 408.129 23.2999)
(2446.05 393.851 24.7168)
(2448 378.607 11.3564)
(2442.33 358.632 -1.15968)
(2439.48 345.475 3.48155)
(2437.46 331.097 17.7334)
(2437.27 321.592 19.4353)
(2432.04 305.649 14.27)
(-1126.12 631.446 -9.63076)
(-1101.15 766.506 -6.94058)
(-1014.47 858.035 6.05841)
(-1046.66 849.699 -0.315801)
(-638.358 2126.73 -24.4502)
(-204.31 2360.72 -16.101)
(32.421 2356.54 -12.5031)
(294.47 2370.92 -12.2628)
(1548.04 1836.54 18.2279)
(2192.25 1053.56 -49.9593)
(2299.52 896.975 45.2488)
(2353.82 831.903 50.5063)
(2386.45 778.751 16.4843)
(2400.57 718.341 -19.3465)
(2413.57 673.06 -21.4329)
(2423.82 639.369 7.69244)
(2443.37 604.997 38.6575)
(2451.65 579.573 37.5693)
(2450.83 554.302 13.1823)
(2446.31 507.182 8.6714)
(-1016.67 849.898 -3.77549)
(-900 1036.92 -17.1859)
(-705.799 1126.09 -36.5871)
(-714.409 1817.45 -15.0836)
(-454.717 2370.67 -8.92664)
(-107.532 2395.37 -12.454)
(117.887 2390.91 -10.1696)
(467.665 2402.13 -8.22201)
(987.277 2232.48 -50.4139)
(1647.88 1734.11 87.4858)
(1988.89 1355.72 123.739)
(2132.29 1181.21 -16.8271)
(2221.53 1081.16 -64.9396)
(2255.74 1005.76 -32.0076)
(2305.83 948.156 29.4154)
(2353.98 896.239 68.7666)
(2387.46 857.183 56.5567)
(2399.61 802.248 9.38663)
(2408.86 754.113 -8.9712)
(2421.63 695.841 11.9573)
(-889.177 1016.71 1.47385)
(-738.681 1250.6 3.3034)
(-586.858 1373 23.1673)
(-676.157 2028.19 3.56548)
(-450.461 2383.58 -12.9545)
(-104.812 2392.73 -13.2271)
(112.332 2389.67 -10.4596)
(444.921 2405.36 -20.4982)
(871.552 2296.23 18.3579)
(1265.05 1998.88 105.351)
(1630.04 1679.66 -45.3621)
(1843.52 1434.71 -136.904)
(1990.78 1341.2 -44.1319)
(2085.75 1255.85 63.5373)
(2174.19 1198.88 97.9842)
(2233.5 1140.35 68.2191)
(2280.56 1067.12 -3.43593)
(2299.82 978.181 -37.2331)
(2327.25 947.255 -3.04024)
(2375.74 878.314 33.6207)
(-751.441 1104.24 1.04439)
(-590.463 1344.33 -0.764638)
(-557.649 1598.62 7.82367)
(-676.977 2137.64 -5.44815)
(-436.121 2394.99 -15.2836)
(-103.161 2389.82 -13.9259)
(107.936 2388.71 -13.8922)
(429.786 2406.86 -12.4338)
(814.168 2339.86 33.8638)
(1144.54 2142.6 -20.3055)
(1383.36 1866.94 -137.006)
(1574.13 1613.5 -43.2773)
(1808.72 1515.66 111.307)
(1931.89 1429.37 135.566)
(2015.39 1369.57 68.1023)
(2073.4 1286.32 -22.9908)
(2123.64 1210.77 -60.8725)
(2162.19 1151.57 -17.6417)
(2239.16 1125.35 54.3923)
(2304.61 1046.73 57.5327)
(-644.172 1177.12 21.2209)
(-499.701 1440.65 20.9862)
(-523.005 1770.03 17.035)
(-676.205 2204.71 -16.8973)
(-417.44 2407.7 -11.9065)
(-101.08 2386.91 -15.3747)
(104.263 2386.93 -14.9041)
(410.447 2408.03 3.4317)
(767.724 2369.35 6.63074)
(1058.21 2222.49 -69.8361)
(1305.38 2001.78 -57.1358)
(1477.7 1829.99 109.182)
(1710.92 1737.92 170.918)
(1848.67 1616.55 75.6862)
(1907.59 1494.29 -55.2179)
(1944.49 1426.09 -79.151)
(1995.23 1386.9 -33.3024)
(2084.55 1339.81 67.3252)
(2163.3 1314.06 87.9797)
(2223.43 1212.51 50.7983)
(-552.483 1230.68 20.3859)
(-463.947 1534.69 19.689)
(-498.006 1884.99 6.24826)
(-654.028 2233.19 -11.7644)
(-396.491 2415.57 -13.0144)
(-99.0426 2382.99 -16.5219)
(101.551 2385.44 -12.801)
(394.106 2410.98 4.04868)
(711.805 2379.76 -32.4247)
(986.968 2245.1 -46.224)
(1230.32 2087.1 47.7287)
(1411.42 1953.17 131.789)
(1592.78 1871.59 80.4351)
(1696.65 1724.02 -65.8955)
(1769.84 1592.5 -102.081)
(1827.03 1511.46 -20.6565)
(1906.69 1507.63 79.2414)
(1998.96 1483.25 120.956)
(2043.35 1453.21 69.2075)
(2124.02 1333.04 23.9065)
(-463.291 1252.07 17.7952)
(-412.769 1591.06 24.3258)
(-481.405 1967.6 -0.663582)
(-629.378 2254.69 -3.23897)
(-375.753 2422.96 -11.5607)
(-96.7818 2378.11 -17.5663)
(97.8859 2383.99 -10.9949)
(377.147 2412.01 -10.6933)
(664.727 2386.7 -38.8013)
(929.316 2284.21 12.2753)
(1175.31 2170.48 89.0111)
(1359.3 2037.8 67.8749)
(1496.37 1946.83 -50.0708)
(1580.4 1809.97 -101.944)
(1667.14 1693.35 -27.5938)
(1744.8 1585.8 100.91)
(1830.06 1574.79 137.352)
(1895.18 1538.03 100.204)
(1927.29 1492.6 16.1847)
(2013.03 1415.69 11.8309)
(-406.065 1293.38 11.164)
(-379.026 1645.06 24.0145)
(-457.103 2022.88 9.12321)
(-599.81 2263.16 2.07849)
(-355.19 2423.45 -7.61362)
(-93.689 2372.79 -17.813)
(93.9201 2384.98 -11.4213)
(356.174 2404.59 -23.1875)
(628.63 2388.09 -10.5779)
(875.693 2326.43 54.7702)
(1118.86 2225.23 63.2467)
(1281.02 2090.3 -22.328)
(1430.99 1978.79 -81.5598)
(1529.36 1866.32 -28.0031)
(1598.1 1779.02 103.279)
(1663.64 1678.24 158.67)
(1738.39 1628.08 110.623)
(1793.85 1550.68 23.5076)
(1813.21 1531.02 -8.55432)
(1900.33 1493.71 27.5847)
(-378.858 1341.52 26.3795)
(-369.014 1719.46 25.0483)
(-444.017 2086.19 19.7002)
(-569.093 2279.33 7.03984)
(-335.191 2426.72 -5.45754)
(-91.7309 2366.75 -17.1613)
(90.7034 2386.56 -10.9369)
(343.181 2401.33 -17.38)
(591.787 2401.73 21.4102)
(836.813 2355.6 44.0012)
(1046.94 2261.71 -8.22241)
(1204.25 2128.17 -63.7485)
(1387.9 2017.18 -39.4953)
(1517.41 1941.23 79.4642)
(1589.82 1867.81 148.372)
(1623.58 1779.73 121.609)
(1658.36 1685.83 22.0085)
(1707.3 1590.3 -15.8785)
(1737.48 1585 18.8067)
(1845.98 1564.64 74.1531)
(-348.286 1382.31 35.8642)
(-332.958 1765.05 31.1145)
(-409.941 2117.21 22.6556)
(-534.654 2276.94 9.28284)
(-315.531 2423.86 -9.13587)
(-87.9394 2361.98 -13.7218)
(90.7014 2386.74 -10.5948)
(328.539 2400.19 -1.13338)
(565.398 2407.95 20.8973)
(783.581 2361.94 -2.24773)
(960.475 2272.73 -45.3021)
(1143.49 2157.52 -26.9501)
(1328.74 2095.23 58.8929)
(1479.77 2025.28 126.776)
(1547.82 1926.23 118.518)
(1560.35 1831.09 41.0607)
(1591.96 1731.84 -10.6866)
(1652.12 1651.36 10.0048)
(1723.41 1659.52 81.3344)
(1808.59 1638.16 108.742)
(-314.027 1401.72 44.4443)
(-269.799 1792.31 40.2186)
(-362.37 2149.8 24.4713)
(-500.997 2288.81 9.66516)
(-294.683 2425.2 -10.3989)
(-88.3614 2355.03 -10.4276)
(91.4984 2386.73 -8.22777)
(318.15 2402.79 1.363)
(540.461 2406.8 -2.96468)
(735.209 2365.19 -21.1769)
(927.451 2294.44 -13.7544)
(1104.1 2219.39 42.3395)
(1291.32 2161.38 84.4966)
(1448.55 2057.36 81.2435)
(1500.96 1949.17 36.1314)
(1536.13 1841 8.6311)
(1593.27 1748.38 25.0048)
(1659.99 1722.47 89.4808)
(1730.27 1742.15 126.792)
(1785.24 1702.02 96.3016)
(-270.011 1377.06 41.0473)
(-174.882 1720.19 44.4388)
(-251.744 2097.07 32.3317)
(-402.648 2267.57 19.0738)
(-266.63 2402.69 -3.09896)
(-80.5495 2345.7 -7.20631)
(94.1788 2382.89 -4.54494)
(301.064 2398.48 -2.98065)
(494.591 2403.04 -7.4131)
(677.974 2375.95 -2.88505)
(857.76 2334.83 18.2503)
(1023.08 2271.95 43.4627)
(1192.81 2206.87 46.3224)
(1323.16 2120.31 29.0619)
(1411.18 2022.64 22.343)
(1487.02 1912.72 41.0611)
(1556.51 1842.55 85.4234)
(1629.63 1800.85 119.182)
(1683.56 1776.45 101.316)
(1741.12 1740.79 75.3405)
(-412.472 -415.339 35.8682)
(-327.347 -526.18 69.1243)
(-549.571 -878.859 39.4697)
(-608.896 -1092.75 11.5926)
(-342.118 -1179.27 -5.65214)
(-92.7177 -1180.12 -3.50585)
(101.324 -1158.38 -4.65939)
(360.326 -1182.11 -1.84061)
(638.751 -1148.09 -0.795532)
(856.794 -1036.3 8.15317)
(1028.37 -906.318 18.717)
(1114.13 -762.867 13.6827)
(1187.14 -653.279 34.2663)
(1249.57 -563.45 34.6981)
(1271.87 -472.608 30.5671)
(1311.15 -409.714 24.3274)
(1356.01 -378.841 43.6937)
(1398 -349.19 50.6536)
(1422.19 -313.014 57.29)
(1399.8 -268.629 48.2007)
(-505.112 -325.881 69.1186)
(-801.406 -790.919 68.406)
(-892.874 -1036.06 1.94913)
(-689.644 -1164.17 11.179)
(-375.992 -1169.02 -3.5445)
(-98.9067 -1189.99 -4.3644)
(107.434 -1169.48 -6.17229)
(401.012 -1197.07 0.0531746)
(775.201 -1126.47 8.6891)
(1046.22 -920.516 -4.59745)
(1274.28 -752.344 29.1159)
(1361.92 -594.005 27.173)
(1465.08 -496.514 48.4716)
(1583.49 -474.475 47.5397)
(1643.4 -420.899 49.4406)
(1690.97 -374.813 40.5845)
(1757.68 -362.54 43.1601)
(1812.25 -329.272 44.9862)
(1846.59 -262.364 51.6744)
(1778.32 -166.092 52.8353)
(-855.782 -522.198 46.5261)
(-1032.98 -892.737 0.375773)
(-958.12 -966.919 0.86241)
(-790.696 -1110.33 39.2075)
(-401.551 -1190.07 0.0866214)
(-111.77 -1184.03 -7.1884)
(114.739 -1172.15 -7.99191)
(430.527 -1182.43 -2.69072)
(866.838 -1038.88 25.4255)
(1153.91 -736.681 -21.3939)
(1380.81 -564.971 34.3439)
(1618.67 -538.838 37.0785)
(1820.98 -556.954 54.5669)
(1969.89 -548.713 38.049)
(2052.48 -500.712 30.1385)
(2103.4 -447.852 27.6297)
(2160.07 -434.368 29.7058)
(2203.17 -413.413 26.3547)
(2243.94 -371.65 26.0217)
(2200.54 -267.318 33.6986)
(-1076.88 -611.558 17.3284)
(-1156.39 -698.834 3.03309)
(-1090.31 -814.536 17.5908)
(-1016.14 -1060.96 -28.7232)
(-553.908 -1171.7 2.45771)
(-198.275 -1180.18 -6.98808)
(44.4877 -1159.62 -8.05739)
(316.439 -1160.03 -3.00327)
(846.218 -1086.62 7.29376)
(1871.13 -757.222 27.7218)
(2092.25 -699.599 38.3025)
(2214.92 -657.817 25.9537)
(2292.54 -668.373 16.0213)
(2343.68 -664.127 19.4272)
(2361.69 -642.438 25.023)
(2360.87 -613.574 27.1529)
(2375.28 -585.621 27.2172)
(2377.54 -552.674 25.8137)
(2395.02 -522.769 21.5334)
(2379.66 -432.322 27.3045)
(-1178.38 -351.767 -4.95171)
(-1167.9 -393.383 -6.20151)
(-1189 -420.55 -3.09586)
(-1172.46 -598.063 4.82303)
(2082.7 -715.434 17.5706)
(2458.42 -454.826 15.3198)
(2475.88 -453.234 14.5867)
(2489.96 -442.316 12.9936)
(2505.27 -425.407 13.4822)
(2515.96 -404.555 9.81965)
(2526.35 -384.368 7.82256)
(2529.71 -365.372 12.633)
(2533.76 -346.071 16.5626)
(2531.17 -327.118 14.8048)
(2535.86 -305.695 10.245)
(2517.71 -278.901 13.0224)
(-1177.86 -97.4933 -1.37155)
(-1185.92 -102.542 -2.79008)
(-1178.62 -114.342 -5.74051)
(-1185.41 -201.053 -4.90358)
(2431.17 -205.384 10.8954)
(2482.24 -110.821 9.54676)
(2486.01 -109.083 9.36791)
(2487.99 -107.702 8.22823)
(2487.43 -106.325 7.89607)
(2485.69 -103.91 8.68308)
(2482.06 -100.972 9.30336)
(2478.1 -97.4963 9.51893)
(2473.47 -95.4849 8.08782)
(2469.73 -91.7174 8.59395)
(2464.48 -91.6662 10.2902)
(2456.01 -85.5264 12.2008)
(-1159.51 95.5387 1.01297)
(-1170.02 103.452 0.76792)
(-1170.64 113.859 -1.96701)
(-1159.67 44.4557 -0.784999)
(2433.69 29.0837 11.4242)
(2480.63 112.228 13.3565)
(2484.45 108.001 14.2702)
(2487.08 104.352 11.7985)
(2488.78 100.766 10.5159)
(2489.78 98.7717 12.1779)
(2489.75 96.1781 14.3821)
(2490.08 92.9529 14.4532)
(2491.82 89.4327 12.562)
(2493.09 88.81 10.7255)
(2493.54 89.517 10.8982)
(2492.16 92.9205 12.3707)
(-1182.44 355.828 3.04999)
(-1195.04 395.774 4.63576)
(-1177.84 424.509 1.30446)
(-1158.35 315.153 -0.123754)
(2443.63 284.235 14.1534)
(2490.8 457.364 24.0451)
(2505.72 440.518 5.08673)
(2509.75 425.166 4.95827)
(2513.9 411.78 19.3693)
(2522.68 395.85 29.3924)
(2527.86 382.72 21.9733)
(2524.29 364.607 5.88178)
(2517.32 348.207 2.5248)
(2514.75 335.616 13.914)
(2518.25 324.086 20.0314)
(2513.85 308.857 16.0536)
(-1150.64 634.863 -2.87965)
(-1128.13 766.895 4.89517)
(-1042.56 852.147 15.8664)
(-1083.14 835.014 -4.49321)
(-721.67 2074.08 -5.03745)
(-202.641 2420.6 -12.8232)
(32.5178 2420.63 -7.7044)
(291.604 2434.7 -7.43905)
(1765.83 1675.66 4.47451)
(2287.51 1053.22 -54.822)
(2360.27 889.092 21.6811)
(2424.08 823.396 59.1256)
(2463.15 781.538 43.6303)
(2480.21 730.475 5.55405)
(2488.21 676.107 -17.4734)
(2491.65 640.884 -2.2374)
(2509.76 611.259 30.4495)
(2529.9 581.974 43.1429)
(2531.93 564.135 25.4341)
(2524.92 517.148 12.2176)
(-1038.43 852.183 -0.804327)
(-923.906 1035.25 -12.7884)
(-744.213 1130.99 -29.0357)
(-762.989 1828.93 -10.7567)
(-449.861 2437.36 -6.39163)
(-106.852 2462.08 -10.4783)
(116.859 2459.58 -7.16509)
(468.428 2471.98 3.30712)
(1035.42 2279.35 -64.4346)
(1669.18 1692.56 12.7055)
(2081.31 1352.67 160.053)
(2224.72 1204.38 54.3605)
(2299.06 1091.53 -36.2218)
(2327.85 1006.1 -40.3986)
(2363.99 948.631 5.70814)
(2415.73 899.763 64.2122)
(2466.42 862.627 73.701)
(2482.62 820.847 39.3992)
(2480.91 766.912 -1.8806)
(2492.63 703.956 6.54454)
(-912.213 1026.5 7.31402)
(-755.603 1258.67 9.73269)
(-585.868 1371 22.3172)
(-711.894 2065.42 15.7383)
(-449.595 2455.25 -6.90417)
(-104.282 2465.59 -11.7636)
(112.182 2462.84 -6.41362)
(447.26 2483.1 -16.6993)
(880.235 2345.57 1.4431)
(1315.31 2068.87 150.35)
(1766.99 1779.64 68.7322)
(1944.27 1482.45 -110.789)
(2045.73 1341.64 -80.2596)
(2136.19 1261.97 26.1228)
(2240.49 1207.41 103.165)
(2316.15 1156.03 104.805)
(2366.59 1097.84 42.7745)
(2378.51 998.748 -22.1805)
(2393.75 953.144 -14.5573)
(2441.56 890.821 22.184)
(-770.922 1112.71 0.505258)
(-608.223 1358.58 2.48883)
(-555.911 1611.27 8.96443)
(-670.963 2194.03 13.1919)
(-438.858 2469.57 -9.64676)
(-102.861 2466.84 -10.9334)
(108.091 2466.22 -8.41084)
(430.26 2484.61 -16.085)
(817.851 2406.19 40.5505)
(1189.31 2216.02 41.2113)
(1467.44 1944.16 -118.749)
(1629.25 1641.9 -108.773)
(1828.75 1515.71 51.6256)
(1995.55 1450.24 158.176)
(2100.11 1407.71 129.788)
(2161.26 1332.06 42.5395)
(2205.44 1238.1 -40.9352)
(2230.84 1159.42 -33.813)
(2290.91 1137.86 33.9378)
(2371.67 1061.58 59.2746)
(-662.287 1186.56 19.3379)
(-506.992 1458.49 33.3328)
(-563.686 1808.4 26.8129)
(-676.427 2271.83 -6.48814)
(-421.825 2484.01 -7.64011)
(-101.835 2465.9 -9.92264)
(104.318 2467.05 -9.11424)
(415.106 2486.89 -0.258423)
(778.164 2446.61 26.9)
(1083.29 2291.75 -51.7798)
(1320.06 2038.44 -94.2863)
(1486.89 1832.16 48.3492)
(1723.03 1742.15 186.521)
(1906.52 1645.14 154.384)
(1981.19 1535.7 21.7423)
(2009.01 1443.22 -60.5605)
(2049.86 1393.25 -50.0831)
(2121.12 1344.44 35.5917)
(2223.29 1325.73 100.15)
(2290.71 1233.22 70.9888)
(-572.702 1248.15 19.4064)
(-483.428 1571.37 28.7542)
(-557.893 1953.67 24.4458)
(-668.901 2320.49 -6.30572)
(-400.632 2494.22 -8.10194)
(-99.3404 2463.8 -8.89958)
(102.011 2466.63 -7.16647)
(397.471 2494.97 10.4034)
(729.049 2464.48 -12.1672)
(996.563 2315.14 -60.0533)
(1243.86 2126.1 6.15926)
(1431.12 1990.44 144.226)
(1628.11 1904.86 151.962)
(1760.47 1764.77 16.0053)
(1824.09 1612.2 -88.8718)
(1872.26 1524.74 -44.8408)
(1943.96 1513.72 54.1333)
(2055.72 1499.62 138.977)
(2109.52 1484.28 114.404)
(2187.49 1362.9 46.8178)
(-482.872 1270.46 18.9781)
(-438.078 1640.69 24.1181)
(-522.113 2041.59 14.2175)
(-647.265 2341.9 2.6366)
(-380.166 2503.94 -7.80767)
(-96.5728 2460.27 -9.51737)
(99.0471 2466.61 -4.89955)
(383.222 2500.32 2.23141)
(673.351 2467.53 -37.4006)
(937.258 2344.39 -15.1019)
(1191.43 2227.16 83.6454)
(1396.19 2093.87 116.282)
(1537.93 1982.28 16.4395)
(1609.25 1831.4 -89.5872)
(1697.37 1708.9 -61.1815)
(1786.79 1607.57 73.0278)
(1885.05 1603.24 168.328)
(1964.02 1580.71 157.377)
(1993.53 1536.88 61.4895)
(2079.64 1438.65 21.3098)
(-415.882 1307.52 13.1184)
(-396.328 1692.26 17.6695)
(-470.061 2091.64 9.06321)
(-618.259 2342.11 8.62403)
(-360.684 2507.27 -2.86213)
(-94.0427 2455.81 -11.0726)
(96.3482 2468.47 -5.24761)
(364.362 2495.91 -14.62)
(635.089 2465.03 -22.3535)
(887.758 2393.14 43.9723)
(1142.34 2304.09 85.8948)
(1327.23 2160.39 27.2671)
(1450.31 2015.3 -70.7263)
(1532.65 1882.51 -49.652)
(1612.84 1803.82 72.2021)
(1716.01 1719.74 193.261)
(1804.67 1678.53 178.985)
(1870.26 1601.66 92.0041)
(1887.02 1546.26 7.45489)
(1961.94 1508.05 28.3607)
(-385.054 1353.61 30.4699)
(-386.074 1759.99 21.2683)
(-451.344 2148.29 10.384)
(-588.671 2355.7 11.1196)
(-341.582 2511.69 -0.984127)
(-92.4894 2450.35 -12.8433)
(91.9524 2470.06 -7.3003)
(347.733 2486.84 -17.6339)
(602.985 2479.27 10.9614)
(850.184 2443.75 53.2139)
(1083.64 2352.99 23.5829)
(1233.45 2200.43 -56.2987)
(1393.76 2051.17 -60.0113)
(1517.44 1953.89 50.8415)
(1617.73 1904.12 172.315)
(1686.48 1825.46 183.882)
(1728.96 1742.95 90.9758)
(1762.43 1619.48 2.90995)
(1781.77 1589.9 13.9462)
(1884.6 1574.08 72.8391)
(-357.491 1397.17 37.9339)
(-354.431 1814.45 29.5169)
(-424.691 2187.63 13.8877)