/*--------------------------------*- C++ -*----------------------------------*\
  =========                 |
  \\      /  F ield         | OpenFOAM: The Open Source CFD Toolbox
   \\    /   O peration     | Website:  https://openfoam.org
    \\  /    A nd           | Version:  9
     \\/     M anipulation  |
\*---------------------------------------------------------------------------*/
FoamFile
{
    format      ascii;
    class       volVectorField;
    location    "0.007";
    object      rhoU;
}
// * * * * * * * * * * * * * * * * * * * * * * * * * * * * * * * * * * * * * //

dimensions      [1 -2 -1 0 0 0 0];

internalField   nonuniform List<vector> 
62500
(
(0 0 0)
(-6.02701e-18 0 0)
(-5.15255e-19 0 0)
(3.85339e-43 0 0)
(3.97532e-65 0 0)
(4.41545e-67 0 0)
(-1.06065e-82 0 0)
(0 0 0)
(0 0 0)
(0 0 0)
(0 0 0)
(0 0 0)
(0 0 0)
(0 0 0)
(0 0 0)
(0 0 0)
(0 0 0)
(0 0 0)
(0 0 0)
(0 0 0)
(0 0 0)
(0 0 0)
(0 0 0)
(0 0 0)
(0 0 0)
(0 0 0)
(0 0 0)
(0 0 0)
(0 0 0)
(0 0 0)
(0 0 0)
(0 0 0)
(0 0 0)
(0 0 0)
(0 0 0)
(0 0 0)
(0 0 0)
(0 0 0)
(0 0 0)
(0 0 0)
(0 0 0)
(0 0 0)
(0 0 0)
(0 0 0)
(0 0 0)
(0 0 0)
(0 0 0)
(0 0 0)
(0 0 0)
(0 0 0)
(0 0 0)
(-6.34454e-18 0 0)
(-4.72177e-19 0 0)
(-2.02814e-51 2.44307e-49 0)
(-1.72847e-66 5.11618e-49 0)
(6.88853e-66 1.4208e-32 0)
(-8.39004e-82 -1.78269e-16 0)
(0 0 0)
(0 1.05475e-32 0)
(0 -1.85974e-16 0)
(0 0 0)
(0 0 8.50573e-15)
(0 0 0)
(0 0 8.50573e-15)
(0 -3.84444e-20 0)
(0 0 0)
(0 0 8.50573e-15)
(0 0 0)
(0 0 1.02666e-14)
(0 -7.10508e-19 0)
(0 0 -2.21804e-14)
(0 -3.06514e-31 2.06467e-14)
(0 4.49218e-32 0)
(0 1.59709e-31 0)
(0 3.55586e-30 2.27486e-14)
(0 0 -2.04195e-14)
(0 0 0)
(0 -7.05156e-35 0)
(0 3.08116e-45 0)
(0 3.34954e-30 2.27486e-14)
(0 0 -2.04195e-14)
(0 0 0)
(0 1.89012e-32 0)
(0 -3.81447e-46 0)
(0 3.55848e-30 2.27486e-14)
(0 0 -2.04195e-14)
(0 0 0)
(0 2.65869e-32 0)
(0 -1.55057e-39 0)
(0 -2.70547e-14 2.66113e-14)
(0 -1.42562e-36 0)
(0 3.86405e-49 0)
(0 -2.16166e-36 0)
(0 -7.30055e-25 0)
(0 -2.85173e-36 0)
(0 -2.72078e-36 0)
(0 -1.48511e-45 0)
(0 -2.16176e-36 0)
(0 -7.30055e-25 0)
(0 -2.85342e-36 0)
(0 0 0)
(-4.28484e-18 0 0)
(-2.51506e-19 0 0)
(1.33999e-50 -1.96008e-57 0)
(-3.07362e-65 5.31634e-50 0)
(4.33632e-65 7.27792e-56 0)
(-1.55357e-80 -7.07965e-17 0)
(0 0 0)
(0 0 0)
(0 -7.72671e-17 0)
(0 0 0)
(0 0 0)
(0 0 0)
(0 0 0)
(0 0 0)
(0 0 0)
(0 0 0)
(0 0 0)
(0 0 0)
(0 0 0)
(0 0 0)
(0 -9.95333e-36 0)
(0 -5.38547e-36 0)
(0 -3.17651e-39 0)
(0 -8.60683e-36 0)
(0 0 0)
(0 0 0)
(0 0 0)
(0 0 0)
(0 -8.60683e-36 0)
(0 0 0)
(0 0 0)
(0 0 0)
(0 0 0)
(0 -8.60683e-36 0)
(0 0 0)
(0 0 0)
(0 0 0)
(0 0 0)
(0 -2.68872e-14 0)
(0 0 0)
(0 0 0)
(0 0 0)
(0 0 0)
(0 0 0)
(0 0 0)
(0 0 0)
(0 0 0)
(0 0 0)
(0 0 0)
(0 0 0)
(-2.08316e-18 0 0)
(-8.28909e-20 0 0)
(-5.35562e-50 3.21936e-60 0)
(-1.28872e-64 4.9521e-63 8.50573e-15)
(-5.91697e-64 -5.65249e-68 0)
(-6.30433e-80 -2.37209e-18 0)
(0 0 0)
(0 0 -1.03802e-14)
(0 -4.69287e-18 0)
(0 0 0)
(0 0 0)
(0 0 0)
(0 0 0)
(0 0 0)
(0 0 -5.6801e-17)
(0 0 0)
(0 0 0)
(0 0 0)
(0 0 0)
(0 0 -1.53367e-15)
(0 -1.65629e-34 -3.2377e-15)
(0 -1.3004e-39 0)
(0 -5.02328e-39 -8.40791e-15)
(0 9.78623e-26 -1.61343e-14)
(0 0 -1.34643e-14)
(0 0 -7.15812e-15)
(0 0 0)
(0 0 -8.40791e-15)
(0 9.76799e-26 -1.61343e-14)
(0 0 -1.34643e-14)
(0 0 -7.15812e-15)
(0 0 0)
(0 0 -8.40791e-15)
(0 9.76785e-26 -1.61343e-14)
(0 0 -1.34643e-14)
(0 0 -7.04447e-15)
(0 0 0)
(0 0 -2.38569e-15)
(0 -1.22559e-14 -2.10168e-15)
(0 0 0)
(0 0 0)
(0 0 0)
(0 0 0)
(0 0 0)
(0 0 0)
(0 0 0)
(0 0 0)
(0 0 0)
(0 0 0)
(0 0 0)
(-1.3442e-18 0 0)
(-3.71541e-20 0 0)
(-3.82193e-49 -5.99814e-70 -8.50573e-15)
(-2.59043e-66 -1.80349e-72 0)
(-9.14324e-65 -3.67165e-83 0)
(1.22906e-79 0 0)
(0 0 0)
(0 0 0)
(0 -3.39319e-21 0)
(0 0 0)
(0 0 0)
(0 0 0)
(0 0 0)
(0 0 0)
(0 0 -3.55854e-14)
(0 0 -7.95215e-16)
(0 0 0)
(0 0 0)
(0 0 0)
(0 0 -3.67215e-14)
(0 -3.61143e-35 -4.17768e-14)
(0 -4.59441e-41 -1.28372e-14)
(0 1.72494e-36 -5.13218e-14)
(0 -8.78661e-28 -6.11512e-14)
(0 0 -6.11512e-14)
(0 0 -5.08105e-14)
(0 0 -1.31213e-14)
(0 0 -5.14354e-14)
(0 -8.77189e-28 -6.11512e-14)
(0 0 -6.11512e-14)
(0 0 -5.08105e-14)
(0 0 -1.31213e-14)
(0 0 -5.14354e-14)
(0 -8.77189e-28 -6.11512e-14)
(0 0 -6.11512e-14)
(0 0 -5.05265e-14)
(0 0 -1.23828e-14)
(0 0 -4.12657e-14)
(0 -3.54315e-35 -3.93922e-14)
(0 0 -9.09283e-16)
(0 0 0)
(0 0 0)
(0 0 0)
(0 0 0)
(0 0 0)
(0 0 0)
(0 0 0)
(0 0 0)
(0 0 0)
(0 0 0)
(-1.50562e-18 0 0)
(-5.41666e-20 0 0)
(-1.01633e-48 0 0)
(-1.95904e-68 2.59884e-104 0)
(2.6636e-62 0 0)
(2.25526e-78 0 2.67812e-14)
(0 0 5.05529e-15)
(0 0 2.72356e-14)
(0 0 2.72356e-14)
(0 0 0)
(0 0 0)
(0 0 0)
(0 0 0)
(0 0 2.5134e-14)
(0 0 -3.85391e-14)
(0 0 -1.47683e-15)
(0 0 0)
(0 0 0)
(0 0 2.72356e-14)
(0 0 0)
(0 -9.52804e-42 -2.55609e-15)
(0 -2.41916e-48 0)
(0 2.1147e-45 -7.49897e-15)
(0 2.33769e-33 -1.26122e-14)
(0 0 -1.25554e-14)
(0 0 -7.38536e-15)
(0 0 0)
(0 0 -7.55577e-15)
(0 2.27976e-33 -1.26122e-14)
(0 0 -1.25554e-14)
(0 0 -7.38536e-15)
(0 0 0)
(0 0 -7.55577e-15)
(0 2.4566e-33 -1.26122e-14)
(0 0 -1.25554e-14)
(0 0 -7.27168e-15)
(0 0 0)
(0 0 -2.49937e-15)
(0 -1.3045e-41 -2.61327e-15)
(0 0 0)
(0 0 2.03059e-14)
(0 0 0)
(0 0 0)
(0 0 0)
(0 0 0)
(0 0 2.03059e-14)
(0 0 0)
(0 0 0)
(0 0 0)
(0 0 0)
(-1.24397e-18 0 0)
(-6.06714e-20 0 0)
(-3.72301e-48 0 0)
(3.26084e-69 0 0)
(4.63036e-61 0 -2.67812e-14)
(3.72062e-77 0 0)
(0 0 0)
(0 0 -2.01355e-14)
(0 0 0)
(0 0 0)
(0 0 0)
(0 0 0)
(0 0 0)
(0 0 2.64404e-14)
(0 0 -2.93941e-14)
(0 0 0)
(0 0 0)
(0 0 0)
(0 0 2.72356e-14)
(0 0 0)
(0 -7.3191e-52 0)
(0 1.99688e-49 0)
(0 0 0)
(0 0 0)
(0 0 0)
(0 0 0)
(0 0 0)
(0 0 0)
(0 0 0)
(0 0 0)
(0 0 0)
(0 0 0)
(0 0 0)
(0 0 0)
(0 0 0)
(0 0 0)
(0 0 0)
(0 0 0)
(0 -1.27954e-51 0)
(0 0 0)
(0 0 -2.57588e-14)
(0 0 0)
(0 0 0)
(0 0 0)
(0 0 0)
(0 0 -2.57588e-14)
(0 0 0)
(0 0 0)
(0 0 0)
(0 0 0)
(-3.8975e-19 0 0)
(-2.1856e-20 0 0)
(-1.0737e-47 0 0)
(-1.0215e-68 0 0)
(6.39691e-60 0 -5.05529e-15)
(1.93639e-75 0 0)
(0 0 0)
(0 0 0)
(0 0 0)
(0 0 0)
(0 0 0)
(0 0 0)
(0 0 0)
(0 0 3.91927e-15)
(0 0 -3.46486e-15)
(0 0 0)
(0 0 0)
(0 0 0)
(0 0 5.1689e-15)
(0 0 0)
(0 0 0)
(0 0 0)
(0 0 0)
(0 0 0)
(0 0 0)
(0 0 0)
(0 0 0)
(0 0 0)
(0 0 0)
(0 0 0)
(0 0 0)
(0 0 0)
(0 0 0)
(0 0 0)
(0 0 0)
(0 0 0)
(0 0 0)
(0 0 0)
(0 0 0)
(0 0 0)
(0 0 -1.56627e-14)
(0 0 0)
(0 0 0)
(0 0 0)
(0 0 0)
(0 0 -1.56627e-14)
(0 0 0)
(0 0 0)
(0 0 0)
(0 0 0)
(-4.94464e-20 0 0)
(-1.90819e-21 0 0)
(-2.67423e-49 0 1.03802e-14)
(-9.17068e-68 0 0)
(3.06187e-59 0 -2.72356e-14)
(2.04288e-75 0 2.01355e-14)
(0 0 0)
(0 0 0)
(0 0 2.55316e-14)
(0 0 0)
(0 0 0)
(0 0 0)
(0 0 0)
(0 0 2.64972e-14)
(0 0 -2.63268e-14)
(0 0 0)
(0 0 0)
(0 0 0)
(0 0 2.72356e-14)
(0 0 0)
(0 0 0)
(0 0 0)
(0 0 0)
(0 0 0)
(0 0 0)
(0 0 0)
(0 0 0)
(0 0 0)
(0 0 0)
(0 0 0)
(0 0 0)
(0 0 0)
(0 0 0)
(0 0 0)
(0 0 0)
(0 0 0)
(0 0 0)
(0 0 0)
(0 0 0)
(0 0 0)
(0 0 -2.72645e-15)
(0 0 0)
(0 0 2.60996e-14)
(0 0 0)
(0 0 0)
(0 0 -2.72645e-15)
(0 0 0)
(0 0 2.60996e-14)
(0 0 0)
(0 0 0)
(-2.31457e-19 0 0)
(-5.34576e-36 0 0)
(-6.70496e-51 0 0)
(5.79854e-67 0 0)
(8.42414e-60 0 -2.72356e-14)
(2.10049e-77 0 0)
(0 0 0)
(0 0 -2.55316e-14)
(0 0 0)
(0 0 0)
(0 0 0)
(0 0 0)
(0 0 0)
(0 0 2.5702e-14)
(0 0 -2.5702e-14)
(0 0 0)
(0 0 0)
(0 0 0)
(0 0 2.72356e-14)
(0 0 0)
(0 0 0)
(0 0 0)
(0 0 0)
(0 0 0)
(0 0 0)
(0 0 0)
(0 0 0)
(0 0 0)
(0 0 0)
(0 0 0)
(0 0 0)
(0 0 0)
(0 0 0)
(0 0 0)
(0 0 0)
(0 0 0)
(0 0 0)
(0 0 0)
(0 0 0)
(0 0 0)
(0 0 -3.23477e-14)
(0 0 0)
(0 0 0)
(0 0 0)
(0 0 0)
(0 0 -3.23477e-14)
(0 0 0)
(0 0 0)
(0 0 0)
(0 0 0)
(-1.4417e-18 0 0)
(-2.09065e-35 0 0)
(-1.30243e-50 0 0)
(2.31324e-66 0 0)
(4.74068e-69 0 0)
(-2.25378e-81 0 0)
(0 0 0)
(0 0 0)
(0 0 0)
(0 0 0)
(0 0 0)
(0 0 0)
(0 0 0)
(0 0 0)
(0 0 0)
(0 0 0)
(0 0 0)
(0 0 0)
(0 0 0)
(0 0 0)
(0 0 0)
(0 0 0)
(0 0 0)
(0 0 0)
(0 0 0)
(0 0 0)
(0 0 0)
(0 0 0)
(0 0 0)
(0 0 0)
(0 0 0)
(0 0 0)
(0 0 0)
(0 0 0)
(0 0 0)
(0 0 0)
(0 0 0)
(0 0 0)
(0 0 0)
(0 0 0)
(0 0 -1.64011e-14)
(0 0 0)
(0 0 0)
(0 0 0)
(0 0 0)
(0 0 -1.64011e-14)
(0 0 0)
(0 0 0)
(0 0 0)
(0 0 0)
(-3.00201e-18 0 -8.50573e-15)
(-7.62822e-35 0 0)
(9.55753e-51 0 0)
(2.16669e-65 0 0)
(9.32788e-72 0 0)
(-6.6715e-82 0 0)
(0 0 0)
(0 0 0)
(0 0 0)
(0 0 0)
(0 0 0)
(0 0 0)
(0 0 0)
(0 0 0)
(0 0 0)
(0 0 0)
(0 0 0)
(0 0 0)
(0 0 0)
(0 0 -2.05899e-14)
(0 0 2.72356e-14)
(0 0 2.71788e-14)
(0 0 3.63527e-15)
(0 0 2.12147e-14)
(0 0 -2.40548e-14)
(0 0 0)
(0 0 2.71788e-14)
(0 0 3.63527e-15)
(0 0 2.11579e-14)
(0 0 -2.40548e-14)
(0 0 0)
(0 0 2.71788e-14)
(0 0 3.63527e-15)
(0 0 2.11579e-14)
(0 0 -2.40548e-14)
(0 0 0)
(0 0 2.71788e-14)
(0 0 5.1689e-15)
(0 0 2.72356e-14)
(0 0 2.71788e-14)
(0 0 9.08817e-16)
(0 0 2.71788e-14)
(0 0 5.1689e-15)
(0 0 2.71788e-14)
(0 0 2.71788e-14)
(0 0 9.08817e-16)
(0 0 2.71788e-14)
(0 0 5.1689e-15)
(0 0 2.71788e-14)
(0 0 0)
(-3.03901e-18 0 0)
(-1.08811e-34 0 0)
(-5.80254e-51 0 0)
(2.22743e-65 0 0)
(6.47142e-72 0 0)
(0 0 0)
(0 0 0)
(0 0 0)
(0 0 0)
(0 0 0)
(0 0 0)
(0 0 0)
(0 0 0)
(0 0 0)
(0 0 0)
(0 0 0)
(0 0 0)
(0 0 0)
(0 0 0)
(0 0 -5.6801e-16)
(0 0 6.70252e-15)
(0 0 6.87293e-15)
(0 0 0)
(0 0 3.01046e-15)
(0 0 -2.61285e-15)
(0 0 0)
(0 0 5.5665e-15)
(0 0 0)
(0 0 2.95365e-15)
(0 0 -2.66965e-15)
(0 0 0)
(0 0 5.5665e-15)
(0 0 0)
(0 0 2.95365e-15)
(0 0 -2.66965e-15)
(0 0 0)
(0 0 5.5665e-15)
(0 0 0)
(0 0 6.75932e-15)
(0 0 4.60088e-15)
(0 0 -9.01694e-15)
(0 0 2.61285e-15)
(0 0 0)
(0 0 6.75932e-15)
(0 0 4.60088e-15)
(0 0 -8.96014e-15)
(0 0 2.61285e-15)
(0 0 0)
(0 0 6.87293e-15)
(0 0 0)
(-3.88644e-18 0 -8.50573e-15)
(-3.96771e-34 0 0)
(8.03121e-50 0 0)
(1.4971e-65 0 0)
(3.80578e-74 0 0)
(0 0 0)
(0 0 0)
(0 0 0)
(0 0 0)
(0 0 0)
(0 0 0)
(0 0 0)
(0 0 0)
(0 0 0)
(0 0 0)
(0 0 0)
(0 0 0)
(0 0 0)
(0 0 0)
(0 0 -1.85451e-14)
(0 0 2.72356e-14)
(0 0 2.71788e-14)
(0 0 9.20177e-15)
(0 0 2.72356e-14)
(0 0 -2.11011e-14)
(0 0 0)
(0 0 2.72356e-14)
(0 0 9.03137e-15)
(0 0 2.72356e-14)
(0 0 -2.11011e-14)
(0 0 0)
(0 0 2.72356e-14)
(0 0 9.03137e-15)
(0 0 2.72356e-14)
(0 0 -2.11011e-14)
(0 0 0)
(0 0 2.72356e-14)
(0 0 9.14497e-15)
(0 0 2.72356e-14)
(0 0 2.71788e-14)
(0 0 0)
(0 0 2.60996e-14)
(0 0 0)
(0 0 2.71788e-14)
(0 0 2.71788e-14)
(0 0 0)
(0 0 2.60996e-14)
(0 0 0)
(0 0 2.71788e-14)
(0 0 0)
(-1.66863e-18 0 0)
(-3.68637e-34 0 0)
(1.26543e-49 0 0)
(3.84162e-65 0 0)
(4.5583e-77 0 -2.53044e-14)
(0 0 -2.64404e-14)
(0 0 -3.86247e-15)
(0 0 -2.64972e-14)
(0 0 -2.5702e-14)
(0 0 0)
(0 0 0)
(0 0 0)
(0 0 0)
(0 0 0)
(0 0 8.50573e-15)
(0 0 0)
(0 0 0)
(0 0 0)
(0 0 0)
(0 0 6.8585e-15)
(0 0 1.79347e-14)
(0 0 6.19131e-15)
(0 0 1.62875e-14)
(0 0 2.00931e-14)
(0 0 8.61933e-15)
(0 0 8.78973e-15)
(0 0 3.57847e-15)
(0 0 1.54923e-14)
(0 0 2.00363e-14)
(0 0 8.61933e-15)
(0 0 8.78973e-15)
(0 0 3.57847e-15)
(0 0 1.54923e-14)
(0 0 2.00363e-14)
(0 0 8.61933e-15)
(0 0 8.78973e-15)
(0 0 3.57847e-15)
(0 0 1.60603e-14)
(0 0 2.19108e-14)
(0 0 0)
(0 0 -4.00583e-14)
(0 0 -1.93124e-15)
(0 0 -2.72924e-14)
(0 0 0)
(0 0 0)
(0 0 -3.62526e-14)
(0 0 -7.38414e-16)
(0 0 -2.70084e-14)
(0 0 0)
(0 0 0)
(-4.72301e-18 0 0)
(-2.45342e-33 0 0)
(2.6987e-48 0 0)
(6.82241e-65 0 2.72356e-14)
(-1.77985e-76 0 2.72356e-14)
(0 0 2.66108e-14)
(0 0 3.69207e-15)
(0 0 2.63836e-14)
(0 0 2.5702e-14)
(0 0 0)
(0 0 0)
(0 0 0)
(0 0 0)
(0 0 -8.50573e-15)
(0 0 0)
(0 0 0)
(0 0 0)
(0 0 0)
(0 0 -1.48106e-14)
(0 0 -2.13428e-14)
(0 0 -6.8585e-15)
(0 0 0)
(0 0 -8.50573e-15)
(0 0 -8.56253e-15)
(0 0 -1.92979e-14)
(0 0 -1.11754e-14)
(0 0 0)
(0 0 -8.50573e-15)
(0 0 -8.56253e-15)
(0 0 -1.92979e-14)
(0 0 -1.11754e-14)
(0 0 0)
(0 0 -8.50573e-15)
(0 0 -8.56253e-15)
(0 0 -1.92979e-14)
(0 0 -1.11754e-14)
(0 0 0)
(0 0 -8.50573e-15)
(0 0 -7.82412e-15)
(0 0 3.01046e-15)
(0 0 2.59292e-14)
(0 0 4.71449e-15)
(0 0 0)
(0 0 0)
(0 0 4.71449e-15)
(0 0 2.55884e-14)
(0 0 4.65769e-15)
(0 0 0)
(0 0 0)
(0 0 0)
(-1.07373e-17 0 -8.50573e-15)
(-5.90703e-31 0 0)
(8.23135e-47 0 0)
(-1.08766e-67 0 0)
(-4.21747e-80 0 0)
(0 0 0)
(0 0 0)
(0 0 0)
(0 0 0)
(0 0 0)
(0 0 0)
(0 0 0)
(0 0 0)
(0 0 0)
(0 0 0)
(0 0 0)
(0 0 0)
(0 0 0)
(0 0 -2.04484e-15)
(0 0 -2.72356e-14)
(0 0 2.56452e-14)
(0 0 2.71788e-14)
(0 0 8.52016e-16)
(0 0 1.84315e-14)
(0 0 -2.72356e-14)
(0 0 0)
(0 0 2.71788e-14)
(0 0 8.52016e-16)
(0 0 1.84315e-14)
(0 0 -2.72356e-14)
(0 0 0)
(0 0 2.71788e-14)
(0 0 8.52016e-16)
(0 0 1.84315e-14)
(0 0 -2.72356e-14)
(0 0 0)
(0 0 2.71788e-14)
(0 0 3.01046e-15)
(0 0 2.72356e-14)
(0 0 2.71788e-14)
(0 0 9.14497e-15)
(0 0 2.71788e-14)
(0 0 6.47532e-15)
(0 0 2.71788e-14)
(0 0 2.71788e-14)
(0 0 9.03137e-15)
(0 0 2.71788e-14)
(0 0 6.47532e-15)
(0 0 2.71788e-14)
(0 0 0)
(-2.66049e-17 0 0)
(-6.36433e-27 0 0)
(2.16261e-46 0 0)
(0 0 0)
(0 0 0)
(0 0 0)
(0 0 0)
(0 0 0)
(0 0 0)
(0 0 0)
(0 0 0)
(0 0 0)
(0 0 0)
(0 0 0)
(0 0 0)
(0 0 0)
(0 0 0)
(0 0 0)
(0 0 0)
(0 0 -1.59043e-15)
(0 0 6.13451e-15)
(0 0 6.81613e-15)
(0 0 0)
(0 0 2.04484e-15)
(0 0 -3.63527e-15)
(0 0 0)
(0 0 5.6801e-15)
(0 0 0)
(0 0 2.04484e-15)
(0 0 -3.63527e-15)
(0 0 0)
(0 0 5.6801e-15)
(0 0 0)
(0 0 2.04484e-15)
(0 0 -3.63527e-15)
(0 0 0)
(0 0 5.6801e-15)
(0 0 0)
(0 0 6.75932e-15)
(0 0 4.37368e-15)
(0 0 -9.98256e-15)
(0 0 2.32884e-15)
(0 0 0)
(0 0 6.75932e-15)
(0 0 4.37368e-15)
(0 0 -9.98256e-15)
(0 0 2.32884e-15)
(0 0 0)
(0 0 6.87293e-15)
(0 0 0)
(-6.00421e-17 0 -1.02666e-14)
(-1.70802e-23 0 0)
(4.25512e-47 0 0)
(0 0 0)
(0 0 -1.07922e-15)
(0 0 -2.04484e-15)
(0 0 0)
(0 0 -2.15844e-15)
(0 0 -1.42003e-15)
(0 0 0)
(0 0 0)
(0 0 0)
(0 0 0)
(0 0 0)
(0 0 0)
(0 0 0)
(0 0 0)
(0 0 0)
(0 0 0)
(0 0 -1.84883e-14)
(0 0 2.72356e-14)
(0 0 2.71788e-14)
(0 0 1.0281e-14)
(0 0 2.72356e-14)
(0 0 -2.07603e-14)
(0 0 0)
(0 0 2.72356e-14)
(0 0 1.01106e-14)
(0 0 2.72356e-14)
(0 0 -2.07603e-14)
(0 0 0)
(0 0 2.72356e-14)
(0 0 1.01106e-14)
(0 0 2.72356e-14)
(0 0 -2.07603e-14)
(0 0 0)
(0 0 2.72356e-14)
(0 0 1.01674e-14)
(0 0 2.72356e-14)
(0 0 2.71788e-14)
(0 0 0)
(0 0 2.5986e-14)
(0 0 0)
(0 0 2.71788e-14)
(0 0 2.71788e-14)
(0 0 0)
(0 0 2.5986e-14)
(0 0 0)
(0 0 2.71788e-14)
(0 0 0)
(-2.69272e-16 0 0)
(-7.87646e-21 0 0)
(0 0 0)
(0 0 0)
(0 0 -3.61534e-14)
(0 0 -4.05271e-14)
(0 0 -1.18146e-14)
(0 0 -4.06975e-14)
(0 0 -3.73462e-14)
(0 0 -1.13602e-16)
(0 0 0)
(0 0 0)
(0 0 0)
(0 0 0)
(0 0 1.48106e-14)
(0 0 2.04484e-15)
(0 0 0)
(0 0 0)
(0 0 0)
(0 0 9.13054e-15)
(0 0 2.08884e-14)
(0 0 8.00895e-15)
(0 0 2.04339e-14)
(0 0 2.43532e-14)
(0 0 1.2709e-14)
(0 0 1.31066e-14)
(0 0 5.73691e-15)
(0 0 1.98091e-14)
(0 0 2.42964e-14)
(0 0 1.2709e-14)
(0 0 1.31066e-14)
(0 0 5.73691e-15)
(0 0 1.98091e-14)
(0 0 2.42964e-14)
(0 0 1.2709e-14)
(0 0 1.31066e-14)
(0 0 5.73691e-15)
(0 0 2.00363e-14)
(0 0 2.5262e-14)
(0 0 0)
(0 0 -4.23871e-14)
(0 0 -2.44244e-15)
(0 0 -2.72356e-14)
(0 0 0)
(0 0 0)
(0 0 -3.80702e-14)
(0 0 -1.30642e-15)
(0 0 -2.69516e-14)
(0 0 0)
(0 0 0)
(-7.19534e-16 0 2.21804e-14)
(-8.31186e-19 0 0)
(0 0 0)
(0 0 2.72356e-14)
(0 0 0)
(0 0 -2.15844e-15)
(0 0 0)
(0 0 -2.27204e-15)
(0 0 -1.87443e-15)
(0 0 0)
(0 0 2.26348e-14)
(0 0 1.47683e-15)
(0 0 2.14419e-14)
(0 0 -6.8585e-15)
(0 0 2.13428e-14)
(0 0 2.72356e-14)
(0 0 2.66965e-15)
(0 0 2.12148e-14)
(0 0 -9.30094e-15)
(0 0 0)
(0 0 0)
(0 0 0)
(0 0 0)
(0 0 0)
(0 0 0)
(0 0 0)
(0 0 0)
(0 0 0)
(0 0 0)
(0 0 0)
(0 0 0)
(0 0 0)
(0 0 0)
(0 0 0)
(0 0 0)
(0 0 0)
(0 0 0)
(0 0 0)
(0 0 0)
(0 0 0)
(0 0 1.86587e-14)
(0 0 0)
(0 0 -4.43048e-15)
(0 0 0)
(0 0 0)
(0 0 1.88859e-14)
(0 0 0)
(0 0 -4.37368e-15)
(0 0 0)
(0 0 0)
(-1.50993e-15 0 -2.03627e-14)
(-2.58645e-17 0 0)
(0 0 0)
(0 0 2.72356e-14)
(0 0 0)
(0 0 0)
(0 0 0)
(0 0 0)
(0 0 0)
(0 0 0)
(0 0 -2.72356e-14)
(0 0 -9.82658e-15)
(0 0 -2.72356e-14)
(0 0 -2.00931e-14)
(0 0 6.8585e-15)
(0 0 -2.72356e-14)
(0 0 -9.20181e-15)
(0 0 -2.72356e-14)
(0 0 -2.32172e-14)
(0 0 0)
(0 0 0)
(0 0 0)
(0 0 0)
(0 0 0)
(0 0 0)
(0 0 0)
(0 0 0)
(0 0 0)
(0 0 0)
(0 0 0)
(0 0 0)
(0 0 0)
(0 0 0)
(0 0 0)
(0 0 0)
(0 0 0)
(0 0 0)
(0 0 0)
(0 0 0)
(0 0 0)
(0 0 0)
(0 0 0)
(0 0 -2.08739e-14)
(0 0 0)
(0 0 0)
(0 0 0)
(0 0 0)
(0 0 -2.08739e-14)
(0 0 0)
(0 0 0)
(-3.0261e-15 0 0)
(-2.94558e-16 0 0)
(0 0 0)
(0 0 5.1689e-15)
(0 0 0)
(0 0 0)
(0 0 0)
(0 0 0)
(0 0 0)
(0 0 -2.55605e-15)
(0 0 -4.40488e-14)
(0 0 -2.0278e-14)
(0 0 -5.20009e-14)
(0 0 -1.44843e-14)
(0 0 -1.70446e-16)
(0 0 -4.09816e-14)
(0 0 -1.89149e-14)
(0 0 -5.26828e-14)
(0 0 -1.6586e-14)
(0 0 0)
(0 0 0)
(0 0 0)
(0 0 0)
(0 0 0)
(0 0 0)
(0 0 0)
(0 0 0)
(0 0 0)
(0 0 0)
(0 0 0)
(0 0 0)
(0 0 0)
(0 0 0)
(0 0 0)
(0 0 0)
(0 0 0)
(0 0 0)
(0 0 0)
(0 0 0)
(0 0 0)
(0 0 0)
(0 0 0)
(0 0 2.36004e-14)
(0 0 0)
(0 0 0)
(0 0 0)
(0 0 0)
(0 0 2.36004e-14)
(0 0 0)
(0 0 0)
(-8.96502e-15 0 0)
(-1.42391e-15 0 0)
(0 0 0)
(0 0 2.72356e-14)
(0 0 0)
(0 0 0)
(0 0 0)
(0 0 0)
(0 0 0)
(0 0 0)
(0 0 -9.20177e-15)
(0 0 -3.74887e-15)
(0 0 -1.72675e-14)
(0 0 -1.99795e-14)
(0 0 8.50573e-15)
(0 0 -4.60093e-15)
(0 0 -1.30651e-15)
(0 0 -1.79492e-14)
(0 0 -2.45237e-14)
(0 0 0)
(0 0 0)
(0 0 0)
(0 0 0)
(0 0 0)
(0 0 0)
(0 0 0)
(0 0 0)
(0 0 0)
(0 0 0)
(0 0 0)
(0 0 0)
(0 0 0)
(0 0 0)
(0 0 0)
(0 0 0)
(0 0 0)
(0 0 0)
(0 0 0)
(0 0 0)
(0 0 0)
(0 0 2.7122e-14)
(0 0 0)
(0 0 0)
(0 0 0)
(0 0 0)
(0 0 2.7122e-14)
(0 0 0)
(0 0 0)
(0 0 0)
(0 0 0)
(-1.30514e-14 0 -2.08743e-14)
(-3.1915e-15 0 0)
(0 0 0)
(0 0 2.72356e-14)
(0 0 0)
(0 0 0)
(0 0 0)
(0 0 0)
(0 0 0)
(0 0 0)
(0 0 -2.28052e-14)
(0 0 -4.31688e-15)
(0 0 -2.72356e-14)
(0 0 -2.04339e-14)
(0 0 8.56253e-15)
(0 0 -1.84315e-14)
(0 0 -2.32884e-15)
(0 0 -2.72356e-14)
(0 0 -2.47508e-14)
(0 0 0)
(0 0 0)
(0 0 0)
(0 0 0)
(0 0 0)
(0 0 0)
(0 0 0)
(0 0 0)
(0 0 0)
(0 0 0)
(0 0 0)
(0 0 0)
(0 0 0)
(0 0 0)
(0 0 0)
(0 0 0)
(0 0 0)
(0 0 0)
(0 0 0)
(0 0 0)
(0 0 0)
(0 0 6.47532e-15)
(0 0 0)
(0 0 -3.01325e-14)
(0 0 0)
(0 0 0)
(0 0 6.47532e-15)
(0 0 0)
(0 0 -3.01325e-14)
(0 0 0)
(0 0 0)
(-1.39765e-14 0 2.06469e-14)
(-3.88641e-15 0 0)
(0 0 0)
(0 0 2.72356e-14)
(0 0 0)
(0 0 0)
(0 0 0)
(0 0 0)
(0 0 0)
(0 0 0)
(0 0 2.42252e-14)
(0 0 2.61285e-15)
(0 0 2.11011e-14)
(0 0 -8.61933e-15)
(0 0 1.92979e-14)
(0 0 2.72356e-14)
(0 0 3.69207e-15)
(0 0 2.07603e-14)
(0 0 -1.30498e-14)
(0 0 0)
(0 0 0)
(0 0 0)
(0 0 0)
(0 0 0)
(0 0 0)
(0 0 0)
(0 0 0)
(0 0 0)
(0 0 0)
(0 0 0)
(0 0 0)
(0 0 0)
(0 0 0)
(0 0 0)
(0 0 0)
(0 0 0)
(0 0 0)
(0 0 0)
(0 0 0)
(0 0 0)
(0 0 2.71788e-14)
(0 0 0)
(0 0 0)
(0 0 0)
(0 0 0)
(0 0 2.71788e-14)
(0 0 0)
(0 0 0)
(0 0 0)
(0 0 0)
(-8.96565e-16 0 0)
(-4.12193e-17 0 0)
(0 0 0)
(0 0 2.72356e-14)
(0 0 0)
(0 0 0)
(0 0 0)
(0 0 0)
(0 0 0)
(0 0 0)
(0 0 0)
(0 0 0)
(0 0 0)
(0 0 -9.64175e-15)
(0 0 1.11754e-14)
(0 0 0)
(0 0 0)
(0 0 0)
(0 0 -1.41858e-14)
(0 0 0)
(0 0 0)
(0 0 0)
(0 0 0)
(0 0 0)
(0 0 0)
(0 0 0)
(0 0 0)
(0 0 0)
(0 0 0)
(0 0 0)
(0 0 0)
(0 0 0)
(0 0 0)
(0 0 0)
(0 0 0)
(0 0 0)
(0 0 0)
(0 0 0)
(0 0 0)
(0 0 0)
(0 0 2.71788e-14)
(0 0 0)
(0 0 0)
(0 0 0)
(0 0 0)
(0 0 2.71788e-14)
(0 0 0)
(0 0 0)
(0 0 0)
(0 0 0)
(-2.96486e-15 0 0)
(-2.98661e-16 0 0)
(0 0 0)
(0 0 5.1689e-15)
(0 0 0)
(0 0 0)
(0 0 0)
(0 0 0)
(0 0 0)
(0 0 0)
(0 0 -3.26317e-14)
(0 0 -9.54258e-15)
(0 0 -3.7403e-14)
(0 0 -6.92973e-15)
(0 0 0)
(0 0 -3.21773e-14)
(0 0 -9.99698e-15)
(0 0 -3.90503e-14)
(0 0 -9.71298e-15)
(0 0 0)
(0 0 0)
(0 0 0)
(0 0 0)
(0 0 0)
(0 0 0)
(0 0 0)
(0 0 0)
(0 0 0)
(0 0 0)
(0 0 0)
(0 0 0)
(0 0 0)
(0 0 0)
(0 0 0)
(0 0 0)
(0 0 0)
(0 0 0)
(0 0 0)
(0 0 0)
(0 0 0)
(0 0 5.1689e-15)
(0 0 0)
(0 0 2.72356e-14)
(0 0 0)
(0 0 0)
(0 0 5.1689e-15)
(0 0 0)
(0 0 2.72356e-14)
(0 0 0)
(0 0 0)
(-9.00307e-15 0 0)
(-1.42441e-15 0 0)
(0 0 0)
(0 0 2.72356e-14)
(0 0 0)
(0 0 0)
(0 0 0)
(0 0 0)
(0 0 0)
(0 0 0)
(0 0 -5.05529e-15)
(0 0 0)
(0 0 -1.19282e-14)
(0 0 -1.70259e-14)
(0 0 8.50573e-15)
(0 0 -2.04484e-15)
(0 0 0)
(0 0 -1.35186e-14)
(0 0 -2.17404e-14)
(0 0 0)
(0 0 0)
(0 0 0)
(0 0 0)
(0 0 0)
(0 0 0)
(0 0 0)
(0 0 0)
(0 0 0)
(0 0 0)
(0 0 0)
(0 0 0)
(0 0 0)
(0 0 0)
(0 0 0)
(0 0 0)
(0 0 0)
(0 0 0)
(0 0 0)
(0 0 0)
(0 0 0)
(0 0 2.71788e-14)
(0 0 0)
(0 0 0)
(0 0 0)
(0 0 0)
(0 0 2.71788e-14)
(0 0 0)
(0 0 0)
(0 0 0)
(0 0 0)
(-1.3055e-14 0 -2.09311e-14)
(-3.19135e-15 0 0)
(0 0 0)
(0 0 2.72356e-14)
(0 0 0)
(0 0 0)
(0 0 0)
(0 0 0)
(0 0 0)
(0 0 0)
(0 0 -2.14419e-14)
(0 0 -3.01046e-15)
(0 0 -2.72356e-14)
(0 0 -2.02067e-14)
(0 0 8.56253e-15)
(0 0 -1.84315e-14)
(0 0 -2.04484e-15)
(0 0 -2.72356e-14)
(0 0 -2.45804e-14)
(0 0 0)
(0 0 0)
(0 0 0)
(0 0 0)
(0 0 0)
(0 0 0)
(0 0 0)
(0 0 0)
(0 0 0)
(0 0 0)
(0 0 0)
(0 0 0)
(0 0 0)
(0 0 0)
(0 0 0)
(0 0 0)
(0 0 0)
(0 0 0)
(0 0 0)
(0 0 0)
(0 0 0)
(0 0 6.47532e-15)
(0 0 0)
(0 0 -3.04165e-14)
(0 0 0)
(0 0 0)
(0 0 6.47532e-15)
(0 0 0)
(0 0 -3.04165e-14)
(0 0 0)
(0 0 0)
(-1.39769e-14 0 2.06469e-14)
(-3.88645e-15 0 0)
(0 0 0)
(0 0 2.72356e-14)
(0 0 0)
(0 0 0)
(0 0 0)
(0 0 0)
(0 0 0)
(0 0 0)
(0 0 2.4282e-14)
(0 0 2.66965e-15)
(0 0 2.11011e-14)
(0 0 -8.61933e-15)
(0 0 1.92979e-14)
(0 0 2.72356e-14)
(0 0 3.69207e-15)
(0 0 2.07603e-14)
(0 0 -1.30498e-14)
(0 0 0)
(0 0 0)
(0 0 0)
(0 0 0)
(0 0 0)
(0 0 0)
(0 0 0)
(0 0 0)
(0 0 0)
(0 0 0)
(0 0 0)
(0 0 0)
(0 0 0)
(0 0 0)
(0 0 0)
(0 0 0)
(0 0 0)
(0 0 0)
(0 0 0)
(0 0 0)
(0 0 0)
(0 0 2.71788e-14)
(0 0 0)
(0 0 0)
(0 0 0)
(0 0 0)
(0 0 2.71788e-14)
(0 0 0)
(0 0 0)
(0 0 0)
(0 0 0)
(-8.97604e-16 0 0)
(-4.15254e-17 0 0)
(0 0 0)
(0 0 2.72356e-14)
(0 0 0)
(0 0 0)
(0 0 0)
(0 0 0)
(0 0 0)
(0 0 0)
(0 0 0)
(0 0 0)
(0 0 0)
(0 0 -9.64175e-15)
(0 0 1.11754e-14)
(0 0 0)
(0 0 0)
(0 0 0)
(0 0 -1.41858e-14)
(0 0 0)
(0 0 0)
(0 0 0)
(0 0 0)
(0 0 0)
(0 0 0)
(0 0 0)
(0 0 0)
(0 0 0)
(0 0 0)
(0 0 0)
(0 0 0)
(0 0 0)
(0 0 0)
(0 0 0)
(0 0 0)
(0 0 0)
(0 0 0)
(0 0 0)
(0 0 0)
(0 0 0)
(0 0 2.71788e-14)
(0 0 0)
(0 0 0)
(0 0 0)
(0 0 0)
(0 0 2.71788e-14)
(0 0 0)
(0 0 0)
(0 0 0)
(0 0 0)
(-2.96081e-15 0 0)
(-3.00916e-16 0 0)
(0 0 0)
(0 0 5.1689e-15)
(0 0 0)
(0 0 0)
(0 0 0)
(0 0 0)
(0 0 0)
(0 0 0)
(0 0 -3.26317e-14)
(0 0 -9.54258e-15)
(0 0 -3.7403e-14)
(0 0 -6.92973e-15)
(0 0 0)
(0 0 -3.21773e-14)
(0 0 -9.99698e-15)
(0 0 -3.90503e-14)
(0 0 -9.71298e-15)
(0 0 0)
(0 0 0)
(0 0 0)
(0 0 0)
(0 0 0)
(0 0 0)
(0 0 0)
(0 0 0)
(0 0 0)
(0 0 0)
(0 0 0)
(0 0 0)
(0 0 0)
(0 0 0)
(0 0 0)
(0 0 0)
(0 0 0)
(0 0 0)
(0 0 0)
(0 0 0)
(0 0 0)
(0 0 5.1689e-15)
(0 0 0)
(0 0 2.72356e-14)
(0 0 0)
(0 0 0)
(0 0 5.1689e-15)
(0 0 0)
(0 0 2.72356e-14)
(0 0 0)
(0 0 0)
(-8.9409e-15 0 0)
(-1.42821e-15 0 0)
(0 0 0)
(0 0 2.72356e-14)
(0 0 0)
(0 0 0)
(0 0 0)
(0 0 0)
(0 0 0)
(0 0 0)
(0 0 -5.05529e-15)
(0 0 0)
(0 0 -1.19282e-14)
(0 0 -1.70259e-14)
(0 0 8.50573e-15)
(0 0 -2.04484e-15)
(0 0 0)
(0 0 -1.35186e-14)
(0 0 -2.17404e-14)
(0 0 0)
(0 0 0)
(0 0 0)
(0 0 0)
(0 0 0)
(0 0 0)
(0 0 0)
(0 0 0)
(0 0 0)
(0 0 0)
(0 0 0)
(0 0 0)
(0 0 0)
(0 0 0)
(0 0 0)
(0 0 0)
(0 0 0)
(0 0 0)
(0 0 0)
(0 0 0)
(0 0 0)
(0 0 2.71788e-14)
(0 0 0)
(0 0 0)
(0 0 0)
(0 0 0)
(0 0 2.71788e-14)
(0 0 0)
(0 0 0)
(0 0 0)
(0 0 0)
(-1.29008e-14 0 -2.08743e-14)
(-3.16836e-15 0 0)
(0 0 0)
(0 0 2.72356e-14)
(0 0 0)
(0 0 0)
(0 0 0)
(0 0 0)
(0 0 0)
(0 0 0)
(0 0 -2.14419e-14)
(0 0 -3.01046e-15)
(0 0 -2.72356e-14)
(0 0 -2.02067e-14)
(0 0 8.56253e-15)
(0 0 -1.84315e-14)
(0 0 -2.04484e-15)
(0 0 -2.72356e-14)
(0 0 -2.45804e-14)
(0 0 0)
(0 0 0)
(0 0 0)
(0 0 0)
(0 0 0)
(0 0 0)
(0 0 0)
(0 0 0)
(0 0 0)
(0 0 0)
(0 0 0)
(0 0 0)
(0 0 0)
(0 0 0)
(0 0 0)
(0 0 0)
(0 0 0)
(0 0 0)
(0 0 0)
(0 0 0)
(0 0 0)
(0 0 6.47532e-15)
(0 0 0)
(0 0 -3.04165e-14)
(0 0 0)
(0 0 0)
(0 0 6.47532e-15)
(0 0 0)
(0 0 -3.04165e-14)
(0 0 0)
(0 0 0)
(-1.36259e-14 0 2.06469e-14)
(-3.81021e-15 0 0)
(0 0 0)
(0 0 2.72356e-14)
(0 0 0)
(0 0 0)
(0 0 0)
(0 0 0)
(0 0 0)
(0 0 0)
(0 0 2.4282e-14)
(0 0 2.66965e-15)
(0 0 2.11011e-14)
(0 0 -8.61933e-15)
(0 0 1.92979e-14)
(0 0 2.72356e-14)
(0 0 3.69207e-15)
(0 0 2.07603e-14)
(0 0 -1.30498e-14)
(0 0 0)
(0 0 0)
(0 0 0)
(0 0 0)
(0 0 0)
(0 0 0)
(0 0 0)
(0 0 0)
(0 0 0)
(0 0 0)
(0 0 0)
(0 0 0)
(0 0 0)
(0 0 0)
(0 0 0)
(0 0 0)
(0 0 0)
(0 0 0)
(0 0 0)
(0 0 0)
(0 0 0)
(0 0 2.71788e-14)
(0 0 0)
(0 0 0)
(0 0 0)
(0 0 0)
(0 0 2.71788e-14)
(0 0 0)
(0 0 0)
(0 0 0)
(0 0 0)
(-5.63204e-17 0 0)
(0 0 0)
(0 0 0)
(0 0 2.72356e-14)
(0 0 0)
(0 0 0)
(0 0 0)
(0 0 0)
(0 0 0)
(0 0 0)
(0 0 0)
(0 0 0)
(0 0 0)
(0 0 -9.58495e-15)
(0 0 1.11754e-14)
(0 0 0)
(0 0 0)
(0 0 0)
(0 0 -1.41858e-14)
(0 0 0)
(0 0 0)
(0 0 0)
(0 0 0)
(0 0 0)
(0 0 0)
(0 0 0)
(0 0 0)
(0 0 0)
(0 0 0)
(0 0 0)
(0 0 0)
(0 0 0)
(0 0 0)
(0 0 0)
(0 0 0)
(0 0 0)
(0 0 0)
(0 0 0)
(0 0 0)
(0 0 0)
(0 0 2.71788e-14)
(0 0 0)
(0 0 0)
(0 0 0)
(0 0 0)
(0 0 2.71788e-14)
(0 0 0)
(0 0 0)
(0 0 0)
(0 0 0)
(-2.15189e-17 0 0)
(0 0 0)
(0 0 0)
(0 0 5.1689e-15)
(0 0 0)
(0 0 0)
(0 0 0)
(0 0 0)
(0 0 0)
(0 0 0)
(0 0 -3.26885e-14)
(0 0 -9.54258e-15)
(0 0 -3.71758e-14)
(0 0 -6.75932e-15)
(0 0 0)
(0 0 -3.24613e-14)
(0 0 -1.00538e-14)
(0 0 -3.89935e-14)
(0 0 -9.59938e-15)
(0 0 0)
(0 0 0)
(0 0 0)
(0 0 0)
(0 0 0)
(0 0 0)
(0 0 0)
(0 0 0)
(0 0 0)
(0 0 0)
(0 0 0)
(0 0 0)
(0 0 0)
(0 0 0)
(0 0 0)
(0 0 0)
(0 0 0)
(0 0 0)
(0 0 0)
(0 0 0)
(0 0 0)
(0 0 5.05529e-15)
(0 0 0)
(0 0 2.72356e-14)
(0 0 0)
(0 0 0)
(0 0 5.05529e-15)
(0 0 0)
(0 0 2.72356e-14)
(0 0 0)
(0 0 0)
(-5.78339e-18 0 0)
(0 0 0)
(0 0 0)
(0 0 2.72356e-14)
(0 0 0)
(0 0 0)
(0 0 0)
(0 0 0)
(0 0 0)
(0 0 0)
(0 0 -5.2825e-15)
(0 0 0)
(0 0 -1.13602e-14)
(0 0 -1.74803e-14)
(0 0 8.50573e-15)
(0 0 -3.06726e-15)
(0 0 0)
(0 0 -1.35186e-14)
(0 0 -2.21948e-14)
(0 0 0)
(0 0 0)
(0 0 0)
(0 0 0)
(0 0 0)
(0 0 0)
(0 0 0)
(0 0 0)
(0 0 0)
(0 0 0)
(0 0 0)
(0 0 0)
(0 0 0)
(0 0 0)
(0 0 0)
(0 0 0)
(0 0 0)
(0 0 0)
(0 0 0)
(0 0 0)
(0 0 0)
(0 0 2.67812e-14)
(0 0 0)
(0 0 0)
(0 0 0)
(0 0 0)
(0 0 2.67812e-14)
(0 0 0)
(0 0 0)
(0 0 0)
(0 0 0)
(-2.64158e-18 0 -2.55316e-14)
(0 0 0)
(0 0 0)
(0 0 2.72356e-14)
(0 0 0)
(0 0 0)
(0 0 0)
(0 0 0)
(0 0 0)
(0 0 0)
(0 0 -2.72356e-14)
(0 0 -8.40655e-15)
(0 0 -2.97349e-14)
(0 0 -2.23084e-14)
(0 0 7.82412e-15)
(0 0 -2.72356e-14)
(0 0 -9.82658e-15)
(0 0 -3.17229e-14)
(0 0 -2.63413e-14)
(0 0 0)
(0 0 0)
(0 0 0)
(0 0 0)
(0 0 0)
(0 0 0)
(0 0 0)
(0 0 0)
(0 0 0)
(0 0 0)
(0 0 0)
(0 0 0)
(0 0 0)
(0 0 0)
(0 0 0)
(0 0 0)
(0 0 0)
(0 0 0)
(0 0 0)
(0 0 0)
(0 0 0)
(0 0 0)
(0 0 0)
(0 0 -2.34868e-14)
(0 0 0)
(0 0 0)
(0 0 0)
(0 0 0)
(0 0 -2.34868e-14)
(0 0 0)
(0 0 0)
(-4.32574e-21 0 0)
(0 0 0)
(0 0 0)
(0 0 0)
(0 0 0)
(0 0 0)
(0 0 0)
(0 0 0)
(0 0 0)
(0 0 0)
(0 0 -3.78006e-14)
(0 0 -1.04514e-14)
(0 0 -3.68918e-14)
(0 0 -2.27204e-16)
(0 0 -1.13034e-14)
(0 0 -4.89904e-14)
(0 0 -1.41435e-14)
(0 0 -3.87095e-14)
(0 0 -9.65618e-16)
(0 0 0)
(0 0 0)
(0 0 0)
(0 0 0)
(0 0 0)
(0 0 -2.32884e-15)
(0 0 -2.38564e-15)
(0 0 0)
(0 0 0)
(0 0 0)
(0 0 -2.44244e-15)
(0 0 -2.44244e-15)
(0 0 0)
(0 0 0)
(0 0 0)
(0 0 -2.38564e-15)
(0 0 -2.27204e-15)
(0 0 0)
(0 0 0)
(0 0 0)
(0 0 0)
(0 0 0)
(0 0 0)
(0 0 2.07603e-14)
(0 0 0)
(0 0 0)
(0 0 0)
(0 0 0)
(0 0 2.07603e-14)
(0 0 0)
(0 0 0)
(-3.32858e-21 0 0)
(0 0 0)
(0 0 0)
(0 0 0)
(0 0 -2.03059e-14)
(0 0 2.57588e-14)
(0 0 1.51515e-14)
(0 0 7.95215e-16)
(0 0 2.72356e-14)
(0 0 1.51515e-14)
(0 0 -4.31688e-15)
(0 0 9.01694e-15)
(0 0 0)
(0 0 2.72212e-14)
(0 0 -3.70622e-14)
(0 0 -2.12436e-14)
(0 0 9.98256e-15)
(0 0 0)
(0 0 2.72212e-14)
(0 0 -1.95675e-14)
(0 0 0)
(0 0 0)
(0 0 -2.81445e-14)
(0 0 -1.06218e-14)
(0 0 -4.07543e-14)
(0 0 -4.09815e-14)
(0 0 -1.00538e-14)
(0 0 -3.09277e-14)
(0 0 -1.15874e-14)
(0 0 -4.11519e-14)
(0 0 -4.10951e-14)
(0 0 -1.01106e-14)
(0 0 -3.09277e-14)
(0 0 -1.15306e-14)
(0 0 -4.10383e-14)
(0 0 -4.05839e-14)
(0 0 -8.97457e-15)
(0 0 -2.77469e-14)
(0 0 0)
(0 0 0)
(0 0 0)
(0 0 0)
(0 0 3.40806e-15)
(0 0 0)
(0 0 0)
(0 0 0)
(0 0 0)
(0 0 3.29446e-15)
(0 0 0)
(0 0 0)
(-4.6729e-21 0 0)
(0 0 0)
(0 0 0)
(0 0 0)
(0 0 0)
(0 0 0)
(0 0 0)
(0 0 0)
(0 0 0)
(0 0 0)
(0 0 -3.00189e-14)
(0 0 -3.46486e-15)
(0 0 -2.67244e-14)
(0 0 0)
(0 0 -1.15307e-14)
(0 0 -4.2856e-14)
(0 0 -8.34988e-15)
(0 0 -2.85422e-14)
(0 0 0)
(0 0 0)
(0 0 0)
(0 0 0)
(0 0 0)
(0 0 0)
(0 0 -2.55605e-15)
(0 0 -3.29446e-15)
(0 0 -2.27204e-15)
(0 0 0)
(0 0 0)
(0 0 -2.66965e-15)
(0 0 -3.35126e-15)
(0 0 -2.32884e-15)
(0 0 0)
(0 0 0)
(0 0 -2.55605e-15)
(0 0 -3.06726e-15)
(0 0 -1.87443e-15)
(0 0 0)
(0 0 0)
(0 0 0)
(0 0 0)
(0 0 0)
(0 0 2.67244e-14)
(0 0 0)
(0 0 -1.53363e-15)
(0 0 0)
(0 0 0)
(0 0 2.63268e-14)
(0 0 0)
(0 0 0)
(-3.54255e-21 0 0)
(0 0 0)
(0 0 0)
(0 0 0)
(0 0 0)
(0 0 0)
(0 0 0)
(0 0 -2.5702e-14)
(0 0 0)
(0 0 0)
(0 0 -1.03378e-14)
(0 0 0)
(0 0 -1.47683e-15)
(0 0 2.71788e-14)
(0 0 0)
(0 0 -1.99372e-14)
(0 0 -5.85089e-15)
(0 0 -3.80588e-15)
(0 0 2.6554e-14)
(0 0 4.26008e-15)
(0 0 2.08739e-14)
(0 0 -2.343e-14)
(0 0 0)
(0 0 2.71788e-14)
(0 0 0)
(0 0 0)
(0 0 -2.96213e-14)
(0 0 0)
(0 0 2.71788e-14)
(0 0 0)
(0 0 0)
(0 0 -2.96213e-14)
(0 0 0)
(0 0 2.71788e-14)
(0 0 0)
(0 0 0)
(0 0 -2.92237e-14)
(0 0 0)
(0 0 2.36004e-14)
(0 0 -2.07603e-14)
(0 0 -3.29446e-15)
(0 0 -2.63268e-14)
(0 0 0)
(0 0 -3.5131e-14)
(0 0 -3.85959e-14)
(0 0 -8.06575e-15)
(0 0 -2.75197e-14)
(0 0 0)
(0 0 -3.3995e-14)
(0 0 0)
(-1.82234e-21 0 0)
(0 0 0)
(0 0 0)
(0 0 0)
(0 0 0)
(0 0 0)
(0 0 0)
(0 0 0)
(0 0 0)
(0 0 -3.57847e-15)
(0 0 -4.52984e-14)
(0 0 -1.70403e-14)
(0 0 -4.01863e-14)
(0 0 0)
(0 0 -8.40749e-15)
(0 0 -5.5127e-14)
(0 0 -2.32326e-14)
(0 0 -4.29699e-14)
(0 0 0)
(0 0 0)
(0 0 0)
(0 0 0)
(0 0 0)
(0 0 0)
(0 0 0)
(0 0 0)
(0 0 0)
(0 0 0)
(0 0 0)
(0 0 0)
(0 0 0)
(0 0 0)
(0 0 0)
(0 0 0)
(0 0 0)
(0 0 0)
(0 0 0)
(0 0 0)
(0 0 0)
(0 0 0)
(0 0 0)
(0 0 0)
(0 0 2.72356e-14)
(0 0 0)
(0 0 -1.53363e-15)
(0 0 0)
(0 0 0)
(0 0 2.72356e-14)
(0 0 0)
(0 0 0)
(-5.45094e-22 0 0)
(0 0 0)
(0 0 0)
(0 0 0)
(0 0 0)
(0 0 0)
(0 0 0)
(0 0 0)
(0 0 0)
(0 0 0)
(0 0 -4.14359e-14)
(0 0 -1.36323e-14)
(0 0 -3.89367e-14)
(0 0 0)
(0 0 -1.95984e-14)
(0 0 -5.97314e-14)
(0 0 -2.01093e-14)
(0 0 -4.12661e-14)
(0 0 0)
(0 0 0)
(0 0 0)
(0 0 0)
(0 0 0)
(0 0 0)
(0 0 -2.32884e-15)
(0 0 -2.38564e-15)
(0 0 0)
(0 0 0)
(0 0 0)
(0 0 -2.44244e-15)
(0 0 -2.44244e-15)
(0 0 0)
(0 0 0)
(0 0 0)
(0 0 -2.38564e-15)
(0 0 -2.27204e-15)
(0 0 0)
(0 0 0)
(0 0 0)
(0 0 0)
(0 0 0)
(0 0 0)
(0 0 2.72356e-14)
(0 0 0)
(0 0 0)
(0 0 0)
(0 0 0)
(0 0 2.72356e-14)
(0 0 0)
(0 0 0)
(-6.69042e-23 0 0)
(0 0 0)
(0 0 0)
(0 0 0)
(0 0 -2.03059e-14)
(0 0 2.57588e-14)
(0 0 1.51515e-14)
(0 0 7.95215e-16)
(0 0 2.72356e-14)
(0 0 1.51515e-14)
(0 0 -4.77129e-15)
(0 0 8.96014e-15)
(0 0 0)
(0 0 2.72212e-14)
(0 0 -3.93923e-14)
(0 0 -2.48808e-14)
(0 0 9.98256e-15)
(0 0 0)
(0 0 2.72212e-14)
(0 0 -1.95675e-14)
(0 0 0)
(0 0 0)
(0 0 -2.81445e-14)
(0 0 -1.06218e-14)
(0 0 -4.07543e-14)
(0 0 -4.09815e-14)
(0 0 -1.00538e-14)
(0 0 -3.09277e-14)
(0 0 -1.15874e-14)
(0 0 -4.11519e-14)
(0 0 -4.10951e-14)
(0 0 -1.01106e-14)
(0 0 -3.09277e-14)
(0 0 -1.15306e-14)
(0 0 -4.10383e-14)
(0 0 -4.05839e-14)
(0 0 -8.97457e-15)
(0 0 -2.77469e-14)
(0 0 0)
(0 0 0)
(0 0 0)
(0 0 0)
(0 0 5.11209e-15)
(0 0 0)
(0 0 0)
(0 0 0)
(0 0 0)
(0 0 5.05529e-15)
(0 0 0)
(0 0 0)
(-9.21232e-36 0 0)
(0 0 0)
(0 0 0)
(0 0 0)
(0 0 0)
(0 0 0)
(0 0 0)
(0 0 0)
(0 0 0)
(0 0 0)
(0 0 -3.01893e-14)
(0 0 -3.52166e-15)
(0 0 -2.67812e-14)
(0 0 0)
(0 0 -1.24399e-14)
(0 0 -4.43337e-14)
(0 0 -8.6909e-15)
(0 0 -2.8599e-14)
(0 0 0)
(0 0 0)