/*--------------------------------*- C++ -*----------------------------------*\
  =========                 |
  \\      /  F ield         | OpenFOAM: The Open Source CFD Toolbox
   \\    /   O peration     | Website:  https://openfoam.org
    \\  /    A nd           | Version:  9
     \\/     M anipulation  |
\*---------------------------------------------------------------------------*/
FoamFile
{
    format      ascii;
    class       volVectorField;
    location    "0.007";
    object      U;
}
// * * * * * * * * * * * * * * * * * * * * * * * * * * * * * * * * * * * * * //

dimensions      [0 1 -1 0 0 0 0];

internalField   nonuniform List<vector> 
62500
(
(0 0 0)
(-4.92001e-18 0 0)
(-4.20616e-19 0 0)
(3.14562e-43 0 0)
(3.24516e-65 0 0)
(3.60445e-67 0 0)
(-8.6584e-83 0 0)
(0 0 0)
(0 0 0)
(0 0 0)
(0 0 0)
(0 0 0)
(0 0 0)
(0 0 0)
(0 0 0)
(0 0 0)
(0 0 0)
(0 0 0)
(0 0 0)
(0 0 0)
(0 0 0)
(0 0 0)
(0 0 0)
(0 0 0)
(0 0 0)
(0 0 0)
(0 0 0)
(0 0 0)
(0 0 0)
(0 0 0)
(0 0 0)
(0 0 0)
(0 0 0)
(0 0 0)
(0 0 0)
(0 0 0)
(0 0 0)
(0 0 0)
(0 0 0)
(0 0 0)
(0 0 0)
(0 0 0)
(0 0 0)
(0 0 0)
(0 0 0)
(0 0 0)
(0 0 0)
(0 0 0)
(0 0 0)
(0 0 0)
(0 0 0)
(-5.17922e-18 0 0)
(-3.8545e-19 0 0)
(-1.65562e-51 1.99434e-49 0)
(-1.411e-66 4.17647e-49 0)
(5.62329e-66 1.15984e-32 0)
(-6.84901e-82 -1.45526e-16 0)
(0 0 0)
(0 8.61017e-33 0)
(0 -1.51816e-16 0)
(0 0 0)
(0 0 6.94345e-15)
(0 0 0)
(0 0 6.94345e-15)
(0 -3.13832e-20 0)
(0 0 0)
(0 0 6.94345e-15)
(0 0 0)
(0 0 8.38087e-15)
(0 -5.80006e-19 0)
(0 0 -1.81064e-14)
(0 -2.50215e-31 1.68545e-14)
(0 3.66709e-32 0)
(0 1.30374e-31 0)
(0 2.90274e-30 1.85703e-14)
(0 0 -1.6669e-14)
(0 0 0)
(0 -5.75638e-35 0)
(0 2.51524e-45 0)
(0 2.73432e-30 1.85703e-14)
(0 0 -1.6669e-14)
(0 0 0)
(0 1.54295e-32 0)
(0 -3.11385e-46 0)
(0 2.90488e-30 1.85703e-14)
(0 0 -1.6669e-14)
(0 0 0)
(0 2.17036e-32 0)
(0 -1.26577e-39 0)
(0 -2.20854e-14 2.17235e-14)
(0 -1.16377e-36 0)
(0 3.15432e-49 0)
(0 -1.76462e-36 0)
(0 -5.95963e-25 0)
(0 -2.32794e-36 0)
(0 -2.22105e-36 0)
(0 -1.21234e-45 0)
(0 -1.76471e-36 0)
(0 -5.95963e-25 0)
(0 -2.32932e-36 0)
(0 0 0)
(-3.49783e-18 0 0)
(-2.05311e-19 0 0)
(1.09387e-50 -1.60007e-57 0)
(-2.50907e-65 4.33987e-50 0)
(3.53985e-65 5.94116e-56 0)
(-1.26822e-80 -5.7793e-17 0)
(0 0 0)
(0 0 0)
(0 -6.30752e-17 0)
(0 0 0)
(0 0 0)
(0 0 0)
(0 0 0)
(0 0 0)
(0 0 0)
(0 0 0)
(0 0 0)
(0 0 0)
(0 0 0)
(0 0 0)
(0 -8.12517e-36 0)
(0 -4.3963e-36 0)
(0 -2.59307e-39 0)
(0 -7.02598e-36 0)
(0 0 0)
(0 0 0)
(0 0 0)
(0 0 0)
(0 -7.02598e-36 0)
(0 0 0)
(0 0 0)
(0 0 0)
(0 0 0)
(0 -7.02598e-36 0)
(0 0 0)
(0 0 0)
(0 0 0)
(0 0 0)
(0 -2.19487e-14 0)
(0 0 0)
(0 0 0)
(0 0 0)
(0 0 0)
(0 0 0)
(0 0 0)
(0 0 0)
(0 0 0)
(0 0 0)
(0 0 0)
(0 0 0)
(-1.70054e-18 0 0)
(-6.7666e-20 0 0)
(-4.37194e-50 2.62805e-60 0)
(-1.05201e-64 4.04253e-63 6.94345e-15)
(-4.83018e-64 -4.61428e-68 0)
(-5.14639e-80 -1.9364e-18 0)
(0 0 0)
(0 0 -8.4736e-15)
(0 -3.83091e-18 0)
(0 0 0)
(0 0 0)
(0 0 0)
(0 0 0)
(0 0 0)
(0 0 -4.63682e-17)
(0 0 0)
(0 0 0)
(0 0 0)
(0 0 0)
(0 0 -1.25198e-15)
(0 -1.35207e-34 -2.64302e-15)
(0 -1.06155e-39 0)
(0 -4.10064e-39 -6.8636e-15)
(0 7.98876e-26 -1.31709e-14)
(0 0 -1.09913e-14)
(0 0 -5.84336e-15)
(0 0 0)
(0 0 -6.8636e-15)
(0 7.97387e-26 -1.31709e-14)
(0 0 -1.09913e-14)
(0 0 -5.84336e-15)
(0 0 0)
(0 0 -6.8636e-15)
(0 7.97375e-26 -1.31709e-14)
(0 0 -1.09913e-14)
(0 0 -5.75059e-15)
(0 0 0)
(0 0 -1.9475e-15)
(0 -1.00048e-14 -1.71566e-15)
(0 0 0)
(0 0 0)
(0 0 0)
(0 0 0)
(0 0 0)
(0 0 0)
(0 0 0)
(0 0 0)
(0 0 0)
(0 0 0)
(0 0 0)
(-1.09731e-18 0 0)
(-3.03299e-20 0 0)
(-3.11994e-49 -4.89644e-70 -6.94345e-15)
(-2.11464e-66 -1.47224e-72 0)
(-7.46387e-65 -2.99726e-83 0)
(1.00331e-79 0 0)
(0 0 0)
(0 0 0)
(0 -2.76995e-21 0)
(0 0 0)
(0 0 0)
(0 0 0)
(0 0 0)
(0 0 0)
(0 0 -2.90493e-14)
(0 0 -6.49155e-16)
(0 0 0)
(0 0 0)
(0 0 0)
(0 0 -2.99767e-14)
(0 -2.94811e-35 -3.41035e-14)
(0 -3.75054e-41 -1.04793e-14)
(0 1.40812e-36 -4.18953e-14)
(0 -7.17274e-28 -4.99193e-14)
(0 0 -4.99193e-14)
(0 0 -4.1478e-14)
(0 0 -1.07113e-14)
(0 0 -4.19881e-14)
(0 -7.16073e-28 -4.99193e-14)
(0 0 -4.99193e-14)
(0 0 -4.1478e-14)
(0 0 -1.07113e-14)
(0 0 -4.19881e-14)
(0 -7.16073e-28 -4.99193e-14)
(0 0 -4.99193e-14)
(0 0 -4.12461e-14)
(0 0 -1.01084e-14)
(0 0 -3.36863e-14)
(0 -2.89236e-35 -3.21569e-14)
(0 0 -7.42272e-16)
(0 0 0)
(0 0 0)
(0 0 0)
(0 0 0)
(0 0 0)
(0 0 0)
(0 0 0)
(0 0 0)
(0 0 0)
(0 0 0)
(-1.22908e-18 0 0)
(-4.42177e-20 0 0)
(-8.29657e-49 0 0)
(-1.59921e-68 2.1215e-104 0)
(2.17436e-62 0 0)
(1.84103e-78 0 2.18622e-14)
(0 0 4.12677e-15)
(0 0 2.22332e-14)
(0 0 2.22332e-14)
(0 0 0)
(0 0 0)
(0 0 0)
(0 0 0)
(0 0 2.05176e-14)
(0 0 -3.14605e-14)
(0 0 -1.20557e-15)
(0 0 0)
(0 0 0)
(0 0 2.22332e-14)
(0 0 0)
(0 -7.77799e-42 -2.0866e-15)
(0 -1.97482e-48 0)
(0 1.72629e-45 -6.12161e-15)
(0 1.90832e-33 -1.02957e-14)
(0 0 -1.02493e-14)
(0 0 -6.02887e-15)
(0 0 0)
(0 0 -6.16797e-15)
(0 1.86103e-33 -1.02957e-14)
(0 0 -1.02493e-14)
(0 0 -6.02887e-15)
(0 0 0)
(0 0 -6.16797e-15)
(0 2.00539e-33 -1.02957e-14)
(0 0 -1.02493e-14)
(0 0 -5.93606e-15)
(0 0 0)
(0 0 -2.0403e-15)
(0 -1.0649e-41 -2.13328e-15)
(0 0 0)
(0 0 1.65763e-14)
(0 0 0)
(0 0 0)
(0 0 0)
(0 0 0)
(0 0 1.65763e-14)
(0 0 0)
(0 0 0)
(0 0 0)
(0 0 0)
(-1.01549e-18 0 0)
(-4.95277e-20 0 0)
(-3.03919e-48 0 0)
(2.66191e-69 0 0)
(3.77988e-61 0 -2.18622e-14)
(3.03724e-77 0 0)
(0 0 0)
(0 0 -1.64372e-14)
(0 0 0)
(0 0 0)
(0 0 0)
(0 0 0)
(0 0 0)
(0 0 2.1584e-14)
(0 0 -2.39952e-14)
(0 0 0)
(0 0 0)
(0 0 0)
(0 0 2.22332e-14)
(0 0 0)
(0 -5.97477e-52 0)
(0 1.63011e-49 0)
(0 0 0)
(0 0 0)
(0 0 0)
(0 0 0)
(0 0 0)
(0 0 0)
(0 0 0)
(0 0 0)
(0 0 0)
(0 0 0)
(0 0 0)
(0 0 0)
(0 0 0)
(0 0 0)
(0 0 0)
(0 0 0)
(0 -1.04452e-51 0)
(0 0 0)
(0 0 -2.10276e-14)
(0 0 0)
(0 0 0)
(0 0 0)
(0 0 0)
(0 0 -2.10276e-14)
(0 0 0)
(0 0 0)
(0 0 0)
(0 0 0)
(-3.18164e-19 0 0)
(-1.78417e-20 0 0)
(-8.76489e-48 0 0)
(-8.33875e-69 0 0)
(5.22197e-60 0 -4.12677e-15)
(1.58073e-75 0 0)
(0 0 0)
(0 0 0)
(0 0 0)
(0 0 0)
(0 0 0)
(0 0 0)
(0 0 0)
(0 0 3.19941e-15)
(0 0 -2.82846e-15)
(0 0 0)
(0 0 0)
(0 0 0)
(0 0 4.21951e-15)
(0 0 0)
(0 0 0)
(0 0 0)
(0 0 0)
(0 0 0)
(0 0 0)
(0 0 0)
(0 0 0)
(0 0 0)
(0 0 0)
(0 0 0)
(0 0 0)
(0 0 0)
(0 0 0)
(0 0 0)
(0 0 0)
(0 0 0)
(0 0 0)
(0 0 0)
(0 0 0)
(0 0 0)
(0 0 -1.27858e-14)
(0 0 0)
(0 0 0)
(0 0 0)
(0 0 0)
(0 0 -1.27858e-14)
(0 0 0)
(0 0 0)
(0 0 0)
(0 0 0)
(-4.03644e-20 0 0)
(-1.55771e-21 0 0)
(-2.18305e-49 0 8.4736e-15)
(-7.48627e-68 0 0)
(2.49949e-59 0 -2.22332e-14)
(1.66765e-75 0 1.64372e-14)
(0 0 0)
(0 0 0)
(0 0 2.08421e-14)
(0 0 0)
(0 0 0)
(0 0 0)
(0 0 0)
(0 0 2.16304e-14)
(0 0 -2.14913e-14)
(0 0 0)
(0 0 0)
(0 0 0)
(0 0 2.22332e-14)
(0 0 0)
(0 0 0)
(0 0 0)
(0 0 0)
(0 0 0)
(0 0 0)
(0 0 0)
(0 0 0)
(0 0 0)
(0 0 0)
(0 0 0)
(0 0 0)
(0 0 0)
(0 0 0)
(0 0 0)
(0 0 0)
(0 0 0)
(0 0 0)
(0 0 0)
(0 0 0)
(0 0 0)
(0 0 -2.22567e-15)
(0 0 0)
(0 0 2.13058e-14)
(0 0 0)
(0 0 0)
(0 0 -2.22567e-15)
(0 0 0)
(0 0 2.13058e-14)
(0 0 0)
(0 0 0)
(-1.88945e-19 0 0)
(-4.36388e-36 0 0)
(-5.47344e-51 0 0)
(4.7335e-67 0 0)
(6.87685e-60 0 -2.22332e-14)
(1.71469e-77 0 0)
(0 0 0)
(0 0 -2.08421e-14)
(0 0 0)
(0 0 0)
(0 0 0)
(0 0 0)
(0 0 0)
(0 0 2.09812e-14)
(0 0 -2.09812e-14)
(0 0 0)
(0 0 0)
(0 0 0)
(0 0 2.22332e-14)
(0 0 0)
(0 0 0)
(0 0 0)
(0 0 0)
(0 0 0)
(0 0 0)
(0 0 0)
(0 0 0)
(0 0 0)
(0 0 0)
(0 0 0)
(0 0 0)
(0 0 0)
(0 0 0)
(0 0 0)
(0 0 0)
(0 0 0)
(0 0 0)
(0 0 0)
(0 0 0)
(0 0 0)
(0 0 -2.64063e-14)
(0 0 0)
(0 0 0)
(0 0 0)
(0 0 0)
(0 0 -2.64063e-14)
(0 0 0)
(0 0 0)
(0 0 0)
(0 0 0)
(-1.1769e-18 0 0)
(-1.70665e-35 0 0)
(-1.06321e-50 0 0)
(1.88836e-66 0 0)
(3.86994e-69 0 0)
(-1.83982e-81 0 0)
(0 0 0)
(0 0 0)
(0 0 0)
(0 0 0)
(0 0 0)
(0 0 0)
(0 0 0)
(0 0 0)
(0 0 0)
(0 0 0)
(0 0 0)
(0 0 0)
(0 0 0)
(0 0 0)
(0 0 0)
(0 0 0)
(0 0 0)
(0 0 0)
(0 0 0)
(0 0 0)
(0 0 0)
(0 0 0)
(0 0 0)
(0 0 0)
(0 0 0)
(0 0 0)
(0 0 0)
(0 0 0)
(0 0 0)
(0 0 0)
(0 0 0)
(0 0 0)
(0 0 0)
(0 0 0)
(0 0 -1.33886e-14)
(0 0 0)
(0 0 0)
(0 0 0)
(0 0 0)
(0 0 -1.33886e-14)
(0 0 0)
(0 0 0)
(0 0 0)
(0 0 0)
(-2.45062e-18 0 -6.94345e-15)
(-6.22712e-35 0 0)
(7.80207e-51 0 0)
(1.76873e-65 0 0)
(7.6146e-72 0 0)
(-5.44613e-82 0 0)
(0 0 0)
(0 0 0)
(0 0 0)
(0 0 0)
(0 0 0)
(0 0 0)
(0 0 0)
(0 0 0)
(0 0 0)
(0 0 0)
(0 0 0)
(0 0 0)
(0 0 0)
(0 0 -1.68081e-14)
(0 0 2.22332e-14)
(0 0 2.21868e-14)
(0 0 2.96756e-15)
(0 0 1.73182e-14)
(0 0 -1.96366e-14)
(0 0 0)
(0 0 2.21868e-14)
(0 0 2.96756e-15)
(0 0 1.72718e-14)
(0 0 -1.96366e-14)
(0 0 0)
(0 0 2.21868e-14)
(0 0 2.96756e-15)
(0 0 1.72718e-14)
(0 0 -1.96366e-14)
(0 0 0)
(0 0 2.21868e-14)
(0 0 4.21951e-15)
(0 0 2.22332e-14)
(0 0 2.21868e-14)
(0 0 7.41891e-16)
(0 0 2.21868e-14)
(0 0 4.21951e-15)
(0 0 2.21868e-14)
(0 0 2.21868e-14)
(0 0 7.41891e-16)
(0 0 2.21868e-14)
(0 0 4.21951e-15)
(0 0 2.21868e-14)
(0 0 0)
(-2.48083e-18 0 0)
(-8.88253e-35 0 0)
(-4.73677e-51 0 0)
(1.81831e-65 0 0)
(5.28279e-72 0 0)
(0 0 0)
(0 0 0)
(0 0 0)
(0 0 0)
(0 0 0)
(0 0 0)
(0 0 0)
(0 0 0)
(0 0 0)
(0 0 0)
(0 0 0)
(0 0 0)
(0 0 0)
(0 0 0)
(0 0 -4.63682e-16)
(0 0 5.47145e-15)
(0 0 5.61055e-15)
(0 0 0)
(0 0 2.45751e-15)
(0 0 -2.13294e-15)
(0 0 0)
(0 0 4.54408e-15)
(0 0 0)
(0 0 2.41115e-15)
(0 0 -2.17931e-15)
(0 0 0)
(0 0 4.54408e-15)
(0 0 0)
(0 0 2.41115e-15)
(0 0 -2.17931e-15)
(0 0 0)
(0 0 4.54408e-15)
(0 0 0)
(0 0 5.51782e-15)
(0 0 3.75582e-15)
(0 0 -7.36077e-15)
(0 0 2.13294e-15)
(0 0 0)
(0 0 5.51782e-15)
(0 0 3.75582e-15)
(0 0 -7.3144e-15)
(0 0 2.13294e-15)
(0 0 0)
(0 0 5.61055e-15)
(0 0 0)
(-3.17261e-18 0 -6.94345e-15)
(-3.23895e-34 0 0)
(6.55609e-50 0 0)
(1.22213e-65 0 0)
(3.10676e-74 0 0)
(0 0 0)
(0 0 0)
(0 0 0)
(0 0 0)
(0 0 0)
(0 0 0)
(0 0 0)
(0 0 0)
(0 0 0)
(0 0 0)
(0 0 0)
(0 0 0)
(0 0 0)
(0 0 0)
(0 0 -1.51388e-14)
(0 0 2.22332e-14)
(0 0 2.21868e-14)
(0 0 7.51165e-15)
(0 0 2.22332e-14)
(0 0 -1.72254e-14)
(0 0 0)
(0 0 2.22332e-14)
(0 0 7.37254e-15)
(0 0 2.22332e-14)
(0 0 -1.72254e-14)
(0 0 0)
(0 0 2.22332e-14)
(0 0 7.37254e-15)
(0 0 2.22332e-14)
(0 0 -1.72254e-14)
(0 0 0)
(0 0 2.22332e-14)
(0 0 7.46528e-15)
(0 0 2.22332e-14)
(0 0 2.21868e-14)
(0 0 0)
(0 0 2.13058e-14)
(0 0 0)
(0 0 2.21868e-14)
(0 0 2.21868e-14)
(0 0 0)
(0 0 2.13058e-14)
(0 0 0)
(0 0 2.21868e-14)
(0 0 0)
(-1.36215e-18 0 0)
(-3.00928e-34 0 0)
(1.033e-49 0 0)
(3.13602e-65 0 0)
(3.72106e-77 0 -2.06567e-14)
(0 0 -2.1584e-14)
(0 0 -3.15304e-15)
(0 0 -2.16304e-14)
(0 0 -2.09812e-14)
(0 0 0)
(0 0 0)
(0 0 0)
(0 0 0)
(0 0 0)
(0 0 6.94345e-15)
(0 0 0)
(0 0 0)
(0 0 0)
(0 0 0)
(0 0 5.59877e-15)
(0 0 1.46406e-14)
(0 0 5.05413e-15)
(0 0 1.32959e-14)
(0 0 1.64026e-14)
(0 0 7.03619e-15)
(0 0 7.17529e-15)
(0 0 2.9212e-15)
(0 0 1.26467e-14)
(0 0 1.63562e-14)
(0 0 7.03619e-15)
(0 0 7.17529e-15)
(0 0 2.9212e-15)
(0 0 1.26467e-14)
(0 0 1.63562e-14)
(0 0 7.03619e-15)
(0 0 7.17529e-15)
(0 0 2.9212e-15)
(0 0 1.31104e-14)
(0 0 1.78863e-14)
(0 0 0)
(0 0 -3.27006e-14)
(0 0 -1.57652e-15)
(0 0 -2.22795e-14)
(0 0 0)
(0 0 0)
(0 0 -2.95939e-14)
(0 0 -6.02787e-16)
(0 0 -2.20477e-14)
(0 0 0)
(0 0 0)
(-3.85552e-18 0 0)
(-2.00279e-33 0 0)
(2.20302e-48 0 0)
(5.56932e-65 0 2.22332e-14)
(-1.45294e-76 0 2.22332e-14)
(0 0 2.17231e-14)
(0 0 3.01393e-15)
(0 0 2.15377e-14)
(0 0 2.09812e-14)
(0 0 0)
(0 0 0)
(0 0 0)
(0 0 0)
(0 0 -6.94345e-15)
(0 0 0)
(0 0 0)
(0 0 0)
(0 0 0)
(0 0 -1.20903e-14)
(0 0 -1.74227e-14)
(0 0 -5.59877e-15)
(0 0 0)
(0 0 -6.94345e-15)
(0 0 -6.98982e-15)
(0 0 -1.57534e-14)
(0 0 -9.12276e-15)
(0 0 0)
(0 0 -6.94345e-15)
(0 0 -6.98982e-15)
(0 0 -1.57534e-14)
(0 0 -9.12276e-15)
(0 0 0)
(0 0 -6.94345e-15)
(0 0 -6.98982e-15)
(0 0 -1.57534e-14)
(0 0 -9.12276e-15)
(0 0 0)
(0 0 -6.94345e-15)
(0 0 -6.38703e-15)
(0 0 2.45751e-15)
(0 0 2.11667e-14)
(0 0 3.84856e-15)
(0 0 0)
(0 0 0)
(0 0 3.84856e-15)
(0 0 2.08885e-14)
(0 0 3.80219e-15)
(0 0 0)
(0 0 0)
(0 0 0)
(-8.76518e-18 0 -6.94345e-15)
(-4.82207e-31 0 0)
(6.71947e-47 0 0)
(-8.87886e-68 0 0)
(-3.44283e-80 0 0)
(0 0 0)
(0 0 0)
(0 0 0)
(0 0 0)
(0 0 0)
(0 0 0)
(0 0 0)
(0 0 0)
(0 0 0)
(0 0 0)
(0 0 0)
(0 0 0)
(0 0 0)
(0 0 -1.66926e-15)
(0 0 -2.22332e-14)
(0 0 2.09349e-14)
(0 0 2.21868e-14)
(0 0 6.95523e-16)
(0 0 1.50461e-14)
(0 0 -2.22332e-14)
(0 0 0)
(0 0 2.21868e-14)
(0 0 6.95523e-16)
(0 0 1.50461e-14)
(0 0 -2.22332e-14)
(0 0 0)
(0 0 2.21868e-14)
(0 0 6.95523e-16)
(0 0 1.50461e-14)
(0 0 -2.22332e-14)
(0 0 0)
(0 0 2.21868e-14)
(0 0 2.45751e-15)
(0 0 2.22332e-14)
(0 0 2.21868e-14)
(0 0 7.46528e-15)
(0 0 2.21868e-14)
(0 0 5.28597e-15)
(0 0 2.21868e-14)
(0 0 2.21868e-14)
(0 0 7.37254e-15)
(0 0 2.21868e-14)
(0 0 5.28597e-15)
(0 0 2.21868e-14)
(0 0 0)
(-2.17183e-17 0 0)
(-5.19537e-27 0 0)
(1.76539e-46 0 0)
(0 0 0)
(0 0 0)
(0 0 0)
(0 0 0)
(0 0 0)
(0 0 0)
(0 0 0)
(0 0 0)
(0 0 0)
(0 0 0)
(0 0 0)
(0 0 0)
(0 0 0)
(0 0 0)
(0 0 0)
(0 0 0)
(0 0 -1.29831e-15)
(0 0 5.00777e-15)
(0 0 5.56418e-15)
(0 0 0)
(0 0 1.66926e-15)
(0 0 -2.96756e-15)
(0 0 0)
(0 0 4.63682e-15)
(0 0 0)
(0 0 1.66926e-15)
(0 0 -2.96756e-15)
(0 0 0)
(0 0 4.63682e-15)
(0 0 0)
(0 0 1.66926e-15)
(0 0 -2.96756e-15)
(0 0 0)
(0 0 4.63682e-15)
(0 0 0)
(0 0 5.51782e-15)
(0 0 3.57035e-15)
(0 0 -8.14903e-15)
(0 0 1.9011e-15)
(0 0 0)
(0 0 5.51782e-15)
(0 0 3.57035e-15)
(0 0 -8.14903e-15)
(0 0 1.9011e-15)
(0 0 0)
(0 0 5.61055e-15)
(0 0 0)
(-4.9014e-17 0 -8.38087e-15)
(-1.3943e-23 0 0)
(3.47356e-47 0 0)
(0 0 0)
(0 0 -8.80996e-16)
(0 0 -1.66926e-15)
(0 0 0)
(0 0 -1.76199e-15)
(0 0 -1.15921e-15)
(0 0 0)
(0 0 0)
(0 0 0)
(0 0 0)
(0 0 0)
(0 0 0)
(0 0 0)
(0 0 0)
(0 0 0)
(0 0 0)
(0 0 -1.50925e-14)
(0 0 2.22332e-14)
(0 0 2.21868e-14)
(0 0 8.39264e-15)
(0 0 2.22332e-14)
(0 0 -1.69472e-14)
(0 0 0)
(0 0 2.22332e-14)
(0 0 8.25354e-15)
(0 0 2.22332e-14)
(0 0 -1.69472e-14)
(0 0 0)
(0 0 2.22332e-14)
(0 0 8.25354e-15)
(0 0 2.22332e-14)
(0 0 -1.69472e-14)
(0 0 0)
(0 0 2.22332e-14)
(0 0 8.29991e-15)
(0 0 2.22332e-14)
(0 0 2.21868e-14)
(0 0 0)
(0 0 2.12131e-14)
(0 0 0)
(0 0 2.21868e-14)
(0 0 2.21868e-14)
(0 0 0)
(0 0 2.12131e-14)
(0 0 0)
(0 0 2.21868e-14)
(0 0 0)
(-2.19814e-16 0 0)
(-6.42976e-21 0 0)
(0 0 0)
(0 0 0)
(0 0 -2.9513e-14)
(0 0 -3.30833e-14)
(0 0 -9.64459e-15)
(0 0 -3.32224e-14)
(0 0 -3.04867e-14)
(0 0 -9.27364e-17)
(0 0 0)
(0 0 0)
(0 0 0)
(0 0 0)
(0 0 1.20903e-14)
(0 0 1.66926e-15)
(0 0 0)
(0 0 0)
(0 0 0)
(0 0 7.4535e-15)
(0 0 1.70517e-14)
(0 0 6.53792e-15)
(0 0 1.66808e-14)
(0 0 1.98802e-14)
(0 0 1.03747e-14)
(0 0 1.06993e-14)
(0 0 4.68319e-15)
(0 0 1.61707e-14)
(0 0 1.98338e-14)
(0 0 1.03747e-14)
(0 0 1.06993e-14)
(0 0 4.68319e-15)
(0 0 1.61707e-14)
(0 0 1.98338e-14)
(0 0 1.03747e-14)
(0 0 1.06993e-14)
(0 0 4.68319e-15)
(0 0 1.63562e-14)
(0 0 2.06221e-14)
(0 0 0)
(0 0 -3.46017e-14)
(0 0 -1.99383e-15)
(0 0 -2.22332e-14)
(0 0 0)
(0 0 0)
(0 0 -3.10777e-14)
(0 0 -1.06647e-15)
(0 0 -2.20013e-14)
(0 0 0)
(0 0 0)
(-5.87375e-16 0 1.81064e-14)
(-6.78519e-19 0 0)
(0 0 0)
(0 0 2.22332e-14)
(0 0 0)
(0 0 -1.76199e-15)
(0 0 0)
(0 0 -1.85473e-15)
(0 0 -1.53015e-15)
(0 0 0)
(0 0 1.84774e-14)
(0 0 1.20557e-15)
(0 0 1.75036e-14)
(0 0 -5.59877e-15)
(0 0 1.74227e-14)
(0 0 2.22332e-14)
(0 0 2.17931e-15)
(0 0 1.73182e-14)
(0 0 -7.59261e-15)
(0 0 0)
(0 0 0)
(0 0 0)
(0 0 0)
(0 0 0)
(0 0 0)
(0 0 0)
(0 0 0)
(0 0 0)
(0 0 0)
(0 0 0)
(0 0 0)
(0 0 0)
(0 0 0)
(0 0 0)
(0 0 0)
(0 0 0)
(0 0 0)
(0 0 0)
(0 0 0)
(0 0 0)
(0 0 1.52316e-14)
(0 0 0)
(0 0 -3.61672e-15)
(0 0 0)
(0 0 0)
(0 0 1.54171e-14)
(0 0 0)
(0 0 -3.57035e-15)
(0 0 0)
(0 0 0)
(-1.23259e-15 0 -1.66226e-14)
(-2.11138e-17 0 0)
(0 0 0)
(0 0 2.22332e-14)
(0 0 0)
(0 0 0)
(0 0 0)
(0 0 0)
(0 0 0)
(0 0 0)
(0 0 -2.22332e-14)
(0 0 -8.0217e-15)
(0 0 -2.22332e-14)
(0 0 -1.64026e-14)
(0 0 5.59877e-15)
(0 0 -2.22332e-14)
(0 0 -7.51168e-15)
(0 0 -2.22332e-14)
(0 0 -1.89529e-14)
(0 0 0)
(0 0 0)
(0 0 0)
(0 0 0)
(0 0 0)
(0 0 0)
(0 0 0)
(0 0 0)
(0 0 0)
(0 0 0)
(0 0 0)
(0 0 0)
(0 0 0)
(0 0 0)
(0 0 0)
(0 0 0)
(0 0 0)
(0 0 0)
(0 0 0)
(0 0 0)
(0 0 0)
(0 0 0)
(0 0 0)
(0 0 -1.70399e-14)
(0 0 0)
(0 0 0)
(0 0 0)
(0 0 0)
(0 0 -1.70399e-14)
(0 0 0)
(0 0 0)
(-2.47029e-15 0 0)
(-2.40456e-16 0 0)
(0 0 0)
(0 0 4.21951e-15)
(0 0 0)
(0 0 0)
(0 0 0)
(0 0 0)
(0 0 0)
(0 0 -2.08657e-15)
(0 0 -3.59582e-14)
(0 0 -1.65534e-14)
(0 0 -4.24497e-14)
(0 0 -1.18239e-14)
(0 0 -1.39139e-16)
(0 0 -3.34544e-14)
(0 0 -1.54407e-14)
(0 0 -4.30063e-14)
(0 0 -1.35396e-14)
(0 0 0)
(0 0 0)
(0 0 0)
(0 0 0)
(0 0 0)
(0 0 0)
(0 0 0)
(0 0 0)
(0 0 0)
(0 0 0)
(0 0 0)
(0 0 0)
(0 0 0)
(0 0 0)
(0 0 0)
(0 0 0)
(0 0 0)
(0 0 0)
(0 0 0)
(0 0 0)
(0 0 0)
(0 0 0)
(0 0 0)
(0 0 1.92656e-14)
(0 0 0)
(0 0 0)
(0 0 0)
(0 0 0)
(0 0 1.92656e-14)
(0 0 0)
(0 0 0)
(-7.31839e-15 0 0)
(-1.16237e-15 0 0)
(0 0 0)
(0 0 2.22332e-14)
(0 0 0)
(0 0 0)
(0 0 0)
(0 0 0)
(0 0 0)
(0 0 0)
(0 0 -7.51165e-15)
(0 0 -3.0603e-15)
(0 0 -1.40959e-14)
(0 0 -1.63098e-14)
(0 0 6.94345e-15)
(0 0 -3.75586e-15)
(0 0 -1.06654e-15)
(0 0 -1.46524e-14)
(0 0 -2.00193e-14)
(0 0 0)
(0 0 0)
(0 0 0)
(0 0 0)
(0 0 0)
(0 0 0)
(0 0 0)
(0 0 0)
(0 0 0)
(0 0 0)
(0 0 0)
(0 0 0)
(0 0 0)
(0 0 0)
(0 0 0)
(0 0 0)
(0 0 0)
(0 0 0)
(0 0 0)
(0 0 0)
(0 0 0)
(0 0 2.21404e-14)
(0 0 0)
(0 0 0)
(0 0 0)
(0 0 0)
(0 0 2.21404e-14)
(0 0 0)
(0 0 0)
(0 0 0)
(0 0 0)
(-1.06542e-14 0 -1.70402e-14)
(-2.60531e-15 0 0)
(0 0 0)
(0 0 2.22332e-14)
(0 0 0)
(0 0 0)
(0 0 0)
(0 0 0)
(0 0 0)
(0 0 0)
(0 0 -1.86165e-14)
(0 0 -3.52398e-15)
(0 0 -2.22332e-14)
(0 0 -1.66808e-14)
(0 0 6.98982e-15)
(0 0 -1.50461e-14)
(0 0 -1.9011e-15)
(0 0 -2.22332e-14)
(0 0 -2.02048e-14)
(0 0 0)
(0 0 0)
(0 0 0)
(0 0 0)
(0 0 0)
(0 0 0)
(0 0 0)
(0 0 0)
(0 0 0)
(0 0 0)
(0 0 0)
(0 0 0)
(0 0 0)
(0 0 0)
(0 0 0)
(0 0 0)
(0 0 0)
(0 0 0)
(0 0 0)
(0 0 0)
(0 0 0)
(0 0 5.28597e-15)
(0 0 0)
(0 0 -2.4598e-14)
(0 0 0)
(0 0 0)
(0 0 5.28597e-15)
(0 0 0)
(0 0 -2.4598e-14)
(0 0 0)
(0 0 0)
(-1.14094e-14 0 1.68546e-14)
(-3.17258e-15 0 0)
(0 0 0)
(0 0 2.22332e-14)
(0 0 0)
(0 0 0)
(0 0 0)
(0 0 0)
(0 0 0)
(0 0 0)
(0 0 1.97757e-14)
(0 0 2.13294e-15)
(0 0 1.72254e-14)
(0 0 -7.03619e-15)
(0 0 1.57534e-14)
(0 0 2.22332e-14)
(0 0 3.01393e-15)
(0 0 1.69472e-14)
(0 0 -1.06529e-14)
(0 0 0)
(0 0 0)
(0 0 0)
(0 0 0)
(0 0 0)
(0 0 0)
(0 0 0)
(0 0 0)
(0 0 0)
(0 0 0)
(0 0 0)
(0 0 0)
(0 0 0)
(0 0 0)
(0 0 0)
(0 0 0)
(0 0 0)
(0 0 0)
(0 0 0)
(0 0 0)
(0 0 0)
(0 0 2.21868e-14)
(0 0 0)
(0 0 0)
(0 0 0)
(0 0 0)
(0 0 2.21868e-14)
(0 0 0)
(0 0 0)
(0 0 0)
(0 0 0)
(-7.3189e-16 0 0)
(-3.36484e-17 0 0)
(0 0 0)
(0 0 2.22332e-14)
(0 0 0)
(0 0 0)
(0 0 0)
(0 0 0)
(0 0 0)
(0 0 0)
(0 0 0)
(0 0 0)
(0 0 0)
(0 0 -7.87082e-15)
(0 0 9.12276e-15)
(0 0 0)
(0 0 0)
(0 0 0)
(0 0 -1.15803e-14)
(0 0 0)
(0 0 0)
(0 0 0)
(0 0 0)
(0 0 0)
(0 0 0)
(0 0 0)
(0 0 0)
(0 0 0)
(0 0 0)
(0 0 0)
(0 0 0)
(0 0 0)
(0 0 0)
(0 0 0)
(0 0 0)
(0 0 0)
(0 0 0)
(0 0 0)
(0 0 0)
(0 0 0)
(0 0 2.21868e-14)
(0 0 0)
(0 0 0)
(0 0 0)
(0 0 0)
(0 0 2.21868e-14)
(0 0 0)
(0 0 0)
(0 0 0)
(0 0 0)
(-2.42029e-15 0 0)
(-2.43805e-16 0 0)
(0 0 0)
(0 0 4.21951e-15)
(0 0 0)
(0 0 0)
(0 0 0)
(0 0 0)
(0 0 0)
(0 0 0)
(0 0 -2.66382e-14)
(0 0 -7.78986e-15)
(0 0 -3.05331e-14)
(0 0 -5.65692e-15)
(0 0 0)
(0 0 -2.62672e-14)
(0 0 -8.1608e-15)
(0 0 -3.18778e-14)
(0 0 -7.92896e-15)
(0 0 0)
(0 0 0)
(0 0 0)
(0 0 0)
(0 0 0)
(0 0 0)
(0 0 0)
(0 0 0)
(0 0 0)
(0 0 0)
(0 0 0)
(0 0 0)
(0 0 0)
(0 0 0)
(0 0 0)
(0 0 0)
(0 0 0)
(0 0 0)
(0 0 0)
(0 0 0)
(0 0 0)
(0 0 4.21951e-15)
(0 0 0)
(0 0 2.22332e-14)
(0 0 0)
(0 0 0)
(0 0 4.21951e-15)
(0 0 0)
(0 0 2.22332e-14)
(0 0 0)
(0 0 0)
(-7.34944e-15 0 0)
(-1.16278e-15 0 0)
(0 0 0)
(0 0 2.22332e-14)
(0 0 0)
(0 0 0)
(0 0 0)
(0 0 0)
(0 0 0)
(0 0 0)
(0 0 -4.12677e-15)
(0 0 0)
(0 0 -9.73732e-15)
(0 0 -1.38987e-14)
(0 0 6.94345e-15)
(0 0 -1.66926e-15)
(0 0 0)
(0 0 -1.10356e-14)
(0 0 -1.77472e-14)
(0 0 0)
(0 0 0)
(0 0 0)
(0 0 0)
(0 0 0)
(0 0 0)
(0 0 0)
(0 0 0)
(0 0 0)
(0 0 0)
(0 0 0)
(0 0 0)
(0 0 0)
(0 0 0)
(0 0 0)
(0 0 0)
(0 0 0)
(0 0 0)
(0 0 0)
(0 0 0)
(0 0 0)
(0 0 2.21868e-14)
(0 0 0)
(0 0 0)
(0 0 0)
(0 0 0)
(0 0 2.21868e-14)
(0 0 0)
(0 0 0)
(0 0 0)
(0 0 0)
(-1.06571e-14 0 -1.70866e-14)
(-2.60519e-15 0 0)
(0 0 0)
(0 0 2.22332e-14)
(0 0 0)
(0 0 0)
(0 0 0)
(0 0 0)
(0 0 0)
(0 0 0)
(0 0 -1.75036e-14)
(0 0 -2.45751e-15)
(0 0 -2.22332e-14)
(0 0 -1.64953e-14)
(0 0 6.98982e-15)
(0 0 -1.50461e-14)
(0 0 -1.66926e-15)
(0 0 -2.22332e-14)
(0 0 -2.00657e-14)
(0 0 0)
(0 0 0)
(0 0 0)
(0 0 0)
(0 0 0)
(0 0 0)
(0 0 0)
(0 0 0)
(0 0 0)
(0 0 0)
(0 0 0)
(0 0 0)
(0 0 0)
(0 0 0)
(0 0 0)
(0 0 0)
(0 0 0)
(0 0 0)
(0 0 0)
(0 0 0)
(0 0 0)
(0 0 5.28597e-15)
(0 0 0)
(0 0 -2.48298e-14)
(0 0 0)
(0 0 0)
(0 0 5.28597e-15)
(0 0 0)
(0 0 -2.48298e-14)
(0 0 0)
(0 0 0)
(-1.14097e-14 0 1.68546e-14)
(-3.17261e-15 0 0)
(0 0 0)
(0 0 2.22332e-14)
(0 0 0)
(0 0 0)
(0 0 0)
(0 0 0)
(0 0 0)
(0 0 0)
(0 0 1.9822e-14)
(0 0 2.17931e-15)
(0 0 1.72254e-14)
(0 0 -7.03619e-15)
(0 0 1.57534e-14)
(0 0 2.22332e-14)
(0 0 3.01393e-15)
(0 0 1.69472e-14)
(0 0 -1.06529e-14)
(0 0 0)
(0 0 0)
(0 0 0)
(0 0 0)
(0 0 0)
(0 0 0)
(0 0 0)
(0 0 0)
(0 0 0)
(0 0 0)
(0 0 0)
(0 0 0)
(0 0 0)
(0 0 0)
(0 0 0)
(0 0 0)
(0 0 0)
(0 0 0)
(0 0 0)
(0 0 0)
(0 0 0)
(0 0 2.21868e-14)
(0 0 0)
(0 0 0)
(0 0 0)
(0 0 0)
(0 0 2.21868e-14)
(0 0 0)
(0 0 0)
(0 0 0)
(0 0 0)
(-7.32738e-16 0 0)
(-3.38983e-17 0 0)
(0 0 0)
(0 0 2.22332e-14)
(0 0 0)
(0 0 0)
(0 0 0)
(0 0 0)
(0 0 0)
(0 0 0)
(0 0 0)
(0 0 0)
(0 0 0)
(0 0 -7.87082e-15)
(0 0 9.12276e-15)
(0 0 0)
(0 0 0)
(0 0 0)
(0 0 -1.15803e-14)
(0 0 0)
(0 0 0)
(0 0 0)
(0 0 0)
(0 0 0)
(0 0 0)
(0 0 0)
(0 0 0)
(0 0 0)
(0 0 0)
(0 0 0)
(0 0 0)
(0 0 0)
(0 0 0)
(0 0 0)
(0 0 0)
(0 0 0)
(0 0 0)
(0 0 0)
(0 0 0)
(0 0 0)
(0 0 2.21868e-14)
(0 0 0)
(0 0 0)
(0 0 0)
(0 0 0)
(0 0 2.21868e-14)
(0 0 0)
(0 0 0)
(0 0 0)
(0 0 0)
(-2.41699e-15 0 0)
(-2.45646e-16 0 0)
(0 0 0)
(0 0 4.21951e-15)
(0 0 0)
(0 0 0)
(0 0 0)
(0 0 0)
(0 0 0)
(0 0 0)
(0 0 -2.66382e-14)
(0 0 -7.78986e-15)
(0 0 -3.05331e-14)
(0 0 -5.65692e-15)
(0 0 0)
(0 0 -2.62672e-14)
(0 0 -8.1608e-15)
(0 0 -3.18778e-14)
(0 0 -7.92896e-15)
(0 0 0)
(0 0 0)
(0 0 0)
(0 0 0)
(0 0 0)
(0 0 0)
(0 0 0)
(0 0 0)
(0 0 0)
(0 0 0)
(0 0 0)
(0 0 0)
(0 0 0)
(0 0 0)
(0 0 0)
(0 0 0)
(0 0 0)
(0 0 0)
(0 0 0)
(0 0 0)
(0 0 0)
(0 0 4.21951e-15)
(0 0 0)
(0 0 2.22332e-14)
(0 0 0)
(0 0 0)
(0 0 4.21951e-15)
(0 0 0)
(0 0 2.22332e-14)
(0 0 0)
(0 0 0)
(-7.2987e-15 0 0)
(-1.16588e-15 0 0)
(0 0 0)
(0 0 2.22332e-14)
(0 0 0)
(0 0 0)
(0 0 0)
(0 0 0)
(0 0 0)
(0 0 0)
(0 0 -4.12677e-15)
(0 0 0)
(0 0 -9.73732e-15)
(0 0 -1.38987e-14)
(0 0 6.94345e-15)
(0 0 -1.66926e-15)
(0 0 0)
(0 0 -1.10356e-14)
(0 0 -1.77472e-14)
(0 0 0)
(0 0 0)
(0 0 0)
(0 0 0)
(0 0 0)
(0 0 0)
(0 0 0)
(0 0 0)
(0 0 0)
(0 0 0)
(0 0 0)
(0 0 0)
(0 0 0)
(0 0 0)
(0 0 0)
(0 0 0)
(0 0 0)
(0 0 0)
(0 0 0)
(0 0 0)
(0 0 0)
(0 0 2.21868e-14)
(0 0 0)
(0 0 0)
(0 0 0)
(0 0 0)
(0 0 2.21868e-14)
(0 0 0)
(0 0 0)
(0 0 0)
(0 0 0)
(-1.05313e-14 0 -1.70402e-14)
(-2.58642e-15 0 0)
(0 0 0)
(0 0 2.22332e-14)
(0 0 0)
(0 0 0)
(0 0 0)
(0 0 0)
(0 0 0)
(0 0 0)
(0 0 -1.75036e-14)
(0 0 -2.45751e-15)
(0 0 -2.22332e-14)
(0 0 -1.64953e-14)
(0 0 6.98982e-15)
(0 0 -1.50461e-14)
(0 0 -1.66926e-15)
(0 0 -2.22332e-14)
(0 0 -2.00657e-14)
(0 0 0)
(0 0 0)
(0 0 0)
(0 0 0)
(0 0 0)
(0 0 0)
(0 0 0)
(0 0 0)
(0 0 0)
(0 0 0)
(0 0 0)
(0 0 0)
(0 0 0)
(0 0 0)
(0 0 0)
(0 0 0)
(0 0 0)
(0 0 0)
(0 0 0)
(0 0 0)
(0 0 0)
(0 0 5.28597e-15)
(0 0 0)
(0 0 -2.48298e-14)
(0 0 0)
(0 0 0)
(0 0 5.28597e-15)
(0 0 0)
(0 0 -2.48298e-14)
(0 0 0)
(0 0 0)
(-1.11232e-14 0 1.68546e-14)
(-3.11038e-15 0 0)
(0 0 0)
(0 0 2.22332e-14)
(0 0 0)
(0 0 0)
(0 0 0)
(0 0 0)
(0 0 0)
(0 0 0)
(0 0 1.9822e-14)
(0 0 2.17931e-15)
(0 0 1.72254e-14)
(0 0 -7.03619e-15)
(0 0 1.57534e-14)
(0 0 2.22332e-14)
(0 0 3.01393e-15)
(0 0 1.69472e-14)
(0 0 -1.06529e-14)
(0 0 0)
(0 0 0)
(0 0 0)
(0 0 0)
(0 0 0)
(0 0 0)
(0 0 0)
(0 0 0)
(0 0 0)
(0 0 0)
(0 0 0)
(0 0 0)
(0 0 0)
(0 0 0)
(0 0 0)
(0 0 0)
(0 0 0)
(0 0 0)
(0 0 0)
(0 0 0)
(0 0 0)
(0 0 2.21868e-14)
(0 0 0)
(0 0 0)
(0 0 0)
(0 0 0)
(0 0 2.21868e-14)
(0 0 0)
(0 0 0)
(0 0 0)
(0 0 0)
(-4.59758e-17 0 0)
(0 0 0)
(0 0 0)
(0 0 2.22332e-14)
(0 0 0)
(0 0 0)
(0 0 0)
(0 0 0)
(0 0 0)
(0 0 0)
(0 0 0)
(0 0 0)
(0 0 0)
(0 0 -7.82445e-15)
(0 0 9.12276e-15)
(0 0 0)
(0 0 0)
(0 0 0)
(0 0 -1.15803e-14)
(0 0 0)
(0 0 0)
(0 0 0)
(0 0 0)
(0 0 0)
(0 0 0)
(0 0 0)
(0 0 0)
(0 0 0)
(0 0 0)
(0 0 0)
(0 0 0)
(0 0 0)
(0 0 0)
(0 0 0)
(0 0 0)
(0 0 0)
(0 0 0)
(0 0 0)
(0 0 0)
(0 0 0)
(0 0 2.21868e-14)
(0 0 0)
(0 0 0)
(0 0 0)
(0 0 0)
(0 0 2.21868e-14)
(0 0 0)
(0 0 0)
(0 0 0)
(0 0 0)
(-1.75664e-17 0 0)
(0 0 0)
(0 0 0)
(0 0 4.21951e-15)
(0 0 0)
(0 0 0)
(0 0 0)
(0 0 0)
(0 0 0)
(0 0 0)
(0 0 -2.66845e-14)
(0 0 -7.78986e-15)
(0 0 -3.03476e-14)
(0 0 -5.51782e-15)
(0 0 0)
(0 0 -2.64991e-14)
(0 0 -8.20717e-15)
(0 0 -3.18314e-14)
(0 0 -7.83623e-15)
(0 0 0)
(0 0 0)
(0 0 0)
(0 0 0)
(0 0 0)
(0 0 0)
(0 0 0)
(0 0 0)
(0 0 0)
(0 0 0)
(0 0 0)
(0 0 0)
(0 0 0)
(0 0 0)
(0 0 0)
(0 0 0)
(0 0 0)
(0 0 0)
(0 0 0)
(0 0 0)
(0 0 0)
(0 0 4.12677e-15)
(0 0 0)
(0 0 2.22332e-14)
(0 0 0)
(0 0 0)
(0 0 4.12677e-15)
(0 0 0)
(0 0 2.22332e-14)
(0 0 0)
(0 0 0)
(-4.72113e-18 0 0)
(0 0 0)
(0 0 0)
(0 0 2.22332e-14)
(0 0 0)
(0 0 0)
(0 0 0)
(0 0 0)
(0 0 0)
(0 0 0)
(0 0 -4.31224e-15)
(0 0 0)
(0 0 -9.27364e-15)
(0 0 -1.42696e-14)
(0 0 6.94345e-15)
(0 0 -2.50388e-15)
(0 0 0)
(0 0 -1.10356e-14)
(0 0 -1.81182e-14)
(0 0 0)
(0 0 0)
(0 0 0)
(0 0 0)
(0 0 0)
(0 0 0)
(0 0 0)
(0 0 0)
(0 0 0)
(0 0 0)
(0 0 0)
(0 0 0)
(0 0 0)
(0 0 0)
(0 0 0)
(0 0 0)
(0 0 0)
(0 0 0)
(0 0 0)
(0 0 0)
(0 0 0)
(0 0 2.18622e-14)
(0 0 0)
(0 0 0)
(0 0 0)
(0 0 0)
(0 0 2.18622e-14)
(0 0 0)
(0 0 0)
(0 0 0)
(0 0 0)
(-2.15639e-18 0 -2.08421e-14)
(0 0 0)
(0 0 0)
(0 0 2.22332e-14)
(0 0 0)
(0 0 0)
(0 0 0)
(0 0 0)
(0 0 0)
(0 0 0)
(0 0 -2.22332e-14)
(0 0 -6.86249e-15)
(0 0 -2.42734e-14)
(0 0 -1.82109e-14)
(0 0 6.38703e-15)
(0 0 -2.22332e-14)
(0 0 -8.0217e-15)
(0 0 -2.58963e-14)
(0 0 -2.15031e-14)
(0 0 0)
(0 0 0)
(0 0 0)
(0 0 0)
(0 0 0)
(0 0 0)
(0 0 0)
(0 0 0)
(0 0 0)
(0 0 0)
(0 0 0)
(0 0 0)
(0 0 0)
(0 0 0)
(0 0 0)
(0 0 0)
(0 0 0)
(0 0 0)
(0 0 0)
(0 0 0)
(0 0 0)
(0 0 0)
(0 0 0)
(0 0 -1.91729e-14)
(0 0 0)
(0 0 0)
(0 0 0)
(0 0 0)
(0 0 -1.91729e-14)
(0 0 0)
(0 0 0)
(-3.53122e-21 0 0)
(0 0 0)
(0 0 0)
(0 0 0)
(0 0 0)
(0 0 0)
(0 0 0)
(0 0 0)
(0 0 0)
(0 0 0)
(0 0 -3.08577e-14)
(0 0 -8.53175e-15)
(0 0 -3.01158e-14)
(0 0 -1.85473e-16)
(0 0 -9.22727e-15)
(0 0 -3.99922e-14)
(0 0 -1.15457e-14)
(0 0 -3.15996e-14)
(0 0 -7.88259e-16)
(0 0 0)
(0 0 0)
(0 0 0)
(0 0 0)
(0 0 0)
(0 0 -1.9011e-15)
(0 0 -1.94746e-15)
(0 0 0)
(0 0 0)
(0 0 0)
(0 0 -1.99383e-15)
(0 0 -1.99383e-15)
(0 0 0)
(0 0 0)
(0 0 0)
(0 0 -1.94746e-15)
(0 0 -1.85473e-15)
(0 0 0)
(0 0 0)
(0 0 0)
(0 0 0)
(0 0 0)
(0 0 0)
(0 0 1.69472e-14)
(0 0 0)
(0 0 0)
(0 0 0)
(0 0 0)
(0 0 1.69472e-14)
(0 0 0)
(0 0 0)
(-2.71721e-21 0 0)
(0 0 0)
(0 0 0)
(0 0 0)
(0 0 -1.65763e-14)
(0 0 2.10276e-14)
(0 0 1.23685e-14)
(0 0 6.49155e-16)
(0 0 2.22332e-14)
(0 0 1.23685e-14)
(0 0 -3.52398e-15)
(0 0 7.36077e-15)
(0 0 0)
(0 0 2.22214e-14)
(0 0 -3.02549e-14)
(0 0 -1.73417e-14)
(0 0 8.14903e-15)
(0 0 0)
(0 0 2.22214e-14)
(0 0 -1.59735e-14)
(0 0 0)
(0 0 0)
(0 0 -2.29751e-14)
(0 0 -8.67085e-15)
(0 0 -3.32688e-14)
(0 0 -3.34543e-14)
(0 0 -8.20717e-15)
(0 0 -2.52471e-14)
(0 0 -9.45911e-15)
(0 0 -3.35934e-14)
(0 0 -3.3547e-14)
(0 0 -8.25354e-15)
(0 0 -2.52471e-14)
(0 0 -9.41274e-15)
(0 0 -3.35007e-14)
(0 0 -3.31297e-14)
(0 0 -7.32618e-15)
(0 0 -2.26505e-14)
(0 0 0)
(0 0 0)
(0 0 0)
(0 0 0)
(0 0 2.78209e-15)
(0 0 0)
(0 0 0)
(0 0 0)
(0 0 0)
(0 0 2.68936e-15)
(0 0 0)
(0 0 0)
(-3.81462e-21 0 0)
(0 0 0)
(0 0 0)
(0 0 0)
(0 0 0)
(0 0 0)
(0 0 0)
(0 0 0)
(0 0 0)
(0 0 0)
(0 0 -2.45052e-14)
(0 0 -2.82846e-15)
(0 0 -2.18159e-14)
(0 0 0)
(0 0 -9.41278e-15)
(0 0 -3.49845e-14)
(0 0 -6.81623e-15)
(0 0 -2.32997e-14)
(0 0 0)
(0 0 0)
(0 0 0)
(0 0 0)
(0 0 0)
(0 0 0)
(0 0 -2.08657e-15)
(0 0 -2.68936e-15)
(0 0 -1.85473e-15)
(0 0 0)
(0 0 0)
(0 0 -2.17931e-15)
(0 0 -2.73572e-15)
(0 0 -1.9011e-15)
(0 0 0)
(0 0 0)
(0 0 -2.08657e-15)
(0 0 -2.50388e-15)
(0 0 -1.53015e-15)
(0 0 0)
(0 0 0)
(0 0 0)
(0 0 0)
(0 0 0)
(0 0 2.18159e-14)
(0 0 0)
(0 0 -1.25194e-15)
(0 0 0)
(0 0 0)
(0 0 2.14913e-14)
(0 0 0)
(0 0 0)
(-2.89188e-21 0 0)
(0 0 0)
(0 0 0)
(0 0 0)
(0 0 0)
(0 0 0)
(0 0 0)
(0 0 -2.09812e-14)
(0 0 0)
(0 0 0)
(0 0 -8.43901e-15)
(0 0 0)
(0 0 -1.20557e-15)
(0 0 2.21868e-14)
(0 0 0)
(0 0 -1.62753e-14)
(0 0 -4.77624e-15)
(0 0 -3.10684e-15)
(0 0 2.16768e-14)
(0 0 3.47762e-15)
(0 0 1.70399e-14)
(0 0 -1.91265e-14)
(0 0 0)
(0 0 2.21868e-14)
(0 0 0)
(0 0 0)
(0 0 -2.41806e-14)
(0 0 0)
(0 0 2.21868e-14)
(0 0 0)
(0 0 0)
(0 0 -2.41806e-14)
(0 0 0)
(0 0 2.21868e-14)
(0 0 0)
(0 0 0)
(0 0 -2.38561e-14)
(0 0 0)
(0 0 1.92656e-14)
(0 0 -1.69472e-14)
(0 0 -2.68936e-15)
(0 0 -2.14913e-14)
(0 0 0)
(0 0 -2.86784e-14)
(0 0 -3.15068e-14)
(0 0 -6.58428e-15)
(0 0 -2.2465e-14)
(0 0 0)
(0 0 -2.7751e-14)
(0 0 0)
(-1.48762e-21 0 0)
(0 0 0)
(0 0 0)
(0 0 0)
(0 0 0)
(0 0 0)
(0 0 0)
(0 0 0)
(0 0 0)
(0 0 -2.9212e-15)
(0 0 -3.69783e-14)
(0 0 -1.39105e-14)
(0 0 -3.28051e-14)
(0 0 0)
(0 0 -6.86325e-15)
(0 0 -4.50017e-14)
(0 0 -1.89654e-14)
(0 0 -3.50775e-14)
(0 0 0)
(0 0 0)
(0 0 0)
(0 0 0)
(0 0 0)
(0 0 0)
(0 0 0)
(0 0 0)
(0 0 0)
(0 0 0)
(0 0 0)
(0 0 0)
(0 0 0)
(0 0 0)
(0 0 0)
(0 0 0)
(0 0 0)
(0 0 0)
(0 0 0)
(0 0 0)
(0 0 0)
(0 0 0)
(0 0 0)
(0 0 0)
(0 0 2.22332e-14)
(0 0 0)
(0 0 -1.25194e-15)
(0 0 0)
(0 0 0)
(0 0 2.22332e-14)
(0 0 0)
(0 0 0)
(-4.44974e-22 0 0)
(0 0 0)
(0 0 0)
(0 0 0)
(0 0 0)
(0 0 0)
(0 0 0)
(0 0 0)
(0 0 0)
(0 0 0)
(0 0 -3.38252e-14)
(0 0 -1.11284e-14)
(0 0 -3.1785e-14)
(0 0 0)
(0 0 -1.59987e-14)
(0 0 -4.87603e-14)
(0 0 -1.64158e-14)
(0 0 -3.36866e-14)
(0 0 0)
(0 0 0)
(0 0 0)
(0 0 0)
(0 0 0)
(0 0 0)
(0 0 -1.9011e-15)
(0 0 -1.94746e-15)
(0 0 0)
(0 0 0)
(0 0 0)
(0 0 -1.99383e-15)
(0 0 -1.99383e-15)
(0 0 0)
(0 0 0)
(0 0 0)
(0 0 -1.94746e-15)
(0 0 -1.85473e-15)
(0 0 0)
(0 0 0)
(0 0 0)
(0 0 0)
(0 0 0)
(0 0 0)
(0 0 2.22332e-14)
(0 0 0)
(0 0 0)
(0 0 0)
(0 0 0)
(0 0 2.22332e-14)
(0 0 0)
(0 0 0)
(-5.46156e-23 0 0)
(0 0 0)
(0 0 0)
(0 0 0)
(0 0 -1.65763e-14)
(0 0 2.10276e-14)
(0 0 1.23685e-14)
(0 0 6.49155e-16)
(0 0 2.22332e-14)
(0 0 1.23685e-14)
(0 0 -3.89493e-15)
(0 0 7.3144e-15)
(0 0 0)
(0 0 2.22214e-14)
(0 0 -3.2157e-14)
(0 0 -2.03108e-14)
(0 0 8.14903e-15)
(0 0 0)
(0 0 2.22214e-14)
(0 0 -1.59735e-14)
(0 0 0)
(0 0 0)
(0 0 -2.29751e-14)
(0 0 -8.67085e-15)
(0 0 -3.32688e-14)
(0 0 -3.34543e-14)
(0 0 -8.20717e-15)
(0 0 -2.52471e-14)
(0 0 -9.45911e-15)
(0 0 -3.35934e-14)
(0 0 -3.3547e-14)
(0 0 -8.25354e-15)
(0 0 -2.52471e-14)
(0 0 -9.41274e-15)
(0 0 -3.35007e-14)
(0 0 -3.31297e-14)
(0 0 -7.32618e-15)
(0 0 -2.26505e-14)
(0 0 0)
(0 0 0)
(0 0 0)
(0 0 0)
(0 0 4.17314e-15)
(0 0 0)
(0 0 0)
(0 0 0)
(0 0 0)
(0 0 4.12677e-15)
(0 0 0)
(0 0 0)
(-7.52026e-36 0 0)
(0 0 0)
(0 0 0)
(0 0 0)
(0 0 0)
(0 0 0)
(0 0 0)
(0 0 0)
(0 0 0)
(0 0 0)
(0 0 -2.46443e-14)
(0 0 -2.87483e-15)
(0 0 -2.18622e-14)
(0 0 0)
(0 0 -1.01551e-14)
(0 0 -3.61907e-14)
(0 0 -7.09461e-15)
(0 0 -2.33461e-14)