/*--------------------------------*- C++ -*----------------------------------*\
  =========                 |
  \\      /  F ield         | OpenFOAM: The Open Source CFD Toolbox
   \\    /   O peration     | Website:  https://openfoam.org
    \\  /    A nd           | Version:  9
     \\/     M anipulation  |
\*---------------------------------------------------------------------------*/
FoamFile
{
    format      ascii;
    class       volScalarField;
    location    "0.004";
    object      alpha.C4;
}
// * * * * * * * * * * * * * * * * * * * * * * * * * * * * * * * * * * * * * //

dimensions      [0 0 0 0 0 0 0];

internalField   nonuniform List<scalar> 
9720
(
0.999078
0.999529
0.999634
0.999727
0.999777
0.999801
0.999819
0.999833
0.999841
0.999834
0.999814
0.99978
0.999728
0.999656
0.999556
0.999426
0.999264
0.999049
0.998819
0.998138
0.999518
0.999802
0.999849
0.999879
0.99989
0.999896
0.999904
0.99991
0.999916
0.999915
0.999911
0.9999
0.999877
0.999839
0.999783
0.999708
0.999615
0.999492
0.999361
0.998957
0.999626
0.999847
0.999877
0.999892
0.999898
0.999903
0.999911
0.999916
0.999922
0.999921
0.999917
0.99991
0.999895
0.999872
0.999836
0.999785
0.99972
0.999633
0.999541
0.999252
0.999726
0.999877
0.99989
0.999819
0.999823
0.999829
0.999843
0.999853
0.99987
0.99992
0.999917
0.999909
0.999895
0.999873
0.999841
0.999796
0.999735
0.999651
0.999562
0.999284
0.999782
0.999892
0.999899
0.999819
0.999853
0.999814
0.999802
0.999791
0.99978
0.999767
0.999749
0.999717
0.999665
0.999584
0.999494
0.999206
0.999811
0.999903
0.999909
0.999838
0.999604
0.999412
0.999404
0.999393
0.999383
0.999377
0.999376
0.999372
0.999349
0.99929
0.999212
0.998923
0.99983
0.999912
0.999919
0.999856
0.999113
0.998598
0.998587
0.99857
0.998555
0.998543
0.998544
0.998558
0.998566
0.998544
0.998487
0.99819
0.999844
0.999919
0.999925
0.999868
0.998204
0.997175
0.997193
0.997191
0.997176
0.997153
0.997129
0.997117
0.997117
0.997093
0.997033
0.996719
0.999852
0.999927
0.999934
0.99989
0.999886
0.999698
0.999329
0.998608
0.996478
0.995562
0.995417
0.995336
0.995253
0.995167
0.995084
0.995009
0.994951
0.994865
0.994742
0.994312
0.999846
0.999927
0.999934
0.999937
0.999869
0.999597
0.999029
0.998059
0.996166
0.994843
0.994039
0.993522
0.993175
0.992919
0.992682
0.992437
0.992207
0.991967
0.99171
0.991021
0.999826
0.999924
0.999932
0.999934
0.999856
0.99958
0.999007
0.998044
0.99623
0.994405
0.992952
0.991865
0.991068
0.990472
0.98994
0.989397
0.988874
0.988382
0.987935
0.98688
0.999793
0.999913
0.999925
0.999927
0.999844
0.999562
0.998978
0.998011
0.996287
0.994217
0.992178
0.990437
0.989021
0.987848
0.986787
0.985812
0.984925
0.984116
0.98342
0.981866
0.999743
0.999891
0.999912
0.999914
0.999831
0.999544
0.998947
0.997959
0.99627
0.994129
0.991724
0.98933
0.987095
0.985023
0.983112
0.981548
0.980263
0.979107
0.9781
0.975867
0.999672
0.999856
0.99989
0.999893
0.999816
0.999526
0.998913
0.997895
0.996216
0.994037
0.991431
0.988515
0.98537
0.982156
0.979124
0.97671
0.974817
0.97313
0.971651
0.968492
0.999574
0.999802
0.999856
0.999863
0.999793
0.999507
0.998878
0.997822
0.996133
0.993905
0.991143
0.987825
0.9839
0.979575
0.975267
0.971558
0.968507
0.965815
0.963593
0.959282
0.999447
0.99973
0.999809
0.99982
0.999758
0.999481
0.998847
0.997748
0.996026
0.993721
0.99079
0.987176
0.982779
0.977682
0.97213
0.966681
0.961713
0.957186
0.953664
0.947862
0.999289
0.99964
0.999747
0.999762
0.999705
0.99944
0.99881
0.997671
0.995902
0.993497
0.990383
0.986517
0.981816
0.976224
0.969667
0.96242
0.955087
0.947911
0.942354
0.934575
0.999078
0.999521
0.999664
0.999682
0.999626
0.999373
0.998746
0.997563
0.995722
0.993204
0.989914
0.985814
0.980848
0.974846
0.967479
0.958653
0.948866
0.938582
0.930424
0.919656
0.998853
0.999394
0.999576
0.999598
0.999539
0.999295
0.998665
0.997439
0.995507
0.992863
0.989416
0.985115
0.979903
0.973532
0.965579
0.955705
0.944184
0.931529
0.920811
0.906011
0.998185
0.999004
0.999303
0.999337
0.999267
0.999011
0.998342
0.997037
0.994929
0.992002
0.988202
0.983451
0.977651
0.970477
0.961504
0.950288
0.936984
0.921662
0.907285
0.883589
0.999452
0.999739
0.999802
0.99986
0.999889
0.999903
0.999912
0.99992
0.999922
0.999918
0.999906
0.999884
0.99985
0.999803
0.999737
0.999649
0.99954
0.999389
0.999223
0.998702
0.999732
0.999913
0.999943
0.999962
0.999968
0.999971
0.999973
0.999975
0.999976
0.999974
0.99997
0.999961
0.999946
0.999923
0.99989
0.999845
0.999789
0.999711
0.999626
0.999335
0.999795
0.999942
0.999965
0.999982
0.999985
0.999986
0.999986
0.999987
0.999987
0.999982
0.999975
0.999966
0.999955
0.99994
0.999917
0.999887
0.999848
0.999795
0.999736
0.999529
0.999857
0.999961
0.999981
0.999997
0.999999
0.999999
0.999999
0.999999
0.999999
0.999984
0.999969
0.999956
0.999944
0.99993
0.999911
0.999885
0.999849
0.999797
0.999738
0.999533
0.99989
0.999969
0.999985
0.999999
0.99997
0.999799
0.999793
0.999787
0.999781
0.999777
0.999771
0.999758
0.999732
0.999689
0.999634
0.999423
0.999906
0.999972
0.999986
0.999999
0.999517
0.999194
0.999202
0.999207
0.999213
0.999226
0.99925
0.999283
0.999296
0.999285
0.999248
0.999028
0.999917
0.999975
0.999988
0.999999
0.998666
0.998052
0.998065
0.998072
0.998081
0.998095
0.998124
0.998182
0.998254
0.998281
0.998271
0.998084
0.999925
0.999978
0.999989
0.999999
0.997097
0.996181
0.996238
0.996277
0.996292
0.996292
0.996295
0.996319
0.996386
0.996415
0.996402
0.996209
0.999929
0.99998
0.99999
0.999999
0.999982
0.999691
0.999087
0.997934
0.994733
0.993854
0.993863
0.993862
0.99384
0.993794
0.99374
0.993698
0.9937
0.993682
0.993611
0.993276
0.999925
0.999979
0.999986
0.999988
0.999848
0.999379
0.99844
0.996923
0.994333
0.992816
0.991993
0.991527
0.991247
0.991042
0.990836
0.990616
0.990424
0.990246
0.990042
0.989436
0.999914
0.999975
0.99998
0.999977
0.999844
0.99938
0.998461
0.997005
0.994544
0.992269
0.990623
0.989518
0.98872
0.988137
0.987614
0.987072
0.986557
0.986109
0.985719
0.984762
0.999892
0.999968
0.999973
0.999966
0.999839
0.99938
0.998463
0.997043
0.994711
0.99213
0.989768
0.987855
0.986365
0.985196
0.984115
0.983092
0.982168
0.981365
0.980727
0.979288
0.99986
0.999955
0.999964
0.999956
0.999833
0.999382
0.998464
0.997034
0.994795
0.99214
0.989306
0.98662
0.984292
0.982205
0.980209
0.978518
0.977134
0.975961
0.975039
0.972951
0.999815
0.999934
0.999951
0.999944
0.999826
0.999387
0.998467
0.997013
0.994791
0.992116
0.989046
0.985788
0.982488
0.979196
0.97605
0.973473
0.971474
0.969811
0.968425
0.965365
0.999752
0.999903
0.999931
0.999927
0.999818
0.9994
0.998479
0.996989
0.994766
0.992036
0.988777
0.985077
0.980907
0.976454
0.972067
0.968244
0.965141
0.962479
0.960278
0.955956
0.999667
0.999861
0.999903
0.999902
0.9998
0.999412
0.998509
0.996983
0.994728
0.991898
0.988437
0.984411
0.979716
0.974449
0.968844
0.963358
0.958401
0.953854
0.950278
0.94439
0.999561
0.999808
0.999868
0.99987
0.999773
0.999411
0.998535
0.996987
0.994694
0.991743
0.988076
0.98378
0.978755
0.973001
0.966429
0.959191
0.951857
0.944639
0.939032
0.93115
0.999414
0.999735
0.999819
0.999822
0.999731
0.999388
0.998531
0.996966
0.994625
0.991567
0.987726
0.983184
0.977887
0.971767
0.964389
0.955508
0.945679
0.93542
0.927369
0.916619
0.999253
0.999654
0.999766
0.999769
0.99968
0.999341
0.998501
0.996907
0.9945
0.991341
0.987374
0.982648
0.977132
0.970646
0.962616
0.952621
0.941046
0.928533
0.918141
0.90359
0.998746
0.999378
0.999576
0.999584
0.999487
0.999126
0.998282
0.996636
0.994075
0.990668
0.986406
0.981271
0.9752
0.967866
0.958731
0.947381
0.934097
0.919066
0.905224
0.882267
0.999786
0.999919
0.99994
0.999962
0.999971
0.999976
0.999978
0.99998
0.99998
0.999977
0.999971
0.999961
0.999944
0.999919
0.999882
0.999829
0.999757
0.999652
0.999531
0.999124
0.999917
0.999989
0.999995
0.999998
0.999998
0.999998
0.999999
0.999999
0.999999
0.999998
0.999997
0.999995
0.999991
0.999983
0.99997
0.999951
0.999924
0.99988
0.999827
0.999611
0.999938
0.999994
0.999998
1
1
1
1
1
1
0.999999
0.999998
0.999996
0.999993
0.999989
0.999982
0.999972
0.999958
0.999933
0.999901
0.99975
0.99996
0.999997
1
1
1
1
1
1
1
0.999985
0.999973
0.999965
0.99996
0.999957
0.999952
0.999944
0.999931
0.999908
0.999876
0.999724
0.999971
0.999998
1
1
0.999964
0.999734
0.999719
0.999712
0.99971
0.999715
0.999729
0.999742
0.999744
0.999734
0.999707
0.999548
0.999976
0.999999
1
1
0.999441
0.998948
0.998927
0.998911
0.998908
0.998921
0.998958
0.999018
0.999084
0.999119
0.999116
0.998988
0.999979
0.999999
1
1
0.998462
0.997468
0.997454
0.997434
0.997416
0.997412
0.99743
0.99749
0.997589
0.997688
0.997737
0.997655
0.999981
0.999999
1
1
0.996642
0.995232
0.995265
0.995257
0.995232
0.995193
0.995144
0.995149
0.995197
0.995272
0.995291
0.995202
0.999981
0.999999
1
1
0.999964
0.999498
0.998604
0.996913
0.993066
0.992313
0.992334
0.992343
0.992324
0.992263
0.992163
0.992058
0.992008
0.991984
0.991924
0.991665
0.999979
0.999999
0.999999
0.999987
0.999769
0.99908
0.997732
0.995639
0.992529
0.990825
0.989991
0.989579
0.989309
0.989067
0.98881
0.98854
0.988296
0.988087
0.987878
0.987311
0.999973
0.999998
0.999998
0.999978
0.999766
0.999075
0.997736
0.995694
0.99263
0.990093
0.988385
0.98726
0.986378
0.985694
0.985138
0.984632
0.984124
0.983625
0.983187
0.982207
0.999963
0.999996
0.999997
0.999973
0.999764
0.99907
0.997734
0.995725
0.992731
0.989786
0.987304
0.985257
0.983573
0.982326
0.981306
0.980399
0.979509
0.978622
0.977882
0.976371
0.999947
0.999993
0.999995
0.999969
0.999763
0.999073
0.99773
0.995721
0.992816
0.98966
0.986508
0.983567
0.981112
0.979127
0.977287
0.975661
0.974232
0.972932
0.971904
0.969779
0.999922
0.999986
0.999992
0.999966
0.999766
0.999085
0.997736
0.995707
0.99284
0.989564
0.98599
0.982416
0.979136
0.976077
0.973051
0.970381
0.968233
0.966477
0.965102
0.962153
0.999887
0.999974
0.999987
0.999962
0.999776
0.999116
0.997761
0.995698
0.992819
0.989447
0.98563
0.981607
0.977453
0.973159
0.968747
0.964756
0.961568
0.959024
0.957031
0.952964
0.999835
0.999957
0.999978
0.999955
0.999786
0.999166
0.99782
0.995712
0.992786
0.989306
0.985312
0.980961
0.976141
0.970804
0.965059
0.959523
0.954764
0.950671
0.947485
0.941829
0.999765
0.999931
0.999966
0.999945
0.999787
0.999222
0.997906
0.995766
0.992792
0.989182
0.984999
0.980351
0.975069
0.969078
0.962358
0.955297
0.948516
0.942073
0.936944
0.929032
0.999663
0.99989
0.999944
0.999925
0.999778
0.999244
0.997983
0.995826
0.992797
0.989085
0.98471
0.979761
0.974125
0.967747
0.960345
0.951853
0.942814
0.933491
0.925821
0.914784
0.999545
0.99984
0.999916
0.999897
0.999754
0.999239
0.998015
0.995829
0.99276
0.98896
0.984439
0.979261
0.973384
0.966702
0.958757
0.949214
0.938421
0.926707
0.91666
0.902026
0.99915
0.999637
0.999779
0.999762
0.999613
0.999118
0.997931
0.995732
0.992528
0.988502
0.983679
0.978071
0.971662
0.964222
0.955228
0.944247
0.931465
0.916977
0.903638
0.881324
0.999873
0.99996
0.99997
0.999981
0.999986
0.999988
0.999989
0.99999
0.999989
0.999988
0.999983
0.999976
0.999964
0.999945
0.999916
0.999872
0.999809
0.999714
0.999601
0.999214
0.99996
1
1
1
1
1
1
1
1
1
1
0.999999
0.999997
0.999994
0.999986
0.999974
0.999953
0.999917
0.99987
0.999667
0.99997
1
1
1
1
1
1
1
1
1
0.999999
0.999998
0.999997
0.999996
0.999995
0.999991
0.999983
0.999965
0.999939
0.999798
0.99998
1
1
1
1
1
1
1
1
0.999975
0.999959
0.999951
0.999947
0.999946
0.999946
0.999945
0.999939
0.999924
0.999898
0.999757
0.999986
1
1
1
0.999935
0.999568
0.999568
0.999572
0.999577
0.99959
0.999614
0.999648
0.999672
0.999672
0.999658
0.99952
0.999988
1
1
1
0.999064
0.998449
0.998448
0.998449
0.998457
0.998482
0.998534
0.998617
0.998717
0.998807
0.99884
0.998759
0.999989
1
1
1
0.997652
0.996531
0.996531
0.996527
0.996518
0.996525
0.996552
0.996622
0.996745
0.996899
0.997047
0.99703
0.99999
1
1
1
0.995289
0.993897
0.993949
0.993944
0.993923
0.993885
0.99383
0.993832
0.993872
0.993968
0.994084
0.994075
0.999989
1
1
1
0.999949
0.99925
0.997989
0.995758
0.991322
0.990662
0.990691
0.990708
0.990695
0.990642
0.990541
0.990412
0.990315
0.990283
0.990253
0.990099
0.999988
1
1
0.999982
0.999678
0.998756
0.997043
0.994465
0.990781
0.98897
0.988161
0.98777
0.987513
0.987266
0.986993
0.986688
0.986387
0.986136
0.985933
0.985455
0.999983
1
0.999999
0.99997
0.999672
0.998751
0.997055
0.994557
0.990909
0.988166
0.986462
0.985371
0.984515
0.983807
0.983204
0.982669
0.982148
0.981622
0.981174
0.980232
0.999976
0.999999
0.999999
0.999964
0.99967
0.998746
0.997054
0.994603
0.991048
0.987765
0.985241
0.98328
0.981646
0.980357
0.979307
0.97843
0.9776
0.976727
0.975952
0.974392
0.999964
0.999998
0.999998
0.999959
0.999668
0.998748
0.997048
0.994621
0.991193
0.98763
0.984331
0.981435
0.979015
0.977076
0.975353
0.973857
0.97252
0.971211
0.97009
0.967842
0.999945
0.999994
0.999997
0.999958
0.999675
0.99876
0.997052
0.994612
0.991286
0.9876
0.983764
0.98008
0.976844
0.97402
0.971295
0.968807
0.966679
0.964818
0.963334
0.960319
0.999916
0.999987
0.999996
0.999958
0.999692
0.998795
0.997074
0.9946
0.991301
0.987546
0.983424
0.979197
0.975104
0.97115
0.967086
0.963215
0.95995
0.957327
0.955375
0.951448
0.999872
0.999975
0.999992
0.999957
0.999719
0.99886
0.997131
0.99461
0.991283
0.987449
0.983169
0.978622
0.973848
0.968772
0.963231
0.957728
0.952967
0.949093
0.94625
0.940942
0.999811
0.999955
0.999985
0.999953
0.999738
0.998941
0.997234
0.994658
0.99128
0.987329
0.982911
0.978127
0.972877
0.966972
0.960237
0.953201
0.946713
0.940953
0.936478
0.928921
0.999717
0.999921
0.99997
0.99994
0.999738
0.999013
0.997362
0.994748
0.991296
0.987227
0.982635
0.977594
0.971966
0.965532
0.958053
0.949776
0.941409
0.933124
0.926213
0.915292
0.999607
0.999876
0.999947
0.999918
0.999726
0.999039
0.997481
0.994839
0.991292
0.987123
0.982378
0.977098
0.971177
0.964408
0.956493
0.947372
0.937456
0.926827
0.917444
0.902754
0.999231
0.999684
0.999819
0.999792
0.999602
0.998964
0.997459
0.994821
0.991175
0.986776
0.9817
0.975936
0.969419
0.961936
0.953143
0.942713
0.930707
0.916961
0.904042
0.881781
0.999881
0.999964
0.999973
0.999982
0.999987
0.999989
0.99999
0.99999
0.99999
0.999988
0.999984
0.999977
0.999965
0.999947
0.999919
0.999876
0.999813
0.999718
0.999605
0.999215
0.999963
1
1
1
1
1
1
1
1
1
1
0.999999
0.999998
0.999994
0.999987
0.999975
0.999955
0.999919
0.999872
0.999667
0.999972
1
1
1
1
1
1
1
1
1
0.999999
0.999998
0.999997
0.999996
0.999995
0.999991
0.999984
0.999967
0.999941
0.999798
0.999982
1
1
1
1
1
1
1
1
0.999976
0.999957
0.999946
0.999938
0.999937
0.999937
0.999937
0.999932
0.999917
0.999893
0.99975
0.999987
1
1
1
0.999917
0.999521
0.999508
0.999503
0.999501
0.999511
0.999534
0.999568
0.9996
0.999607
0.999599
0.999471
0.999989
1
1
1
0.998817
0.998124
0.998125
0.998131
0.998144
0.998176
0.998235
0.998327
0.998446
0.998566
0.998631
0.998566
0.99999
1
1
1
0.997017
0.995736
0.995763
0.995784
0.995801
0.995831
0.995886
0.995983
0.99614
0.99634
0.996568
0.996598
0.99999
1
1
1
0.994141
0.992557
0.99265
0.99271
0.992751
0.992757
0.992766
0.992799
0.992883
0.993031
0.993242
0.993344
0.99999
1
1
1
0.999945
0.99912
0.997638
0.995155
0.9899
0.989211
0.989197
0.989198
0.989218
0.989201
0.989153
0.989075
0.989007
0.98902
0.989067
0.989045
0.999988
1
1
0.999978
0.999607
0.998504
0.996572
0.993846
0.989725
0.987676
0.98674
0.986219
0.985925
0.985692
0.985446
0.985164
0.984873
0.984637
0.984487
0.984161
0.999984
1
0.999999
0.999962
0.999596
0.998497
0.996584
0.993943
0.98997
0.987019
0.985159
0.98391
0.982993
0.982261
0.981625
0.981052
0.980525
0.980016
0.979613
0.978808
0.999977
1
0.999998
0.999953
0.999592
0.998493
0.996586
0.993989
0.990201
0.986658
0.983999
0.981981
0.98032
0.978926
0.977749
0.976797
0.975981
0.975157
0.974424
0.972947
0.999965
0.999998
0.999998
0.999948
0.999591
0.998498
0.996586
0.994007
0.990403
0.986673
0.983242
0.980323
0.977838
0.975738
0.973899
0.972381
0.971083
0.969809
0.968673
0.966404
0.999947
0.999994
0.999997
0.999948
0.9996
0.998518
0.996594
0.993996
0.990526
0.98672
0.982798
0.97904
0.975691
0.972792
0.970084
0.967637
0.965493
0.963549
0.961965
0.95888
0.999919
0.999988
0.999996
0.999949
0.99962
0.998561
0.996623
0.993978
0.990569
0.986707
0.982509
0.978174
0.974002
0.970102
0.966166
0.962314
0.958892
0.956057
0.954032
0.950144
0.999876
0.999976
0.999992
0.999949
0.999651
0.998634
0.996687
0.993987
0.990553
0.986635
0.982279
0.977641
0.97286
0.967895
0.962454
0.956849
0.95182
0.947819
0.945107
0.940051
0.999815
0.999957
0.999986
0.999946
0.999678
0.998731
0.996802
0.994033
0.99053
0.986509
0.982036
0.977217
0.972013
0.966183
0.959405
0.952148
0.945478
0.939921
0.935865
0.928698
0.999721
0.999923
0.999971
0.999933
0.999684
0.998827
0.996957
0.994132
0.99054
0.986379
0.981748
0.976725
0.971168
0.964734
0.957104
0.948681
0.94044
0.932717
0.92641
0.915757
0.999612
0.999878
0.999948
0.999912
0.999677
0.998875
0.997127
0.994272
0.990547
0.986267
0.981484
0.976234
0.970364
0.963546
0.955521
0.946444
0.936901
0.926976
0.918173
0.903507
0.999235
0.999685
0.999818
0.999783
0.999561
0.99881
0.997129
0.994291
0.990471
0.985951
0.980822
0.97506
0.968532
0.96099
0.952221
0.942044
0.930519
0.917275
0.904619
0.882149
0.999881
0.999964
0.999973
0.999982
0.999987
0.999989
0.99999
0.99999
0.99999
0.999988
0.999984
0.999977
0.999965
0.999947
0.999919
0.999876
0.999813
0.999717
0.999604
0.999213
0.999963
1
1
1
1
1
1
1
1
1
1
1
0.999998
0.999994
0.999987
0.999975
0.999955
0.999919
0.999871
0.999664
0.999972
1
1
1
1
1
1
1
1
1
0.999999
0.999998
0.999997
0.999996
0.999995
0.999991
0.999983
0.999967
0.99994
0.999796
0.999982
1
1
1
1
1
1
1
0.999999
0.999975
0.999957
0.999946
0.999938
0.999936
0.999936
0.999934
0.999929
0.999915
0.999889
0.999744
0.999987
1
1
1
0.999928
0.99951
0.999496
0.99949
0.999486
0.999496
0.999517
0.99955
0.999582
0.999591
0.999584
0.999455
0.999989
1
1
1
0.998736
0.998049
0.99805
0.998055
0.998067
0.998099
0.99816
0.998255
0.998378
0.998505
0.998579
0.998516
0.99999
1
1
1
0.996635
0.995504
0.995537
0.995563
0.995585
0.995621
0.995685
0.995794
0.995965
0.996183
0.996434
0.996481
0.99999
1
1
1
0.99334
0.992065
0.992177
0.992259
0.992316
0.992345
0.992376
0.992435
0.992549
0.992725
0.992967
0.993119
0.99999
1
1
1
0.999903
0.998877
0.99722
0.994585
0.989153
0.98866
0.988582
0.98859
0.988625
0.988618
0.988591
0.988534
0.988522
0.988554
0.988643
0.988667
0.999988
1
1
0.999972
0.999536
0.998336
0.996298
0.993541
0.9894
0.987234
0.986179
0.985582
0.985256
0.985015
0.984778
0.984513
0.984252
0.98404
0.983918
0.98365
0.999984
1
0.999999
0.999955
0.999537
0.998346
0.996333
0.993659
0.989694
0.986687
0.984719
0.983341
0.982331
0.981558
0.980905
0.980331
0.979813
0.979318
0.978934
0.978183
0.999977
1
0.999998
0.999946
0.999541
0.998358
0.996358
0.993719
0.989949
0.986417
0.983672
0.981519
0.979728
0.978231
0.976983
0.975992
0.975163
0.974343
0.973622
0.972184
0.999965
0.999998
0.999997
0.999941
0.999548
0.998375
0.996375
0.993759
0.990164
0.986445
0.982985
0.979968
0.977343
0.97507
0.973077
0.971459
0.970124
0.968853
0.967728
0.965479
0.999947
0.999994
0.999997
0.999942
0.999562
0.998407
0.9964
0.993753
0.990289
0.986496
0.982572
0.978764
0.975279
0.972164
0.969233
0.966624
0.964414
0.962464
0.960881
0.957791
0.999919
0.999987
0.999995
0.999943
0.999587
0.998464
0.996444
0.993749
0.99033
0.986477
0.982285
0.977918
0.973617
0.969488
0.965301
0.961258
0.957743
0.954874
0.952829
0.948906
0.999876
0.999976
0.999992
0.999944
0.999623
0.998549
0.996524
0.993765
0.990313
0.986398
0.982043
0.977366
0.972456
0.96728
0.961609
0.955822
0.950671
0.946584
0.943818
0.938714
0.999815
0.999957
0.999985
0.999941
0.999655
0.998657
0.996654
0.993822
0.990293
0.986267
0.981789
0.976916
0.971583
0.965572
0.958603
0.951178
0.944349
0.938674
0.934586
0.927399
0.999722
0.999923
0.99997
0.999929
0.999663
0.998764
0.996826
0.993933
0.990307
0.986133
0.981489
0.976398
0.97072
0.964131
0.956339
0.947745
0.939338
0.931551
0.925235
0.914525
0.999613
0.999878
0.999947
0.999907
0.999656
0.998819
0.997014
0.994094
0.990323
0.986019
0.981213
0.975887
0.969901
0.962948
0.954769
0.945514
0.935835
0.925868
0.917024
0.902264
0.999236
0.999684
0.999815
0.999776
0.99954
0.998756
0.997023
0.994129
0.990259
0.985705
0.980536
0.974688
0.96805
0.960386
0.951465
0.941115
0.929484
0.916162
0.903409
0.880837
0.999874
0.999961
0.999971
0.999981
0.999986
0.999988
0.999989
0.99999
0.999989
0.999988
0.999983
0.999976
0.999964
0.999945
0.999915
0.999871
0.999808
0.999711
0.999597
0.999202
0.99996
1
1
1
1
1
1
1
1
1
1
0.999999
0.999997
0.999993
0.999986
0.999973
0.999952
0.999915
0.999867
0.999657
0.99997
1
1
1
1
1
1
1
1
1
0.999999
0.999998
0.999998
0.999996
0.999994
0.99999
0.999982
0.999964
0.999937
0.99979
0.99998
1
1
1
1
1
1
1
1
0.999978
0.999961
0.999952
0.999945
0.999944
0.999942
0.99994
0.999934
0.999918
0.999892
0.999744
0.999986
1
1
1
0.999923
0.99955
0.999541
0.999539
0.999538
0.999547
0.999569
0.999601
0.999631
0.999635
0.999623
0.999483
0.999988
1
1
1
0.998763
0.998232
0.998231
0.998233
0.998242
0.998271
0.998328
0.99842
0.998537
0.998652
0.998707
0.998632
0.999989
1
1
1
0.996767
0.995913
0.995924
0.995929
0.995936
0.995957
0.996008
0.996109
0.996273
0.996477
0.996696
0.99671
0.99999
1
1
1
0.993567
0.992682
0.992756
0.992797
0.992821
0.992816
0.992823
0.99286
0.992959
0.993122
0.99334
0.993431
0.999989
1
1
1
0.999932
0.998962
0.997304
0.994617
0.989369
0.989092
0.989088
0.989093
0.989123
0.989105
0.989054
0.988966
0.988946
0.988976
0.989036
0.989016
0.999987
1
1
0.999981
0.999625
0.998515
0.996534
0.993755
0.989678
0.987525
0.986508
0.985958
0.985638
0.985385
0.985134
0.984862
0.984609
0.984416
0.984277
0.98395
0.999983
1
0.999999
0.999966
0.999611
0.998511
0.99656
0.993871
0.989934
0.986941
0.984966
0.983569
0.982505
0.981709
0.981079
0.980546
0.980047
0.97956
0.979158
0.978345
0.999976
0.999999
0.999998
0.999957
0.999605
0.998511
0.996577
0.993934
0.990174
0.986644
0.983854
0.981586
0.979686
0.978179
0.976981
0.976032
0.975192
0.974345
0.973604
0.97214
0.999964
0.999997
0.999998
0.999951
0.999605
0.99852
0.996591
0.993976
0.99038
0.986654
0.983108
0.979947
0.977225
0.974927
0.972911
0.971244
0.969855
0.968559
0.967453
0.96525
0.999945
0.999994
0.999997
0.99995
0.999614
0.998547
0.996615
0.993977
0.990496
0.986662
0.982669
0.978776
0.975212
0.971973
0.968864
0.966104
0.96385
0.961953
0.960453
0.957436
0.999916
0.999987
0.999995
0.99995
0.999636
0.998599
0.996661
0.993983
0.990521
0.986626
0.982377
0.977962
0.973556
0.96919
0.96471
0.960505
0.957039
0.954319
0.952327
0.948363
0.999872
0.999974
0.999991
0.999949
0.999668
0.998681
0.996745
0.994009
0.990508
0.986537
0.982135
0.977395
0.972323
0.96687
0.960937
0.955095
0.950081
0.946055
0.943134
0.937739
0.99981
0.999954
0.999984
0.999945
0.999695
0.998783
0.996879
0.99408
0.990515
0.986421
0.981875
0.976889
0.971357
0.965115
0.958022
0.950656
0.943894
0.93795
0.933355
0.925626
0.999716
0.999919
0.999968
0.999931
0.999697
0.998879
0.997044
0.994196
0.990549
0.986321
0.981584
0.976335
0.970451
0.963711
0.955897
0.947301
0.938663
0.930161
0.923075
0.911862
0.999606
0.999874
0.999944
0.999908
0.999687
0.99892
0.997212
0.99435
0.990569
0.986219
0.981308
0.975813
0.969648
0.962595
0.954368
0.944941
0.934731
0.923802
0.914154
0.899094
0.999227
0.999677
0.99981
0.999776
0.99956
0.998849
0.997207
0.994369
0.990499
0.985894
0.980614
0.974618
0.967859
0.960119
0.951053
0.940333
0.927976
0.913769
0.900459
0.87777
0.999788
0.999921
0.999941
0.999962
0.999972
0.999976
0.999979
0.999981
0.99998
0.999978
0.999972
0.999961
0.999944
0.999919
0.999881
0.999828
0.999755
0.999647
0.999523
0.999103
0.999917
0.999989
0.999995
0.999998
0.999998
0.999999
0.999999
0.999999
0.999999
0.999998
0.999998
0.999996
0.999991
0.999983
0.99997
0.99995
0.999922
0.999877
0.999821
0.999594
0.999938
0.999995
0.999998
1
1
1
1
1
1
0.999999
0.999998
0.999996
0.999993
0.999989
0.999982
0.999972
0.999957
0.999931
0.999897
0.999737
0.99996
0.999997
1
1
1
1
1
1
1
0.999985
0.999973
0.999965
0.999959
0.999954
0.999949
0.99994
0.999926
0.999902
0.999868
0.999707
0.99997
0.999998
1
1
0.999943
0.999683
0.999675
0.99967
0.999667
0.999673
0.999686
0.9997
0.999704
0.999695
0.99967
0.999506
0.999975
0.999998
1
1
0.999035
0.998684
0.998676
0.998669
0.998675
0.998695
0.998741
0.998813
0.998896
0.998961
0.998969
0.998852
0.999978
0.999999
1
1
0.997407
0.996807
0.996805
0.996798
0.996794
0.996806
0.996845
0.996937
0.997075
0.997221
0.997334
0.997277
0.99998
0.999999
1
1
0.994622
0.994011
0.994056
0.994084
0.994079
0.994062
0.994064
0.994094
0.994184
0.994314
0.994425
0.994389
0.99998
0.999999
1
1
0.999945
0.999183
0.997765
0.99528
0.990578
0.990653
0.990647
0.990645
0.990635
0.990597
0.990527
0.990436
0.990436
0.990463
0.990457
0.990309
0.999978
0.999999
0.999999
0.999984
0.999713
0.998868
0.997259
0.994808
0.991107
0.989032
0.988037
0.987538
0.987218
0.986948
0.986677
0.986402
0.986177
0.986013
0.985849
0.985386
0.999972
0.999998
0.999998
0.999974
0.999711
0.998865
0.99727
0.99489
0.991289
0.98834
0.986352
0.985022
0.983977
0.983184
0.982567
0.982033
0.98152
0.981045
0.980643
0.979743
0.999962
0.999996
0.999997
0.999967
0.99971
0.998863
0.99727
0.994943
0.991478
0.988058
0.985212
0.98288
0.980973
0.979555
0.978415
0.977433
0.976508
0.975622
0.974903
0.973443
0.999945
0.999992
0.999994
0.999962
0.999709
0.998868
0.997272
0.994943
0.991625
0.988029
0.984447
0.981169
0.978453
0.97624
0.974211
0.972455
0.97096
0.969638
0.968611
0.966498
0.999921
0.999985
0.999991
0.999959
0.999714
0.998887
0.997284
0.994932
0.99168
0.987989
0.984012
0.980082
0.976492
0.97315
0.969882
0.967039
0.964793
0.962988
0.961596
0.958624
0.999885
0.999973
0.999985
0.999954
0.999725
0.998926
0.997318
0.994932
0.991661
0.987903
0.983716
0.979328
0.974821
0.970197
0.96551
0.961325
0.958021
0.955423
0.953409
0.949286
0.999833
0.999955
0.999976
0.999947
0.999739
0.998987
0.997392
0.994952
0.991642
0.987783
0.983436
0.978713
0.973511
0.967817
0.96178
0.956044
0.951175
0.94704
0.943821
0.938034
0.999762
0.999928
0.999963
0.999936
0.999743
0.999057
0.997499
0.995017
0.991658
0.987669
0.98313
0.978108
0.972448
0.966098
0.95907
0.951795
0.94491
0.938414
0.933178
0.924993
0.999658
0.999886
0.99994
0.999915
0.999736
0.999103
0.997609
0.995105
0.991678
0.987571
0.982821
0.977502
0.971515
0.964791
0.957077
0.948357
0.939175
0.92968
0.921801
0.910385
0.999539
0.999833
0.999909
0.999885
0.999713
0.999103
0.997678
0.995146
0.991652
0.987441
0.982525
0.976974
0.970761
0.963754
0.955511
0.945723
0.934683
0.922647
0.912309
0.897233
0.999136
0.999622
0.999764
0.999741
0.999566
0.998989
0.997609
0.995081
0.991457
0.986989
0.981738
0.975748
0.969008
0.961265
0.951997
0.940732
0.927558
0.91258
0.898841
0.875982
0.999461
0.999746
0.999807
0.999864
0.999893
0.999907
0.999917
0.999924
0.999925
0.999921
0.999909
0.999886
0.999853
0.999805
0.999738
0.99965
0.999538
0.999385
0.999215
0.99868
0.999733
0.999915
0.999944
0.999963
0.99997
0.999972
0.999974
0.999977
0.999977
0.999975
0.999971
0.999962
0.999947
0.999924
0.99989
0.999844
0.999787
0.999708
0.999619
0.999316
0.999794
0.999942
0.999966
0.999982
0.999985
0.999986
0.999987
0.999988
0.999988
0.999983
0.999976
0.999967
0.999957
0.999941
0.999918
0.999886
0.999846
0.99979
0.999729
0.99951
0.999853
0.99996
0.99998
1
1
1
1
1
1
0.999985
0.999971
0.999958
0.999945
0.99993
0.999911
0.999883
0.999845
0.99979
0.999729
0.999511
0.999886
0.999967
0.999984
1
0.999968
0.999813
0.999802
0.999791
0.999781
0.999773
0.999764
0.999748
0.999718
0.99967
0.999611
0.999388
0.999902
0.99997
0.999985
1
0.999381
0.99918
0.999174
0.999166
0.99916
0.999165
0.999183
0.999211
0.999223
0.999212
0.999175
0.998948
0.999913
0.999973
0.999987
1
0.9982
0.997869
0.99788
0.997878
0.997874
0.997877
0.997895
0.997949
0.99802
0.998055
0.998049
0.997862
0.999921
0.999976
0.999988
1
0.995992
0.995682
0.995773
0.99584
0.995839
0.995829
0.995816
0.995832
0.995891
0.995919
0.995906
0.995708
0.999926
0.999979
0.999989
1
0.999964
0.999427
0.998453
0.996636
0.992746
0.99294
0.992988
0.993037
0.993023
0.992982
0.992924
0.992873
0.992867
0.992841
0.992756
0.992397
0.999922
0.999977
0.999985
0.999986
0.99982
0.999271
0.998179
0.996414
0.993463
0.991719
0.990793
0.990322
0.990058
0.989862
0.989644
0.9894
0.989191
0.989005
0.988788
0.988147
0.99991
0.999974
0.999979
0.999973
0.999811
0.999263
0.998176
0.996461
0.993649
0.991079
0.989198
0.987995
0.987158
0.986551
0.985995
0.985411
0.984868
0.984421
0.984039
0.983062
0.999889
0.999966
0.999971
0.999961
0.999803
0.999254
0.998164
0.996456
0.993771
0.990814
0.988153
0.986045
0.984444
0.983224
0.982092
0.98102
0.98007
0.979272
0.978658
0.977213
0.999856
0.999952
0.999961
0.999949
0.999794
0.999248
0.99815
0.99643
0.993812
0.990764
0.98757
0.984597
0.982096
0.979899
0.977815
0.976081
0.974684
0.973525
0.972641
0.970553
0.999811
0.99993
0.999947
0.999936
0.999786
0.99925
0.998137
0.99639
0.993782
0.990702
0.987242
0.983645
0.980087
0.9766
0.973336
0.970734
0.968751
0.967129
0.965782
0.962684
0.999747
0.999899
0.999926
0.999918
0.999778
0.999261
0.998146
0.996348
0.993722
0.990581
0.98692
0.982841
0.97833
0.973615
0.969101
0.965261
0.962195
0.959583
0.957395
0.952973
0.999662
0.999856
0.999897
0.999893
0.999763
0.99928
0.998177
0.996336
0.993668
0.990408
0.986526
0.982091
0.977011
0.971448
0.965687
0.960155
0.955218
0.95069
0.947102
0.941076
0.999555
0.999802
0.999861
0.999859
0.999737
0.999285
0.998216
0.996348
0.993637
0.990236
0.986119
0.981393
0.975976
0.969922
0.963158
0.955808
0.948414
0.941153
0.935549
0.927559
0.999407
0.999728
0.99981
0.999809
0.999695
0.99927
0.998222
0.996337
0.993575
0.990053
0.985741
0.980761
0.975082
0.96867
0.961059
0.951962
0.941955
0.93162
0.923591
0.912763
0.999243
0.999645
0.999754
0.999753
0.999642
0.99923
0.998206
0.99629
0.993455
0.989823
0.985379
0.980219
0.974336
0.967556
0.959247
0.948947
0.937126
0.924511
0.914139
0.899507
0.998728
0.999359
0.999552
0.999554
0.999439
0.999013
0.998002
0.996042
0.993044
0.989152
0.984412
0.978853
0.972422
0.964766
0.955285
0.943559
0.929999
0.91484
0.900967
0.877809
0.999094
0.999542
0.999645
0.999737
0.999786
0.99981
0.999828
0.999843
0.999848
0.999841
0.999821
0.999786
0.999734
0.999661
0.99956
0.999428
0.999265
0.999047
0.998814
0.998119
0.999521
0.999806
0.999853
0.999883
0.999895