/*--------------------------------*- C++ -*----------------------------------*\
  =========                 |
  \\      /  F ield         | OpenFOAM: The Open Source CFD Toolbox
   \\    /   O peration     | Website:  https://openfoam.org
    \\  /    A nd           | Version:  9
     \\/     M anipulation  |
\*---------------------------------------------------------------------------*/
FoamFile
{
    format      ascii;
    class       volScalarField;
    location    "0.004";
    object      p;
}
// * * * * * * * * * * * * * * * * * * * * * * * * * * * * * * * * * * * * * //

dimensions      [1 -1 -2 0 0 0 0];

internalField   nonuniform List<scalar> 
9720
(
1.11484e+07
1.25427e+07
1.32211e+07
1.27413e+07
1.20498e+07
1.14537e+07
1.0463e+07
9.02734e+06
7.31486e+06
5.93833e+06
4.89187e+06
4.24656e+06
3.82225e+06
3.53466e+06
3.3392e+06
3.17176e+06
3.02055e+06
2.87497e+06
2.75167e+06
2.52208e+06
1.24903e+07
1.39107e+07
1.45606e+07
1.28191e+07
1.18998e+07
1.17385e+07
1.09451e+07
8.92581e+06
6.1974e+06
4.31468e+06
3.27878e+06
2.97797e+06
2.84735e+06
2.73344e+06
2.64165e+06
2.54613e+06
2.44508e+06
2.33428e+06
2.23712e+06
2.05485e+06
1.31013e+07
1.44542e+07
1.49433e+07
1.13119e+07
1.06918e+07
1.1756e+07
1.1479e+07
9.0081e+06
5.19494e+06
2.98301e+06
2.21813e+06
2.28824e+06
2.43897e+06
2.5891e+06
2.66565e+06
2.64739e+06
2.58142e+06
2.47725e+06
2.369e+06
2.16805e+06
1.26647e+07
1.27571e+07
1.1266e+07
9.20242e+06
9.0014e+06
1.21572e+07
1.28469e+07
1.09855e+07
5.30365e+06
1.37446e+06
1.43514e+06
1.64662e+06
1.99872e+06
2.3206e+06
2.52719e+06
2.59607e+06
2.5772e+06
2.5262e+06
2.45512e+06
2.28433e+06
1.19495e+07
1.17517e+07
1.04836e+07
8.93802e+06
1.0943e+06
1.19236e+06
1.30318e+06
1.49055e+06
1.80856e+06
2.2371e+06
2.65238e+06
2.83421e+06
2.81761e+06
2.75147e+06
2.65536e+06
2.44092e+06
1.13058e+07
1.15029e+07
1.14591e+07
1.18761e+07
1.48707e+06
1.56596e+06
1.58943e+06
1.653e+06
1.79439e+06
2.10374e+06
2.53563e+06
2.81289e+06
2.83146e+06
2.79604e+06
2.71967e+06
2.51466e+06
1.02751e+07
1.06565e+07
1.11317e+07
1.2479e+07
1.77718e+06
1.79075e+06
1.75383e+06
1.75512e+06
1.79138e+06
1.91404e+06
2.19429e+06
2.55027e+06
2.78334e+06
2.84738e+06
2.83157e+06
2.67626e+06
8.85281e+06
8.68708e+06
8.68879e+06
1.05803e+07
1.85605e+06
1.43589e+06
1.50575e+06
1.55824e+06
1.62887e+06
1.72583e+06
1.89238e+06
2.18591e+06
2.51105e+06
2.73636e+06
2.83956e+06
2.78228e+06
7.16049e+06
6.01342e+06
4.99894e+06
4.88332e+06
1.07254e+06
1.50041e+06
1.81962e+06
1.8422e+06
280118
432285
656983
864406
1.03124e+06
1.17382e+06
1.34084e+06
1.57017e+06
1.87481e+06
2.16836e+06
2.43207e+06
2.53872e+06
5.80845e+06
4.19796e+06
2.9075e+06
1.37321e+06
1.19981e+06
1.58594e+06
1.8041e+06
1.45096e+06
481083
247060
293945
430185
608271
777719
933806
1.12056e+06
1.3725e+06
1.65859e+06
1.94206e+06
2.22141e+06
4.77953e+06
3.20774e+06
2.18495e+06
1.44306e+06
1.32356e+06
1.60738e+06
1.76937e+06
1.5231e+06
721768
314850
248190
269563
355419
494329
643455
799839
1.00375e+06
1.25842e+06
1.5184e+06
1.8755e+06
4.14346e+06
2.91245e+06
2.24807e+06
1.6492e+06
1.51509e+06
1.67075e+06
1.77325e+06
1.57667e+06
924669
473446
283921
269332
287204
351929
463681
598609
765663
974960
1.19317e+06
1.55031e+06
3.7245e+06
2.77821e+06
2.38927e+06
1.97362e+06
1.82363e+06
1.81362e+06
1.81331e+06
1.6492e+06
1.0842e+06
660640
388135
295340
296909
321712
384209
477824
603561
767024
946146
1.27738e+06
3.44496e+06
2.66358e+06
2.52999e+06
2.26765e+06
2.22513e+06
2.11853e+06
1.93923e+06
1.74963e+06
1.22507e+06
832446
536835
373222
329889
337682
366076
416903
504239
633221
778209
1.06692e+06
3.25774e+06
2.57595e+06
2.60539e+06
2.46851e+06
2.61096e+06
2.51698e+06
2.21118e+06
1.92035e+06
1.39437e+06
990822
690793
495909
405498
375619
381597
406789
448760
526856
638920
899447
3.09868e+06
2.48587e+06
2.58856e+06
2.54497e+06
2.79213e+06
2.78091e+06
2.54248e+06
2.21076e+06
1.62446e+06
1.18266e+06
855468
641907
511696
441654
415534
418504
437111
484625
572539
787203
2.95565e+06
2.38986e+06
2.52583e+06
2.53185e+06
2.77931e+06
2.80895e+06
2.76798e+06
2.51852e+06
1.92084e+06
1.43665e+06
1.06811e+06
821362
650871
542358
473786
446533
450684
490435
556542
709117
2.81776e+06
2.28466e+06
2.42705e+06
2.48859e+06
2.71874e+06
2.77692e+06
2.83857e+06
2.7419e+06
2.20388e+06
1.71772e+06
1.32565e+06
1.04079e+06
825501
682083
569220
506867
505442
527290
563394
663228
2.70114e+06
2.19346e+06
2.32533e+06
2.42394e+06
2.62742e+06
2.70559e+06
2.82382e+06
2.84353e+06
2.46235e+06
1.99741e+06
1.58644e+06
1.26466e+06
1.01057e+06
834292
691504
611564
580888
575750
585665
649115
2.48214e+06
2.02113e+06
2.13512e+06
2.26203e+06
2.41997e+06
2.50912e+06
2.67296e+06
2.78452e+06
2.5631e+06
2.27049e+06
1.94151e+06
1.62408e+06
1.34717e+06
1.13174e+06
962911
845611
751910
694687
664010
669952
1.04181e+07
1.1756e+07
1.24089e+07
1.16733e+07
1.09825e+07
1.0499e+07
9.60957e+06
8.29196e+06
6.68432e+06
5.40998e+06
4.42498e+06
3.83129e+06
3.44072e+06
3.17894e+06
3.0077e+06
2.85704e+06
2.71437e+06
2.57886e+06
2.46587e+06
2.25544e+06
1.17119e+07
1.30397e+07
1.35963e+07
1.15626e+07
1.07255e+07
1.08628e+07
1.01571e+07
8.26079e+06
5.7084e+06
3.96031e+06
2.95861e+06
2.66947e+06
2.55886e+06
2.46368e+06
2.39185e+06
2.31044e+06
2.21514e+06
2.10908e+06
2.01726e+06
1.84723e+06
1.23306e+07
1.35154e+07
1.34578e+07
1.00123e+07
9.87731e+06
1.10611e+07
1.07755e+07
8.43655e+06
4.84595e+06
2.76426e+06
1.99848e+06
2.04154e+06
2.16912e+06
2.31265e+06
2.41424e+06
2.4115e+06
2.36093e+06
2.26847e+06
2.16947e+06
1.9825e+06
1.1706e+07
1.16147e+07
9.96443e+06
8.1702e+06
8.70599e+06
1.15906e+07
1.21171e+07
1.03147e+07
4.9888e+06
1.28339e+06
1.3179e+06
1.47825e+06
1.76127e+06
2.06474e+06
2.27443e+06
2.36639e+06
2.35609e+06
2.31759e+06
2.25968e+06
2.1064e+06
1.09706e+07
1.0636e+07
9.55615e+06
8.11572e+06
980907
1.10076e+06
1.20048e+06
1.35693e+06
1.60692e+06
1.97273e+06
2.3515e+06
2.59469e+06
2.60056e+06
2.56036e+06
2.48299e+06
2.28183e+06
1.03877e+07
1.06484e+07
1.07563e+07
1.13221e+07
1.38878e+06
1.46306e+06
1.47568e+06
1.51989e+06
1.62351e+06
1.85276e+06
2.23273e+06
2.54258e+06
2.62152e+06
2.60318e+06
2.54492e+06
2.35391e+06
9.43161e+06
9.8972e+06
1.05032e+07
1.18538e+07
1.67612e+06
1.68017e+06
1.62593e+06
1.60066e+06
1.61956e+06
1.69817e+06
1.90818e+06
2.23543e+06
2.48236e+06
2.60589e+06
2.60607e+06
2.48441e+06
8.09259e+06
8.00437e+06
8.15993e+06
9.99591e+06
1.73776e+06
1.32719e+06
1.38188e+06
1.4147e+06
1.4585e+06
1.52583e+06
1.6472e+06
1.88143e+06
2.18321e+06
2.41643e+06
2.56634e+06
2.53568e+06
6.49044e+06
5.48975e+06
4.64932e+06
4.74091e+06
959291
1.37615e+06
1.68447e+06
1.67122e+06
262167
392498
591793
768848
908235
1.0234e+06
1.15778e+06
1.34415e+06
1.60202e+06
1.86942e+06
2.12462e+06
2.27562e+06
5.24022e+06
3.79095e+06
2.63901e+06
1.25875e+06
1.09338e+06
1.46325e+06
1.6707e+06
1.30482e+06
424783
211014
252538
366997
521719
671971
802927
951274
1.1527e+06
1.39992e+06
1.65948e+06
1.95471e+06
4.28417e+06
2.83863e+06
1.91558e+06
1.29097e+06
1.19245e+06
1.47584e+06
1.61997e+06
1.36969e+06
633017
264705
205293
222562
297095
417816
541889
665654
827798
1.046e+06
1.28379e+06
1.63378e+06
3.71145e+06
2.57462e+06
1.96202e+06
1.44225e+06
1.34816e+06
1.52213e+06
1.60794e+06
1.41074e+06
807400
395428
231120
222023
236210
287354
375023
483075
624666
810914
1.00905e+06
1.34265e+06
3.3342e+06
2.4761e+06
2.09831e+06
1.7127e+06
1.59826e+06
1.63061e+06
1.6315e+06
1.4628e+06
944675
561481
322556
243921
243222
258594
303954
387182
501951
648350
803385
1.09783e+06
3.08471e+06
2.38806e+06
2.24827e+06
2.00245e+06
1.95991e+06
1.87073e+06
1.71995e+06
1.54118e+06
1.06373e+06
720110
458111
309536
266130
270880
301678
352724
429466
536455
657771
909143
2.92363e+06
2.32413e+06
2.3568e+06
2.21471e+06
2.32993e+06
2.24177e+06
1.93948e+06
1.6758e+06
1.20656e+06
859307
593754
412248
326514
310723
321576
344713
377701
438293
530613
759555
2.78301e+06
2.24991e+06
2.35708e+06
2.32339e+06
2.56567e+06
2.53654e+06
2.261e+06
1.92167e+06
1.40217e+06
1.01843e+06
730423
534416
423546
377343
356491
351544
360444
395046
465120
662154
2.64966e+06
2.15986e+06
2.309e+06
2.31853e+06
2.56794e+06
2.60891e+06
2.49986e+06
2.21902e+06
1.66352e+06
1.22985e+06
905259
690009
552915
469949
407072
370516
370459
399095
459463
607447
2.52245e+06
2.05929e+06
2.22053e+06
2.28682e+06
2.52694e+06
2.5907e+06
2.62036e+06
2.45119e+06
1.9269e+06
1.47967e+06
1.13087e+06
888262
713830
591529
486972
418933
414184
433441
471729
573159
2.41659e+06
1.97375e+06
2.12707e+06
2.2334e+06
2.45028e+06
2.5339e+06
2.61945e+06
2.59387e+06
2.18111e+06
1.7388e+06
1.37096e+06
1.09469e+06
879928
724104
590904
506511
482716
484886
499481
560370
2.21701e+06
1.81382e+06
1.94965e+06
2.08545e+06
2.25323e+06
2.34552e+06
2.49392e+06
2.55939e+06
2.32146e+06
2.02461e+06
1.7177e+06
1.43344e+06
1.18557e+06
988099
830962
722728
649902
605523
576843
578569
1.01673e+07
1.14544e+07
1.20553e+07
1.11224e+07
1.03683e+07
9.97809e+06
9.15518e+06
7.87816e+06
6.34362e+06
5.13307e+06
4.19294e+06
3.63476e+06
3.27429e+06
3.03301e+06
2.87621e+06
2.73547e+06
2.60103e+06
2.47043e+06
2.36038e+06
2.15458e+06
1.1438e+07
1.26984e+07
1.316e+07
1.07846e+07
9.92896e+06
1.03002e+07
9.66793e+06
7.82902e+06
5.4145e+06
3.77095e+06
2.80062e+06
2.52527e+06
2.43875e+06
2.36665e+06
2.30986e+06
2.23704e+06
2.14565e+06
2.04026e+06
1.9476e+06
1.77774e+06
1.20237e+07
1.31259e+07
1.21464e+07
9.02779e+06
9.28681e+06
1.05393e+07
1.0261e+07
7.98137e+06
4.59368e+06
2.67462e+06
1.91954e+06
1.94358e+06
2.05622e+06
2.18784e+06
2.3056e+06
2.32701e+06
2.28935e+06
2.20797e+06
2.11379e+06
1.93048e+06
1.1147e+07
1.07314e+07
8.89394e+06
7.19438e+06
8.23753e+06
1.10857e+07
1.15524e+07
9.74506e+06
4.60713e+06
1.24702e+06
1.28127e+06
1.42383e+06
1.68372e+06
1.99641e+06
2.21708e+06
2.31121e+06
2.30018e+06
2.25975e+06
2.2015e+06
2.04903e+06
1.03688e+07
9.80286e+06
8.9452e+06
7.60572e+06
861772
1.01522e+06
1.11778e+06
1.27165e+06
1.49938e+06
1.84147e+06
2.20623e+06
2.49936e+06
2.54532e+06
2.51743e+06
2.44886e+06
2.24944e+06
9.90847e+06
1.01289e+07
1.02794e+07
1.08439e+07
1.27409e+06
1.35553e+06
1.36824e+06
1.41273e+06
1.5084e+06
1.69764e+06
2.05298e+06
2.42193e+06
2.58395e+06
2.57285e+06
2.51813e+06
2.3245e+06
9.03108e+06
9.49296e+06
1.00817e+07
1.13445e+07
1.57771e+06
1.56661e+06
1.51628e+06
1.4956e+06
1.51211e+06
1.57537e+06
1.74068e+06
2.05542e+06
2.35106e+06
2.5193e+06
2.5317e+06
2.42906e+06
7.71684e+06
7.63974e+06
7.82682e+06
9.55112e+06
1.60438e+06
1.2152e+06
1.26818e+06
1.3067e+06
1.34957e+06
1.41358e+06
1.51564e+06
1.70296e+06
1.98874e+06
2.25458e+06
2.45282e+06
2.44036e+06
6.16749e+06
5.22975e+06
4.44284e+06
4.47506e+06
866202
1.28156e+06
1.58153e+06
1.57059e+06
240753
360514
543913
703615
835765
943782
1.05841e+06
1.21179e+06
1.43476e+06
1.70073e+06
1.96002e+06
2.15308e+06
4.96795e+06
3.59626e+06
2.50808e+06
1.15743e+06
989179
1.35412e+06
1.57781e+06
1.20807e+06
371336
184096
220988
325305
470055
613668
737285
861031
1.0296e+06
1.25718e+06
1.50291e+06
1.81556e+06
4.04465e+06
2.6546e+06
1.77835e+06
1.18395e+06
1.07385e+06
1.36032e+06
1.52408e+06
1.27344e+06
568371
228073
176179
192910
261048
373771
492506
603055
735025
922615
1.14116e+06
1.49251e+06
3.49946e+06
2.39414e+06
1.80961e+06
1.31059e+06
1.21161e+06
1.39674e+06
1.49715e+06
1.31391e+06
732778
346427
200421
190573
202088
246781
330995
432886
552744
709698
888669
1.21491e+06
3.15243e+06
2.33013e+06
1.94177e+06
1.55608e+06
1.42598e+06
1.48705e+06
1.51299e+06
1.3558e+06
865230
503663
282852
207440
206646
223609
267283
345404
445625
568225
702500
982932
2.92467e+06
2.27473e+06
2.10076e+06
1.87361e+06
1.76069e+06
1.67615e+06
1.57741e+06
1.41951e+06
973564
654467
407588
264003
228856
235749
266858
316666
384349
471896
577587
815659
2.78009e+06
2.23012e+06
2.23664e+06
2.12714e+06
2.13235e+06
2.0289e+06
1.74637e+06
1.52448e+06
1.09126e+06
780760
532792
359453
283520
272741
284591
309313
342306
394282
472563
680277
2.65171e+06
2.16789e+06
2.27058e+06
2.26042e+06
2.44236e+06
2.38632e+06
2.05707e+06
1.71633e+06
1.25008e+06
909015
648934
468974
370639
333755
317083
315409
323606
349649
405998
585575
2.5287e+06
2.0847e+06
2.23578e+06
2.25685e+06
2.49878e+06
2.5344e+06
2.33641e+06
2.00132e+06
1.4764e+06
1.08358e+06
788487
598170
480914
414111
362833
331126
329013
349060
398171
537414
2.40782e+06
1.98695e+06
2.16007e+06
2.22711e+06
2.47344e+06
2.52492e+06
2.49933e+06
2.26147e+06
1.73729e+06
1.31456e+06
985345
768283
618570
515878
429498
367840
359148
373167
408805
511226
2.30528e+06
1.90078e+06
2.071e+06
2.17454e+06
2.40745e+06
2.47655e+06
2.51454e+06
2.45177e+06
1.99189e+06
1.56059e+06
1.21045e+06
959619
767992
634196
520463
439125
415990
419012
437293
504605
2.11076e+06
1.74074e+06
1.89501e+06
2.02653e+06
2.21299e+06
2.29522e+06
2.41298e+06
2.43881e+06
2.17687e+06
1.86623e+06
1.56148e+06
1.29329e+06
1.06071e+06
884986
741827
637999
574759
539332
519548
521847
9.92006e+06
1.11855e+07
1.17403e+07
1.0645e+07
9.87096e+06
9.53761e+06
8.76106e+06
7.50411e+06
6.02177e+06
4.87486e+06
3.9772e+06
3.45675e+06
3.12671e+06
2.90771e+06
2.7645e+06
2.63411e+06
2.50825e+06
2.38226e+06
2.27453e+06
2.07191e+06
1.11811e+07
1.24154e+07
1.27893e+07
1.01655e+07
9.36574e+06
9.84697e+06
9.28054e+06
7.47283e+06
5.12268e+06
3.5578e+06
2.63378e+06
2.38525e+06
2.33461e+06
2.28537e+06
2.24172e+06
2.17506e+06
2.087e+06
1.98407e+06
1.89153e+06
1.7213e+06
1.17395e+07
1.28121e+07
1.11834e+07
8.35781e+06
8.81084e+06
1.01211e+07
9.87081e+06
7.63323e+06
4.31542e+06
2.48271e+06
1.78092e+06
1.81734e+06
1.95931e+06
2.10778e+06
2.23805e+06
2.26646e+06
2.23273e+06
2.1552e+06
2.06244e+06
1.87995e+06
1.06791e+07
1.01129e+07
8.20868e+06
6.68389e+06
7.66241e+06
1.05831e+07
1.10067e+07
9.23573e+06
4.21247e+06
1.13336e+06
1.16924e+06
1.30402e+06
1.56867e+06
1.92435e+06
2.20729e+06
2.29329e+06
2.27232e+06
2.21562e+06
2.14719e+06
1.98867e+06
9.86292e+06
9.24511e+06
8.63838e+06
7.54277e+06
832594
941495
1.0335e+06
1.17465e+06
1.38311e+06
1.70811e+06
2.07835e+06
2.40157e+06
2.49904e+06
2.47968e+06
2.41672e+06
2.21743e+06
9.4974e+06
9.73688e+06
9.96203e+06
1.04077e+07
1.1875e+06
1.28127e+06
1.29244e+06
1.32991e+06
1.4105e+06
1.56043e+06
1.85846e+06
2.26556e+06
2.51974e+06
2.52617e+06
2.48137e+06
2.29403e+06
8.68614e+06
9.16268e+06
9.74043e+06
1.08446e+07
1.48619e+06
1.499e+06
1.45316e+06
1.42075e+06
1.43036e+06
1.47511e+06
1.59103e+06
1.85074e+06
2.193e+06
2.40825e+06
2.4405e+06
2.35731e+06
7.41975e+06
7.36752e+06
7.54152e+06
9.10684e+06
1.49505e+06
1.13865e+06
1.19407e+06
1.2312e+06
1.26512e+06
1.31659e+06
1.39748e+06
1.53972e+06
1.78046e+06
2.0724e+06
2.31614e+06
2.32983e+06
5.9245e+06
5.03149e+06
4.25171e+06
4.22011e+06
796095
1.17096e+06
1.49402e+06
1.50201e+06
211542
318824
496637
650614
777693
882650
979392
1.10025e+06
1.27945e+06
1.52651e+06
1.78759e+06
2.01921e+06
4.77239e+06
3.47424e+06
2.4252e+06
1.09604e+06
907455
1.25498e+06
1.48523e+06
1.13319e+06
344130
159342
192098
290401
429286
566255
684579
791445
926865
1.12343e+06
1.35088e+06
1.67375e+06
3.86909e+06
2.54246e+06
1.69503e+06
1.11813e+06
991768
1.26523e+06
1.43591e+06
1.18945e+06
528255
201394
151499
169945
234589
336899
452259
557580
665241
817841
1.00947e+06
1.35453e+06
3.33884e+06
2.27162e+06
1.711e+06
1.22546e+06
1.12266e+06
1.30161e+06
1.40265e+06
1.22698e+06
680208
310223
176482
162391
171357
212883
295126
396127
501008
626959
782598
1.09828e+06
3.00631e+06
2.21268e+06
1.82577e+06
1.44838e+06
1.3146e+06
1.38003e+06
1.41222e+06
1.26088e+06
799347
453546
250731
175436
174384
190614
235216
311735
398895
498893
618456
887509
2.78922e+06
2.16625e+06
1.97068e+06
1.76584e+06
1.61303e+06
1.52642e+06
1.45716e+06
1.31145e+06
896026
591332
362361
225846
193460
202565
234591
282677
343408
418582
512434
737725
2.65261e+06
2.12802e+06
2.1073e+06
2.04082e+06
1.96573e+06
1.81767e+06
1.57509e+06
1.39204e+06
991536
708736
478780
312424
242709
237107
250340
275940
309030
354451
422473
611087
2.53004e+06
2.07252e+06
2.1586e+06
2.1623e+06
2.28592e+06
2.20258e+06
1.83221e+06
1.53419e+06
1.11566e+06
817166
581135
411721
321131
290811
280364
281325
289328
310134
356785
514914
2.41441e+06
1.99662e+06
2.13393e+06
2.15883e+06
2.40157e+06
2.43589e+06
2.15037e+06
1.77348e+06
1.29972e+06
957460
690289
517063
411824
357989
321377
294309
290066
304280
341143
466563
2.29881e+06
1.90477e+06
2.06892e+06
2.1266e+06
2.38915e+06
2.4411e+06
2.3498e+06
2.05255e+06
1.54361e+06
1.15797e+06
850689
653216
521417
441370
374713
320424
309027
318549
348797
447824
2.19987e+06
1.82133e+06
1.98729e+06
2.07514e+06
2.33434e+06
2.40126e+06
2.38721e+06
2.28555e+06
1.79994e+06
1.38506e+06
1.04905e+06
821181
653823
545244
450564
376077
352185
355861
375672
445434
2.01156e+06
1.66522e+06
1.82044e+06
1.93575e+06
2.1482e+06
2.22878e+06
2.30964e+06
2.29985e+06
2.02281e+06
1.70171e+06
1.39664e+06
1.14767e+06
937802
784533
653266
552169
495974
470615
457703
463149
9.776e+06
1.10182e+07
1.15518e+07
1.03885e+07
9.6123e+06
9.31087e+06
8.55569e+06
7.30268e+06
5.82268e+06
4.70454e+06
3.83159e+06
3.32367e+06
3.01192e+06
2.81047e+06
2.68389e+06
2.56594e+06
2.45095e+06
2.33257e+06
2.22808e+06
2.02837e+06
1.0996e+07
1.21716e+07
1.25095e+07
9.83109e+06
9.10282e+06
9.62672e+06
9.0861e+06
7.28821e+06
4.92739e+06
3.39833e+06
2.50943e+06
2.26013e+06
2.22717e+06
2.19926e+06
2.17133e+06
2.1204e+06
2.04373e+06
1.94904e+06
1.85962e+06
1.69118e+06
1.15037e+07
1.24855e+07
1.05821e+07
7.98489e+06
8.65981e+06
9.95878e+06
9.68972e+06
7.45924e+06
4.12089e+06
2.33336e+06
1.66894e+06
1.70411e+06
1.84674e+06
2.00695e+06
2.15128e+06
2.20578e+06
2.18443e+06
2.12018e+06
2.03326e+06
1.8539e+06
1.03528e+07
9.67824e+06
7.81516e+06
6.38711e+06
7.49216e+06
1.03103e+07
1.0673e+07
8.9386e+06
4.05056e+06
1.05641e+06
1.08487e+06
1.20473e+06
1.45276e+06
1.81503e+06
2.15299e+06
2.26782e+06
2.25289e+06
2.19355e+06
2.11818e+06
1.95553e+06
9.53323e+06
8.89912e+06
8.3781e+06
7.28525e+06
760749
874622
957460
1.08655e+06
1.2816e+06
1.58967e+06
1.96489e+06
2.30626e+06
2.45268e+06
2.44436e+06
2.39361e+06
2.20421e+06
9.23296e+06
9.46766e+06
9.73669e+06
1.01658e+07
1.11432e+06
1.20844e+06
1.22582e+06
1.26577e+06
1.34253e+06
1.47509e+06
1.73501e+06
2.13682e+06
2.44471e+06
2.4918e+06
2.45664e+06
2.28193e+06
8.47006e+06
8.95588e+06
9.54647e+06
1.05446e+07
1.41673e+06
1.43848e+06
1.3991e+06
1.36768e+06
1.37404e+06
1.40994e+06
1.50423e+06
1.72185e+06
2.06468e+06
2.31394e+06
2.38022e+06
2.30779e+06
7.23659e+06
7.19475e+06
7.37235e+06
8.83061e+06
1.46024e+06
1.09309e+06
1.14835e+06
1.18673e+06
1.21598e+06
1.25749e+06
1.32384e+06
1.44258e+06
1.65191e+06
1.94481e+06
2.21409e+06
2.26033e+06
5.77858e+06
4.89755e+06
4.12135e+06
4.01355e+06
738618
1.08939e+06
1.38753e+06
1.36897e+06
193033
296538
468893
620573
742272
841674
929377
1.03561e+06
1.1931e+06
1.42378e+06
1.68079e+06
1.93453e+06
4.66991e+06
3.39875e+06
2.36577e+06
1.06128e+06
863670
1.18932e+06
1.39387e+06
1.05204e+06
320814
146140
176758
268986
397925
529451
647252
750251
870140
1.04715e+06
1.25975e+06
1.58557e+06
3.79146e+06
2.49672e+06
1.66524e+06
1.08477e+06
943675
1.20274e+06
1.35634e+06
1.11344e+06
496114
187180
137034
154671
215743
313193
425156
527875
623729
756125
929617
1.26961e+06
3.26926e+06
2.2249e+06
1.6796e+06
1.19473e+06
1.07093e+06
1.24052e+06
1.33309e+06
1.1565e+06
641109
290632
161610
146087
153644
192470
271790
367440
462623
576163
719319
1.02855e+06
2.9432e+06
2.16743e+06
1.78955e+06
1.42206e+06
1.26088e+06
1.31631e+06
1.3428e+06
1.19127e+06
754240
423907
232167
156427
153739
169844
213148
284421
366590
456664
568781
831252
2.73132e+06
2.12353e+06
1.92413e+06
1.74464e+06
1.55124e+06
1.44973e+06
1.38425e+06
1.23947e+06
847510
553703
334062
201574
171151
180575
211320
257677
316218
386007
473545
687877
2.59744e+06
2.08696e+06
2.05517e+06
2.03229e+06
1.89367e+06
1.70905e+06
1.48559e+06
1.31285e+06
936653
667279
443903
284640
216549
212180
225438
251948
286512
332110
391632
563643
2.47609e+06
2.03215e+06
2.10627e+06
2.13891e+06
2.2123e+06
2.09429e+06
1.70889e+06
1.43783e+06
1.04798e+06
769460
544098
379182
289465
262263
254148
257603
268423
286236
324867
469612
2.36244e+06
1.95739e+06
2.08611e+06
2.13079e+06
2.3504e+06
2.37615e+06
2.03562e+06
1.65088e+06
1.21309e+06
895086
643005
474998
373820
324767
293481
271289
266435
273785
304309
422190
2.24818e+06
1.86735e+06
2.02662e+06
2.0876e+06
2.34381e+06
2.4058e+06
2.2631e+06
1.93348e+06
1.44425e+06
1.07921e+06
785168
595866
470260
400210
344018
292425
275975
282663
309119
407378
2.14918e+06
1.78406e+06
1.94832e+06
2.02933e+06
2.29735e+06
2.37076e+06
2.32219e+06
2.18615e+06
1.69583e+06
1.29306e+06
965907
749369
592719
495796
410270
336477
309729
312636
333702
408034
1.96134e+06
1.62788e+06
1.78452e+06
1.88877e+06
2.12008e+06
2.20401e+06
2.25362e+06
2.22421e+06
1.93628e+06
1.61069e+06
1.3056e+06
1.06585e+06
867393
722589
594549
494720
440417
422398
418230
425885
9.77339e+06
1.10211e+07
1.1555e+07
1.03823e+07
9.60625e+06
9.3197e+06
8.56631e+06
7.30634e+06
5.82099e+06
4.69887e+06
3.8179e+06
3.30721e+06
2.99922e+06
2.80159e+06
2.67877e+06
2.5636e+06
2.45049e+06
2.3335e+06
2.22984e+06
2.03077e+06
1.09829e+07
1.21659e+07
1.25158e+07
9.79979e+06
9.10596e+06
9.65058e+06
9.10388e+06
7.29755e+06
4.9342e+06
3.40694e+06
2.50369e+06
2.24042e+06
2.20834e+06
2.18595e+06
2.16364e+06
2.11759e+06
2.04335e+06
1.94984e+06
1.86109e+06
1.69332e+06
1.14872e+07
1.24686e+07
1.05492e+07
7.90891e+06
8.72899e+06
1.00139e+07
9.71614e+06
7.47002e+06
4.13145e+06
2.35822e+06
1.67213e+06
1.69336e+06
1.82262e+06
1.98646e+06
2.1404e+06
2.20312e+06
2.18381e+06
2.12165e+06
2.03624e+06
1.85808e+06
1.03441e+07
9.67764e+06
7.81363e+06
6.27504e+06
7.65201e+06
1.0305e+07
1.06236e+07
8.89839e+06
3.9762e+06
1.068e+06
1.09682e+06
1.20934e+06
1.44422e+06
1.79873e+06
2.13845e+06
2.26063e+06
2.24936e+06
2.19488e+06
2.12269e+06
1.96227e+06
9.51741e+06
8.8609e+06
8.28124e+06
6.99287e+06
708965
875477
958610
1.0857e+06
1.27762e+06
1.57941e+06
1.9505e+06
2.29355e+06
2.44962e+06
2.44424e+06
2.39702e+06
2.21047e+06
9.20955e+06
9.42665e+06
9.67048e+06
1.00603e+07
1.07059e+06
1.21266e+06
1.22736e+06
1.26535e+06
1.34173e+06
1.4735e+06
1.73128e+06
2.13515e+06
2.4445e+06
2.49439e+06
2.45968e+06
2.28622e+06
8.44806e+06
8.92006e+06
9.50334e+06
1.04333e+07
1.37344e+06
1.44959e+06
1.40853e+06
1.37465e+06
1.38055e+06
1.41539e+06
1.50763e+06
1.72313e+06
2.06555e+06
2.31152e+06
2.37929e+06
2.30785e+06
7.22472e+06
7.17726e+06
7.35666e+06
8.75594e+06
1.4075e+06
1.09912e+06
1.1534e+06
1.19117e+06
1.22113e+06
1.26321e+06
1.32868e+06
1.4456e+06
1.65292e+06
1.94397e+06
2.21005e+06
2.25868e+06
5.78068e+06
4.90399e+06
4.13175e+06
4.04914e+06
722215
1.05575e+06
1.34726e+06
1.33672e+06
193308
308342
480786
628182
745739
843255
930107
1.03558e+06
1.19178e+06
1.42086e+06
1.67518e+06
1.92967e+06
4.67801e+06
3.40523e+06
2.36689e+06
1.05129e+06
861210
1.19254e+06
1.41608e+06
1.06605e+06
317973
146177
179296
273207
401982
531389
646972
748831
867136
1.04257e+06
1.25303e+06
1.57867e+06
3.80637e+06
2.5089e+06
1.6774e+06
1.08517e+06
946917
1.20821e+06
1.37842e+06
1.12731e+06
493838
185321
136155
154382
216125
312599
422862
524376
619721
751220
923401
1.26209e+06
3.29002e+06
2.24763e+06
1.69924e+06
1.21015e+06
1.07992e+06
1.24715e+06
1.35153e+06
1.17046e+06
643420
287095
159360
147266
155096
193483
271153
365177
459551
571996
713896
1.02099e+06
2.96508e+06
2.19437e+06
1.81829e+06
1.45382e+06
1.27756e+06
1.32424e+06
1.3598e+06
1.2045e+06
760677
422454
229286
157891
156077
171854
214199
284386
364645
452587
563370
824845
2.75206e+06
2.15041e+06
1.95537e+06
1.78537e+06
1.579e+06
1.46064e+06
1.3992e+06
1.25138e+06
854976
555568
334744
203488
173422
182809
213304
259079
316042
384578
470847
683892
2.61536e+06
2.11061e+06
2.08483e+06
2.07099e+06
1.92689e+06
1.72759e+06
1.49993e+06
1.32323e+06
942981
671912
449359
286767
218911
214479
227354
253096
287105
331476
389704
559825
2.49086e+06
2.05058e+06
2.12665e+06
2.16409e+06
2.23923e+06
2.1208e+06
1.72731e+06
1.44826e+06
1.05375e+06
774708
550389
381944
292047
263798
255286
258421
268305
285385
323127
466793
2.37366e+06
1.97095e+06
2.10255e+06
2.1504e+06
2.36532e+06
2.39634e+06
2.05887e+06
1.66321e+06
1.21897e+06
899529
647014
477452
376290
326596
294252
271003
265973
273001
303023
420358
2.25618e+06
1.87688e+06
2.03797e+06
2.10001e+06
2.35575e+06
2.41896e+06
2.27823e+06
1.95154e+06
1.45394e+06
1.08395e+06
787484
597893
474105
402951
344259
291974
275309
281508
307715
406472
2.15468e+06
1.79055e+06
1.95549e+06
2.03667e+06
2.30628e+06
2.38164e+06
2.32841e+06
2.19487e+06
1.70433e+06
1.2981e+06
968381
751271
596841
497870
410854
336838
309056
311621
332844
407456
1.96384e+06
1.63089e+06
1.78732e+06
1.89099e+06
2.1255e+06
2.21008e+06
2.2567e+06
2.22325e+06
1.93844e+06
1.61406e+06
1.30935e+06
1.07055e+06
872074
725387
596181
495512
439758
422663
418059
425283
9.90811e+06
1.11804e+07
1.17557e+07
1.06482e+07
9.88432e+06
9.55828e+06
8.77613e+06
7.49593e+06
5.98918e+06
4.84208e+06
3.94022e+06
3.42042e+06
3.10066e+06
2.8907e+06
2.7551e+06
2.63051e+06
2.50903e+06
2.38633e+06
2.28053e+06
2.07939e+06
1.11305e+07
1.23644e+07
1.27934e+07
1.01486e+07
9.40921e+06
9.90653e+06
9.31462e+06
7.47199e+06
5.07952e+06
3.52438e+06
2.59968e+06
2.34061e+06
2.29832e+06
2.26113e+06
2.22732e+06
2.16866e+06
2.08532e+06
1.98548e+06
1.89479e+06
1.72658e+06
1.1659e+07
1.2702e+07
1.10753e+07
8.27003e+06
8.98601e+06
1.02546e+07
9.92421e+06
7.63612e+06
4.2532e+06
2.4481e+06
1.7539e+06
1.78169e+06
1.91505e+06
2.07067e+06
2.21758e+06
2.26112e+06
2.23155e+06
2.15784e+06
2.06732e+06
1.88717e+06
1.0628e+07
1.00211e+07
8.12415e+06
6.41497e+06
7.84888e+06
1.05312e+07
1.08266e+07
9.07175e+06
4.04573e+06
1.11871e+06
1.15419e+06
1.28463e+06
1.53838e+06
1.88883e+06
2.1893e+06
2.28898e+06
2.27244e+06
2.21958e+06
2.15396e+06
1.99905e+06
9.80228e+06
9.13806e+06
8.44371e+06
7.0226e+06
752714
930306
1.01857e+06
1.15575e+06
1.36075e+06
1.67945e+06
2.05131e+06
2.38298e+06
2.49694e+06
2.48141e+06
2.42289e+06
2.22824e+06
9.43632e+06
9.64255e+06
9.83701e+06
1.01946e+07
1.13251e+06
1.27973e+06
1.29163e+06
1.33034e+06
1.4121e+06
1.55973e+06
1.84859e+06
2.25711e+06
2.52119e+06
2.53102e+06
2.48736e+06
2.30282e+06
8.63881e+06
9.09506e+06
9.66654e+06
1.05695e+07
1.45454e+06
1.51447e+06
1.46748e+06
1.43134e+06
1.43949e+06
1.48184e+06
1.59334e+06
1.84584e+06
2.18678e+06
2.4042e+06
2.44208e+06
2.3612e+06
7.39194e+06
7.32068e+06
7.48445e+06
8.89642e+06
1.46762e+06
1.15085e+06
1.20504e+06
1.23959e+06
1.27031e+06
1.31901e+06
1.39757e+06
1.5366e+06
1.77478e+06
2.06865e+06
2.31523e+06
2.33205e+06
5.92138e+06
5.01079e+06
4.21423e+06
4.01914e+06
726648
1.11071e+06
1.43367e+06
1.4501e+06
203004
332990
512374
662976
783273
882385
977445
1.09885e+06
1.2784e+06
1.52452e+06
1.78476e+06
2.01899e+06
4.78936e+06
3.47982e+06
2.42056e+06
1.10483e+06
916525
1.26562e+06
1.50511e+06
1.13925e+06
334914
159800
195992
296295
432797
566623
683687
790731
926530
1.12249e+06
1.34793e+06
1.67139e+06
3.9019e+06
2.57333e+06
1.7287e+06
1.13677e+06
999688
1.27574e+06
1.45613e+06
1.19922e+06
519622
197834
150359
170208
235614
337239
450851
554330
662058
816051
1.00694e+06
1.35147e+06
3.38224e+06
2.32268e+06
1.75736e+06
1.26461e+06
1.13565e+06
1.31366e+06
1.42027e+06
1.23719e+06
674530
303481
172611
162077
171449
213462
294274
393436
496794
623393
779276
1.09537e+06
3.05148e+06
2.26519e+06
1.88401e+06
1.51661e+06
1.34117e+06
1.39502e+06
1.42923e+06
1.27096e+06
799007
448982
244670
173601
173927
191289
236515
311791
396895
496280
616549
886723
2.83131e+06
2.21347e+06
2.02295e+06
1.85434e+06
1.65939e+06
1.54609e+06
1.47372e+06
1.32176e+06
900190
590378
356170
221789
193108
203556
237062
286046
346046
420018
512261
736375
2.68829e+06
2.1682e+06
2.1547e+06
2.12464e+06
2.01926e+06
1.84424e+06
1.59133e+06
1.40272e+06
997257
710738
476308
309215
242667
239046
253323
279476
312338
355593
421570
608820
2.55969e+06
2.10307e+06
2.18797e+06
2.21166e+06
2.33701e+06
2.24479e+06
1.85233e+06
1.54644e+06
1.12224e+06
819630
582767
412747
323542
293623
283321
283913
290044
309236
354918
512433
2.43727e+06
2.01825e+06
2.15699e+06
2.19368e+06
2.43021e+06
2.47414e+06
2.18297e+06
1.78819e+06
1.30703e+06
959461
692943
521934
417018
361949
323605
294631
289702
303230
338961
464050
2.31562e+06
1.91952e+06
2.08369e+06
2.14304e+06
2.41119e+06
2.4708e+06
2.37881e+06
2.07969e+06
1.55455e+06
1.16086e+06
853101
658099
526597
445618
375872
319784
308086
316769
346205
445251
2.212e+06
1.8311e+06
1.9956e+06
2.08063e+06
2.34893e+06
2.42182e+06
2.39893e+06
2.30365e+06
1.81199e+06
1.39102e+06
1.05307e+06
825809
657856
548216
451002
375520
350510
353574
373403
443313
2.01765e+06
1.66907e+06
1.82207e+06
1.93218e+06
2.15393e+06
2.23549e+06
2.3145e+06
2.30717e+06
2.02949e+06
1.70778e+06
1.40226e+06
1.1535e+06
941264
786111
653663
551722
494068
469183
456642
461398
1.01741e+07
1.14723e+07
1.20823e+07
1.11172e+07
1.03792e+07
9.97916e+06
9.13785e+06
7.8342e+06
6.28361e+06
5.08701e+06
4.1597e+06
3.61393e+06
3.26531e+06
3.03205e+06
2.87899e+06
2.74092e+06
2.60824e+06
2.47866e+06
2.36921e+06
2.16373e+06
1.14137e+07
1.26856e+07
1.3188e+07
1.07632e+07
9.96114e+06
1.03318e+07
9.66185e+06
7.7849e+06
5.32781e+06
3.70263e+06
2.75797e+06
2.49883e+06
2.42748e+06
2.36515e+06
2.31403e+06
2.24365e+06
2.15252e+06
2.04707e+06
1.9547e+06
1.78547e+06
1.19659e+07
1.30473e+07
1.20801e+07
9.00059e+06
9.38872e+06
1.06254e+07
1.02722e+07
7.94585e+06
4.48418e+06
2.58332e+06
1.87089e+06
1.9074e+06
2.03853e+06
2.183e+06
2.31186e+06
2.33704e+06
2.29924e+06
2.2168e+06
2.12182e+06
1.93849e+06
1.11062e+07
1.06575e+07
8.81769e+06
6.81546e+06
8.13601e+06
1.0921e+07
1.12543e+07
9.44548e+06
4.29721e+06
1.20823e+06
1.24189e+06
1.38755e+06
1.6571e+06
1.98671e+06
2.23102e+06
2.32971e+06
2.31702e+06
2.27441e+06
2.21483e+06
2.06132e+06
1.03126e+07
9.71365e+06
8.84593e+06
7.30842e+06
817865
1.00407e+06
1.09953e+06
1.24935e+06
1.47731e+06
1.82527e+06
2.20137e+06
2.50632e+06
2.5601e+06
2.5328e+06
2.4631e+06
2.2611e+06
9.85481e+06
1.00521e+07
1.01897e+07
1.05789e+07
1.19059e+06
1.35287e+06
1.36827e+06
1.41516e+06
1.5121e+06
1.69907e+06
2.05164e+06
2.43015e+06
2.59694e+06
2.58585e+06
2.53118e+06
2.33703e+06
8.98701e+06
9.42289e+06
1.00036e+07
1.09827e+07
1.51623e+06
1.58067e+06
1.53075e+06
1.50325e+06
1.51885e+06
1.58067e+06
1.74175e+06
2.05299e+06
2.35206e+06
2.52497e+06
2.54161e+06