/*--------------------------------*- C++ -*----------------------------------*\
  =========                 |
  \\      /  F ield         | OpenFOAM: The Open Source CFD Toolbox
   \\    /   O peration     | Website:  https://openfoam.org
    \\  /    A nd           | Version:  9
     \\/     M anipulation  |
\*---------------------------------------------------------------------------*/
FoamFile
{
    format      ascii;
    class       surfaceScalarField;
    location    "0.004";
    object      phi;
}
// * * * * * * * * * * * * * * * * * * * * * * * * * * * * * * * * * * * * * //

dimensions      [0 3 -1 0 0 0 0];

internalField   nonuniform List<scalar> 
28500
(
-210.783
-211.904
-31.7801
-171.239
-222.98
-26.7312
-143.777
-231.477
-27.1242
-110.341
-258.527
-34.0938
-60.4909
-288.975
-33.9944
2.90903
-302.113
-33.6054
73.4274
-305.306
-35.7868
153.238
-309.939
-35.0679
231.882
-296.732
-35.3632
292.616
-250.58
-32.7216
337.573
-196.981
-36.9101
371.493
-158.365
-32.8996
400.12
-133.588
-34.6317
424.263
-118.319
-36.3244
447.857
-107.256
-35.3718
471.623
-101.296
-36.5897
495.207
-96.8728
-40.7911
518.607
-93.469
-42.3945
542.841
-89.2479
-43.0836
-85.88
-44.8497
-221.392
-172.996
-26.515
-183.076
-185.802
-20.0675
-165.9
-194.714
-21.5835
-136.101
-233.765
-29.4881
-77.0248
-281.717
-32.8439
-5.01393
-295.131
-32.7982
76.6036
-294.687
-33.9407
178.39
-299.462
-32.2594
285.153
-273.553
-32.8926
352.9
-204.327
-28.2127
390.376
-143.147
-33.9886
411.44
-99.6291
-29.3307
429.174
-69.9993
-31.0713
447.168
-50.5195
-33.4696
466.026
-41.6824
-33.6345
486.014
-38.1061
-34.5365
507.009
-36.931
-39.3248
528.862
-36.8242
-42.0704
551.569
-36.8715
-44.0116
-37.3725
-46.9673
-230.869
-144.272
-25.73
-193.243
-166.389
-20.0685
-193.764
-193.163
-20.2746
-166.65
-57.6874
-26.3576
-62.255
-58.4408
-63.1209
-90.6311
-69.0312
-33.8761
-68.9721
-70.2324
-69.8531
-10.6386
-70.9673
-32.3614
-71.0906
-71.9438
-71.8512
77.2324
-69.7484
-31.6901
-69.3787
-70.5447
-70.4503
199.307
-70.2493
-29.3842
-69.7966
-71.0084
-70.6495
326.709
-61.8285
-30.0085
-50.8485
-63.0902
-51.6807
392.009
-144.548
-26.681
418.307
-98.9219
-30.6863
428.841
-64.5877
-29.0532
437.194
-33.4806
-31.3967
449.48
-14.0596
-28.7906
465.786
-6.99014
-25.6855
485.287
-1.14257
-23.9449
507.246
2.81079
-26.9683
530.517
4.12571
-28.6941
554.3
4.51603
-31.8839
3.60421
-37.3892
-257.805
-109.684
-30.4985
-233.447
-135.328
-24.261
-57.6089
-167.047
-21.4097
-62.687
-57.9961
-62.4943
-57.4782
-57.4255
-6.70174
-35.4342
-9.53859
50.9659
-16.3029
-16.2905
-16.2893
-16.2546
23.7971
-11.4603
-9.15757
-17.4816
-17.3084
-17.4001
-17.4392
1.41368
8.73337
-8.87042
-17.3084
-17.053
-17.095
-17.2581
-20.9353
33.8594
-8.69233
-17.4304
-17.0552
-17.1008
-17.3641
-59.4045
78.659
-56.2204
-8.82685
447.867
-76.3923
-27.9315
-101.225
-107.567
-101.117
-107.95
457.665
-56.4658
-32.7314
449.386
-35.4629
-31.9781
442.227
-14.7514
-35.2998
448.311
3.4624
-38.3531
463.081
20.0332
-37.2209
483.034
29.6062
-35.0174
505.018
35.8772
-35.9143
528.08
38.6067
-36.4611
552.116
39.818
-35.5061
39.7242
-38.3352
-286.691
-59.6542
-32.25
-279.783
-76.6569
-30.5742
-69.2284
-90.8276
-30.9411
-69.1175
-69.4297
-69.7824
-35.1567
-7.30966
52.3901
-16.4829
-16.9657
-17.1198
-16.4649
3.40703
26.5959
-2.58889
-2.62969
511.183
-15.9988
-38.6022
-120.787
-131.402
-121.731
-133.711
507.025
-13.1669
-42.1103
497.399
-5.66719
-42.497
479.602
5.08919
-44.4113
463.429
18.6033
-42.3624
464.461
35.5014
-36.3933
475.944
48.419
-35.4555
492.513
57.3396
-38.2228
513.019
63.0004
-38.8808
536.029
67.0335
-39.1514
69.61
-43.6391
-301.479
4.22558
-33.3391
-295.704
-3.57371
-32.4488
-71.715
-9.53142
-31.9869
-71.1775
-72.5292
-71.8915
23.637
-11.472
-8.71434
-17.5213
-17.43
-17.4767
-17.4695
0.964891
33.8166
-0.108809
-2.59953
564.919
38.012
-43.9986
-137.851
-141.166
-140.882
-144.423
563.613
36.1254
-45.2269
559.371
36.8246
-45.4006
547.202
42.7954
-45.7321
521.239
50.3269
-44.4516
500.738
61.9634
-39.3699
500.934
78.8958
-37.9141
509.213
90.3374
-40.9239
523.474
96.3944
-41.32
542.163
101.392
-42.4305
102.913
-47.5104
-304.639
75.3719
-36.2173
-294.727
79.2174
-34.9936
-69.8868
80.4543
-32.9606
-69.528
-70.6975
-70.5386
1.19708
9.22923
-9.10273
-17.3421
-17.0713
-17.1145
-17.2867
-2.32165
35.6909
3.01131
-2.66978
597.359
103.033
-44.0559
-145.454
-148.8
-148.781
-152.113
597.021
102.11
-45.3263
594.679
100.398
-45.7168
588.956
99.8797
-45.925
574.867
104.03
-46.4272
551.346
108.837
-43.0366
534.875
116.401
-38.3508
534.707
125.073
-41.2127
541.733
127.639
-41.4602
553.712
129.808
-42.2006
130.08
-46.7232
-309.305
154.95
-36.5626
-298.923
180.666
-34.6645
-70.0924
202.363
-32.5447
-69.685
-70.9192
-70.406
-21.9162
35.1454
-9.10995
-17.375
-17.0472
-17.1001
-17.2663
-5.15771
37.5904
6.39065
-2.78395
629.742
205.782
-44.6546
-153.566
-154.971
-156.831
-158.01
634.224
191.955
-43.7663
637.672
183.804
-43.1642
637.808
172.18
-43.8652
635.038
166.624
-43.6103
624.568
166.023
-43.6366
605.398
165.512
-39.8188
590.7
169.694
-36.9158
589.668
167.068
-39.6492
593.108
163.779
-41.0779
162.177
-44.4734
-294.521
233.128
-37.9356
-271.265
286.883
-37.5404
-61.3202
328.466
-37.5029
-49.7266
-62.952
-51.8319
-59.5469
-56.0321
79.9445
-9.82702
6.13882
-2.31456
28.5233
-4.24068
1.08249
-0.162486
33.5364
-2.78637
-2.27624
2.9543
35.3605
-2.78811
-5.13994
6.48387
37.2469
-2.72683
-12.1093
-14.5573
133.402
139.811
-11.0556
-18.6906
-11.1814
-17.7776
-19.6087
-16.3879
-20.5221
602.049
414.317
-41.4569
-144.406
-132.456
-146.451
-133.702
622.339
352.073
-38.48
636.474
323.287
-43.8544
644.49
298.892
-45.7037
650.514
277.722
-47.5889
649.881
259.162
-45.3522
641.924
247.854
-39.6619
629.523
243.325
-35.8168
622.771
237.372
-35.1532
623.723
227.769
-37.2823
217.146
-41.35
-247.847
293.121
-36.2632
-201.893
353.293
-34.5638
-142.93
392.145
-35.8405
-79.07
444.848
-35.6425
-101.08
-107.582
-100.892
-106.989
-19.2735
505.722
-42.4794
-120.747
-130.764
-120.936
-131.857
35.9126
555.194
-44.6136
-136.169
-139.455
-137.339
-140.774
102.189
588.553
-44.5222
-143.578
-147.165
-145.472
-149.357
211.167
620.917
-41.284
-152.233
-154.466
-154.755
-157.689
392.336
600.709
-37.5213
-145.646
-137.595
-148.831
-139.301
519.923
527.593
-26.7491
571.73
457.444
-41.2682
597.285
407.857
-44.8949
616.507
381.181
-40.7525
634.962
360.932
-36.244
650.557
341.351
-37.9193
656.423
321.707
-38.7197
653.217
307.834
-37.9852
647.626
299.01
-35.5786
646.929
286.925
-34.653
270.299
-37.8305
-194.264
337.307
-40.2602
-141.431
389.436
-39.3114
-98.1635
417.404
-37.8836
-57.8653
453.615
-39.5132
-15.3905
501.019
-44.3705
34.8131
554.484
-45.6706
100.745
588.358
-45.8022
193.578
624.347
-40.8544
338.353
619.792
-31.6947
437.042
570.953
-45.0915
508.826
518.577
-51.0531
552.672
466.334
-38.9155
583.747
436.931
-31.5327
609.995
424.152
-28.9845
632.841
408.364
-37.7551
650.908
391.159
-46.8262
657.761
370.898
-46.8475
659.515
357.44
-40.398
661.898
343.788
-32.4895
323.51
-33.1376
-156.137
370.697
-35.9993
-98.6239
409.886
-33.3912
-65.1196
427.477
-34.1778
-36.8976
446.189
-36.0561
-7.12071
491.471
-42.7241
35.498
550.789
-45.4389
98.6993
586.337
-45.6007
182.685
628.056
-40.7723
317.171
633.108
-36.6499
396.925
597.322
-40.4112
451.088
554.747
-43.3681
508.766
518.238
-33.7904
552.351
482.462
-22.3019
580.826
462.697
-22.0251
606.189
446.85
-35.0138
628.544
439.164
-42.7242
642.996
422.96
-40.6837
653.053
410.883
-34.7795
660.979
397.285
-25.0756
375.496
-27.2561
-131.738
399.057
-37.8482
-69.1859
427.564
-34.9392
-35.4627
435.687
-35.0256
-16.8575
440.768
-37.4124
3.79172
474.74
-42.8581
41.1827
539.222
-45.1288
97.8697
580.943
-45.048
170.381
628.584
-41.6194
293.543
640.358
-39.7644
376.964
616.335
-34.0408
430.844
585.146
-30.4559
471.682
556.358
-23.3075
515.809
523.613
-18.9105
547.838
494.857
-30.4111
572.235
470.281
-35.4106
600.512
471.277
-33.7771
623.751
465.972
-32.2781
644.768
460.742
-29.3384
659.014
449.394
-19.742
425.233
-24.1351
-116.914
423.086
-39.671
-49.6444
445.587
-37.5365
-16.0789
448.057
-32.4684
1.23162
447.195
-38.9941
17.1044
460.324
-40.0408
48.5105
514.929
-43.3384
101.834
567.466
-44.7541
164.31
626.35
-41.2831
271.933
645.497
-42.1142
355.745
633.847
-28.8455
421.276
611.304
-22.628
460.138
585.116
-20.7456
488.85
554.785
-31.7051
516.88
523.601
-36.3568
547.784
496.605
-24.2941
577.938
498.451
-17.6756
603.827
499.654
-17.5151
626.891
499.393
-15.0535
642.139
490.699
-16.0209
467.937
-25.514
-106.209
446.657
-38.5583
-41.2436
464.506
-37.5479
-7.66787
464.541
-29.5005
18.4447
461.814
-38.1378
33.7026
462.091
-35.8699
60.0784
497.111
-38.7776
106.268
545.91
-40.9397
162.985
616.952
-41.0455
253.425
644.379
-40.0266
335.86
648.32
-30.2664
405.211
633.412
-30.2077
447.657
609.87
-31.1034
470.792
577.592
-33.797
494.394
551.348
-24.1357
526.195
527.433
-5.64569
554.885
525.343
-6.50739
583.142
520.848
-12.2998
609.729
521.449
-19.3407
627.417
520.54
-27.4414
504.178
-32.7135
-100.482
470.502
-39.6576
-37.9026
484.661
-38.3215
-1.52275
484.159
-27.809
28.3336
481.8
-36.8206
46.1933
474.087
-36.4279
76.3737
498.151
-37.8322
113.799
532.111
-37.0932
161.89
599.761
-37.0457
242.677
636.731
-34.7953
316.338
653.124
-31.8212
386.939
649.656
-39.0903
438.69
629.958
-36.4902
473.246
603.839
-29.6643
500.992
580.393
-16.0358
526.126
556.748
-5.73836
551.824
552.698
-15.5867
575.721
544.512
-24.5097
597.382
541.912
-37.5532
608.023
541.221
-38.1316
532.438
-34.1452
-96.24
494.189
-43.5438
-36.7654
505.846
-42.7355
2.75026
506.204
-30.6991
34.4669
503.837
-38.3209
54.7821
491.116
-40.0927
87.3038
506.992
-41.1653
121.796
532.778
-40.2086
165.863
588.058
-35.1579
238.12
625.653
-31.6886
302.781
649.756
-32.1233
366.565
655.505
-39.3256
420.561
642.686
-33.8474
465.307
624.536
-26.6315
502.748
605.108
-12.3873
524.962
585.481
-7.87836
545.243
577.745
-21.6626
567.425
568.461
-33.4366
583.125
559.599
-44.0088
595.594
555.886
-36.9561
554.274
-25.6461
-92.8167
517.684
-44.8691
-36.6853
527.826
-45.1463
3.94216
529.553
-32.2132
37.1602
527.027
-39.0831
60.5865
511.982
-41.0505
93.4175
521.609
-41.4845
124.255
540.429
-40.5893
163.071
587.625
-37.6592
231.888
620.546
-32.0222
293.379
644.917
-30.5522
352.586
657.229
-33.8313
406.994
651.873
-28.3648
458.028
643.794
-22.8152
501.128
627.678
-8.55408
525.75
611.839
-12.7305
545.303
600.153
-31.9004
561.999
584.433
-41.0105
574.963
571.666
-42.0067
592.151
570.582
-26.1268
577.911
-13.4279
-88.6079
542.002
-45.239
-36.7145
550.627
-46.6405
4.28001
553.447
-34.9341
38.426
551.236
-38.0532
64.7846
535.277
-41.3953
98.4069
540.476
-42.4772
126.527
552.851
-41.3815
160.308
591.561
-39.1509
222.85
622.318
-34.4747
281.127
645.057
-30.509
338.112
660.089
-27.3628
392.254
659.598
-19.6262
445.694
657.846
-13.3969
490.252
642.954
-9.01149
522.996
629.774
-19.9694
545.426
611.104
-31.7491
561.442
596.678
-32.9925
577.83
588.909
-23.8643
597.016
590.579
-5.70907
599.05
-7.05016
-85.2739
-46.7154
-37.2153
-49.1328
3.41426
-39.7812
38.5441
-40.594
67.6178
-45.6471
99.9717
-47.7972
127.098
-45.9179
159.231
-42.4949
212.677
-38.5849
265.026
-34.1525
318.126
-28.9339
370.483
-22.4706
421.316
-18.4013
465.834
-19.153
504.001
-25.9178
534.556
-27.7927
558.664
-19.8427
584.163
-8.11043
604.7
-3.98355
-14.1892
-212.163
-213.752
-20.2147
-172.231
-224.4
-15.87
-145.89
-231.927
-15.3601
-112.903
-265.869
-18.4694
-62.2496
-296.442
-19.1505
2.19594
-309.93
-20.0513
73.5373
-312.135
-21.4321
153.863
-315.898
-21.2024
233.074
-302.667
-20.792
294.122
-256.033
-18.509
339.413
-202.113
-21.3846
373.051
-161.897
-17.3957
401.465
-135.962
-18.6417
425.272
-119.865
-20.5465
448.62
-108.72
-20.8055
472.438
-102.779
-22.2372
496.011
-98.6752
-25.5453
519.166
-95.505
-27.017
543.131
-91.3223
-27.7554
-87.9227
-29.2824
-221.911
-174.31
-15.8965
-182.895
-186.925
-10.2788
-170.111
-202.151
-9.91517
-141.707
-243.353
-11.6676
-78.5616
-294.396
-17.167
-5.5613
-304.675
-18.9978
77.0702
-302.732
-19.8807
179.623
-306.332
-19.2939
287
-280.428
-18.2262
355.368
-210.367
-14.1348
393.571
-149.758
-18.5576
414.29
-105.432
-12.982
431.06
-74.6198
-14.1755
448.425
-53.174
-17.4395
466.897
-43.4447
-19.1871
486.928
-39.6905
-20.8515
508.078
-38.7281
-24.8673
529.854
-38.7786
-27.2985
552.348
-38.9785
-29.0937
-39.6954
-31.5895
-230.513
-145.96
-15.0952
-199.523
-170.211
-9.89171
-205.176
-203.752
-5.98435
-171.256
-60.6207
-10.0302
-66.405
-61.5934
-67.1288
-89.419
-72.2873
-18.513
-72.1209
-72.4533
-72.7024
-10.1613
-73.8516
-19.5334
-73.6812
-74.4649
-74.0172
78.0749
-72.354
-19.0927
-72.0318
-72.6471
-72.6925
201.383
-72.591
-17.8541
-72.184
-72.9143
-72.3911
328.924
-64.328
-14.6075
-53.3065
-63.686
-52.8244
394.441
-148.062
-11.1697
422.652
-103.576
-16.3533
433.993
-68.6917
-12.7654
440.352
-39.722
-12.7364
451.026
-16.9924
-11.5489
466.492
-8.90973
-10.5978
485.334
-3.28973
-10.7866
507.258
0.851952
-14.5397
530.625
2.32544
-16.9347
554.547
2.48825
-20.3777
1.19425
-25.3141
-263.392
-111.653
-17.3273
-240.84
-140.431
-11.1776
-60.109
-171.442
-10.7305
-65.301
-61.9174
-66.0579
4.97383
-59.7831
-59.5256
-4.4831
7.9897
-34.7102
-6.29934
54.14
-17.4654
-18.1053
-17.386
-18.1778
7.41991
23.2749
-11.3679
-6.15242
-18.2248
-18.2602
-18.1965
-18.3176
7.18208
1.27427
9.0587
-6.07154
-18.0517
-17.7926
-18.0154
-17.8318
6.8242
-21.4869
34.2757
-5.69155
-18.1538
-17.8138
-18.181
-17.8672
-59.981
5.61204
79.3305
-58.8771
-4.24883
449.881
-78.8793
-6.74036
-101.406
-107.405
-101.59
-107.979
462.77
-59.2552
-12.4897
457.869
-37.705
-13.8854
448.828
-18.1804
-15.5721
452.4
-0.280261
-19.6073
465.102
16.4623
-20.8059
483.997
26.9461
-20.2201
505.248
33.7167
-22.2564
527.867
36.6271
-23.3674
551.566
37.7944
-23.9694
37.524
-27.1087
-293.194
-61.3258
-18.2815
-290.208
-78.9704
-16.8562
-70.4816
-91.3164
-19.7723
-71.8625
-70.7187
-72.2953
6.16034
-35.8562
-5.75014
52.3863
-16.7878
-16.402
-16.7922
-16.3924
1.58589
4.14719
26.3619
-3.02915
-1.20889
522.719
-18.0032
-28.0187
-123.565
-136.355
-124.229
-137.171
517.961
-14.9475
-29.3405
509.281
-7.35834
-27.5835
493.369
3.22494
-27.5484
474.715
15.2512
-24.9938
471.628
32.44
-20.308
480.193
45.7197
-21.0674
495.15
53.8979
-24.927
514.597
59.59
-26.8088
536.888
63.926
-29.0101
66.6773
-33.468
-309.617
3.15067
-19.0877
-305.117
-4.99754
-18.2372
-74.1341
-10.1248
-19.2878
-73.5907
-74.4833
-73.9214
7.26911
23.8204
-11.4781
-6.28533
-18.2432
-18.2511
-18.2173
-18.3397
2.2727
1.16436
35.4735
-0.281547
-2.19075
585.176
37.0033
-33.8441
-144.295
-148.009
-145.104
-149.134
582.376
35.3127
-32.7789
577.286
35.5834
-31.671
565.973
41.1535
-30.9636
542.329
48.7013
-28.2112
515.454
58.4057
-21.2564
510.676
74.9927
-21.8515
517.003
87.1776
-27.6694
529.209
93.1065
-29.8091
546.529
98.5312
-32.2774
100.331
-36.9071
-311.891
75.0774
-21.4474
-302.793
78.7785
-20.3239
-72.383
79.2707
-19.5962
-72.0257
-72.5784
-72.5726
7.41956
1.20382
9.2473
-6.22847
-18.0616
-17.7997
-18.03
-17.8343
2.28825
-2.11732
37.5263
2.82456
-2.19678
620.102
103.447
-33.4088
-152.444
-155.879
-153.767
-157.306
619.617
102.712
-32.1429
616.872
100.498
-30.9437
611.5
99.3604
-29.7367
599.087
102.995
-29.2814
575.887
107.465
-25.6852
552.763
114.47
-18.2999
548.242
123.775
-22.6729
552.188
126.726
-26.9938
561.982
128.754
-29.4805
128.392
-33.9626
-316.008
155.366
-21.7
-306.924
181.488
-20.3127
-72.468
203.196
-19.6987
-72.0444
-72.8312
-72.3737
7.3648
-21.9418
34.9879
-6.19156
-18.0599
-17.8185
-18.0524
-17.8228
2.3666
-4.99023
39.4572
6.2415
-2.24089
653.023
209.129
-29.5195
-160.489
-161.708
-162.093
-163.673
656.416
193.575
-29.3281
659.436
185.417
-28.5886
659.908
174.715
-27.7872
657.517
167.426
-26.1083
648.459
165.731
-24.9131
629.795
165.101
-21.6396
609.555
169.081
-16.9323
604.651
168.673
-20.0089
606.794
164.352
-25.3799
161.371
-29.8715
-301.94
234.345
-22.7501
-279.838
288.857
-22.1129
-63.2202
330.204
-22.6415
-52.3161
-63.6276
-52.7996
-59.3893
6.68459
-58.49
79.7381
-6.28513
1.93484
6.49976
-2.74648
27.953
-2.73912
2.27402
1.41094
-0.493168
34.487
-2.12998
2.31327
-1.91173
2.59739
36.6215
-2.16088
2.22203
-4.83266
6.28691
38.9
-2.08118
-11.1607
-15.7534
8.59793
136.515
145.418
-6.27999
-17.8741
-11.1406
-17.7869
-20.8932
-15.5018
-20.7271
623.323
422.837
-23.7775
-149.63
-136.19
-151.824
-139.012
642.951
356.244
-21.5209
658.863
325.865
-27.2963
667.075
301.365
-26.0838
672.234
279.682
-25.5953
671.837
260.784
-25.9949
664.389
248.278
-22.2739
651.465
243.243
-17.8544
640.653
238.791
-15.6309
638.825
229.012
-19.0925
218.275
-24.5647
-254.913
294.685
-21.5324
-209.768
356.395
-19.5459
-146.684
395.293
-19.9635
-81.9168
447.382
-15.3306
-101.243
-107.003
-101.297
-107.859
-23.9477
516.032
-28.1875
-122.344
-134.028
-123.593
-135.618
31.3288
574.176
-31.7446
-140.83
-144.445
-143.07
-147
100.609
613.35
-30.8205
-149.724
-154.039
-152.398
-156.883
216.895
648.568
-26.4526
-159.741
-162.456
-162.715
-165.822
401.592
625.704
-21.2458
-152.89
-143.186
-156.4
-144.264
540.842
549.018
-20.0469
593.405
473.242
-28.82
617.703
416.009
-21.0257
635.556
383.25
-17.8448
652.761
362.853
-18.6191
668.9
344.007
-21.7572
676.507
324.92
-22.3751
674.09
309.977
-19.0281
666.67
300.619
-14.7049
663.176
287.96
-14.3588
271.504
-19.6963
-200.236
339.027
-24.9406
-149.104
392.678
-24.0804
-103.767
422.021
-23.0577
-61.825
459.427
-18.2102
-19.7187
510.978
-28.5513
30.4708
571.663
-31.1132
99.2597
612.126
-29.8341
196.931
649.321
-25.9936
343.613
642.528
-14.7702
452.811
594.726
-28.7336
527.094
536.171
-32.293
568.03
477.315
-10.8037
596.776
440.55
-13.8292
625.386
429.632
-18.3322
650.951
413.642
-21.1954
669.479
395.308
-24.6913
675.995
373.508
-24.5781
676.153
358.312
-19.2347
676.664
343.861
-13.472
324.231
-16.2572
-159.68
372.142
-21.2277
-104.73
412.49
-18.4026
-70.4576
432.066
-18.4764
-40.6698
455.008
-18.169
-11.0919
501.855
-26.358
30.9544
567.024
-30.2155
96.654
609.062
-28.917
184.831
651.654
-25.1751
320.626
656.109
-21.0043
404.826
618.317
-15.9531
462.695
570.868
-11.3383
519.55
528.003
-16.9533
565.918
492.275
-19.7208
598.396
473.454
-9.2018
622.465
450.624
-7.75954
643.488
439.803
-12.9739
656.889
422.993
-16.3386
666.009
410.296
-16.3306
673.445
397.178
-9.00032
376.171
-11.9075
-133.978
400.393
-22.5696
-74.0461
429.255
-19.348
-43.1282
438.179
-18.232
-21.9701
446.758
-19.5948
-0.150084
485.884
-26.689
36.5443
555.888
-29.4734
95.2778
603.29
-27.8576
172.515
652.043
-24.7999
296.119
662.589
-20.9469
378.98
634.16
-11.8382
434.339
597.097
-11.9018
480.791
566.731
-19.0549
532.019
538.695
-11.6473
562.211
504.176
2.07085
585.99
471.572
-3.30268
610.051
468.812
-9.51672
632.4
464.154
-16.1437
654.52
460.026
-19.7592
671.107
451.173
-8.38478
427.157
-9.34045
-118.528
424.178
-24.3609
-52.4755
446.846
-22.0885
-20.2585
449.306
-16.5666
-3.76786
450.388
-21.798
12.1942
468.419
-24.618
44.2449
532.304
-26.9375
99.0447
590.204
-27.325
164.317
649.495
-23.6589
273.663
666.836
-21.6989
357.212
649.718
-12.258
425.588
623.806
-12.3671
469.592
598.406
-9.26914
498.341
566.107
-0.215346
525.477
530.979
-2.34651
553.622
497.098
-2.18028
582.284
496.229
-3.26198
610.98
499.102
-7.64661
639.236
503.28
-6.18608
655.402
494.81
0.868936
470.232
-5.8536
-107.915
447.532
-24.313
-43.4846
465.51
-23.125
-10.0171
465.359
-15.0456
15.1165
463.262
-21.4322
29.7818
466.788
-20.6869
54.5598
508.033
-21.3589
103.415
567.199
-23.9248
161.945
640.426
-22.6439
254.503
666.029
-22.4567
337.554
664.865
-16.1176
408.992
647.883
-16.7739
450.518
621.601
-7.76836
472.09
587.304
-4.53934
495.379
555.168
-2.58908
526.985
527.175
6.85888
559.027
525.919
6.00725
590.769
524.902
3.94449
620.808
526.805
3.43066
637.878
522.004
-2.82768
503.458
-11.0807
-102.183
471.431
-25.3642
-39.977
485.765
-24.3131
-3.96989
484.397
-14.8939
25.5767
482.456
-21.4479
42.646
476.62
-21.9686
71.2706
504.703
-22.559
110.589
546.122
-18.0303
160.714
622.324
-19.4464
242.338
658.652
-19.0187
318.509
672.051
-18.6264
390.124
665.69
-22.8034
439.689
641.769
-11.924
471.611
610.666
-6.9389
499.49
582.576
-2.15749
528.034
558.578
5.19318
558.271
557.32
0.358878
584.137
549.458
2.03822
605.059
543.338
-7.75128
616.409
538.901
-13.2947
530.045
-13.7098
-98.2338
495.078
-28.1817
-38.871
507.094
-27.7661
0.653983
506.36
-18.0116
31.7638
503.98
-23.802
50.9394
492.618
-26.0886
83.7081
511.893
-28.245
119.234
542.895
-23.0331
164.557
603.867
-15.3395
237.265
646.557
-15.1164
303.608
669.662
-16.3725
368.48
672.27
-22.4153
420.864
654.799
-13.5834
464.16
631.579
-11.3738
502.435
610.233
-3.00696
530.081
590.73
5.0929
551.656
583.443
3.18831
571.552
571.01
-1.77125
587.588
559.094
-17.611
598.361
554.071
-15.3645
552.137
-8.7102
-94.9532
518.293
-29.3336
-38.9287
528.927
-29.8111
1.88213
529.717
-19.8825
34.5148
526.899
-24.989
56.9045
512.789
-27.9959
89.941
524.823
-30.2723
122.371
547.882
-26.9089
163.549
600.082
-19.0556
232.718
636.961
-13.7583
294.133
662.787
-12.3536
352.823
672.807
-16.0429
406.458
663.585
-11.9611
457.327
652.183
-13.579
504.398
637.442
0.104537
531.57
619.943
6.42484
547.67
605.024
-4.65205
562.442
587.273
-14.9518
575.161
570.612
-21.8904
591.278
568.283
-8.08225
576.272
3.90302
-90.6906
542.31
-29.8109
-39.0355
551.444
-31.2423
1.99116
553.685
-22.7397
35.8272
550.864
-25.5452
61.417
535.655
-30.1036
95.5072
542.699
-32.5214
124.858
558.38
-29.093
159.706
602.941
-24.2155
223.455
635.742
-17.6019
281.698
659.907
-12.1046
337.85
673.763
-10.0376
391.912
670.773
-4.57892
446.63
668.216
-2.72057
493.573
653.587
6.50863
525.362
637.057
3.01036
544.154
616.412
-6.63854
560
597.775
-10.4241
576.324
586.711
-5.85515
595.692
588.284
14.1282
598.079
12.9312
-87.2624
-31.0978
-39.6039
-33.4098
0.97227
-27.1194
36.0391
-28.4384
64.4865
-34.1734
97.2287
-36.9861
124.817
-33.543
157.637
-28.4306
213.125
-22.896
265.728
-17.3586
318.409
-13.0356
370.597
-7.94924
422.325
-4.81475
467.674
-0.885848
503.954
-4.69427
532.871
-6.59148
556.925
-1.85333
582.989
9.65213
604.537
16.4179
6.67747
-217.265
-215.852
-13.4166
-177.883
-225.466
-10.2658
-152.436
-235.453
-9.81218
-118.027
-273.786
-11.8815
-63.8402
-306.426
-13.1323
1.46264
-319.133
-13.754
74.0627
-319.776
-14.6553
155.699
-323.555
-14.696
235.537
-309.321
-14.0237
296.891
-261.921
-12.1736
342.606
-207.86
-13.9825
376.184
-166.669
-10.1771
404.55
-140.393
-10.5865
428.108
-123.587
-12.0642
450.884
-112.9
-12.8022
474.175
-106.803
-14.1952
497.377
-102.506
-16.5411
520.201
-99.6804
-17.8265
543.777
-95.4715
-18.4945
-92.0079
-19.7415
-226.091
-176.911
-9.99495
-189.016
-188.437
-5.63532
-179.888
-208.731
-5.22871
-149.318
-251.109
-7.16549
-79.5598
-303.706
-11.986
-5.95316
-312.567
-12.7709
77.9783
-309.538
-13.5377
182.244
-312.816
-13.5227
289.747
-284.662
-12.7104
358.477
-213.012
-9.11452
397.18
-153.067
-11.7771
418.08
-109.681
-5.84493
434.421
-79.5868
-5.78027
451.171
-58.6765
-8.52094
469.094
-48.7893
-10.6003
488.71
-44.6488
-12.4074
509.501
-43.0389
-15.4024
530.944
-42.8388
-17.3939
553.093
-42.5039
-18.9004
-42.9894
-20.896
-234.043
-151.019
-9.35373
-208.214
-178.037
-5.2649
-217.173
-216.634
-1.48022
-175.909
-63.2079
-6.17516
-68.4034
-63.3541
-68.1403
-89.7721
-73.0955
-13.0602
-74.019
-72.749
-74.1763
-9.732
-75.6723
-12.9695
-75.0572
-76.0415
-74.9337
79.8143
-73.8618
-12.6543
-73.6903
-73.8923
-74.0019
203.387
-74.0046
-12.3977
-73.4788
-73.9072
-73.2949
329.938
-64.8315
-12.7699
-53.6954
-63.9985
-52.7209
394.561
-147.247
-8.72354
422.593
-103.686
-10.402
436.292
-69.2676
-4.90284
444.2
-42.1598
-3.34981
455.012
-16.1534
-2.70766
469.74
-9.42868
-2.76476
487.441
-6.58899
-3.88731
508.443
-3.6
-7.46692
531.209
-2.34362
-9.99653
554.723
-2.13964
-13.0699
-3.50798
-16.8771
-271.267
-117.243
-10.1668
-250.074
-148.643
-5.32998
-63.281
-175.448
-6.48763
-67.7352
-64.3182
-67.9775
3.91589
-61.9428
-61.4235
-3.38637
4.86752
-34.9344
-3.35476
54.8843
-17.8899
-18.4563
-17.8419
-18.4784
4.99132
23.2563
-11.4558
-4.03682
-18.6941
-18.7778
-18.6223
-18.8489
4.87507
1.30947
9.14119
-3.91122
-18.5085
-18.2124
-18.4464
-18.2722
4.52257
-21.8789
35.1812
-3.59003
-18.6296
-18.2145
-18.576
-18.2888
-60.9783
3.27996
79.672
-59.839
-2.09554
448.542
-82.5225
-5.79907
-101.404
-108.606
-101.589
-109.128
463.589
-62.4313
-6.46977
462.6
-40.0946
-6.12859
453.773
-20.2094
-4.85165
455.723
-0.275992
-7.67184
466.55
13.9272
-11.2249
484.485
24.2482
-12.164
505.138
29.5316
-14.3719
527.254
32.4407
-15.4602
550.284
33.2394
-16.559
32.6338
-19.2613
-303.992
-64.5649
-11.3295
-302.455
-81.3969
-10.2859
-71.8145
-91.7932
-13.0357
-73.6459
-72.2114
-73.8526
5.00818
-36.3365
-4.50533
53.5475
-17.2801
-16.7615
-17.1945
-16.8583
1.13323
4.04589
26.8385
-3.56874
-0.685416
529.491
-22.3871
-18.3232
-125.101
-137.925
-125.074
-138.922
525.283
-19.5067
-19.3858
518.933
-11.7865
-17.7422
506.722
-0.426584
-16.9204
490.761
12.8631
-16.2457
485.439
29.3977
-12.1865
491.023
42.7731
-12.3409
503.627
49.7753
-15.801
520.776
54.471
-17.8078
541.232
58.2845
-20.6038
60.291
-24.5225
-318.975
0.790205
-11.9868
-312.221
-7.2133
-11.2084
-75.2805
-10.8784
-11.6833
-74.877
-75.5674
-74.9097
5.16068
23.8586
-11.491
-3.99391
-18.797
-18.7308
-18.7165
-18.7719
1.85393
1.25143
35.7657
-0.303698
-1.7305
597.284
34.5737
-20.4772
-145.506
-149.941
-147.723
-152.464
596.42
33.3157
-20.3992
592.949
33.4222
-20.3337
585.27
37.4551
-20.4583
568.708
45.528
-19.7426
542.421
54.2555
-14.3167
531.227
67.4637
-11.856
534.355
79.3448
-17.6617
543.512
86.5218
-20.1869
557.875
92.2238
-22.9105
94.0243
-26.771
-319.264
73.3064
-13.6746
-309.065
76.6738
-12.3889
-73.7976
78.1415
-11.2814
-73.5426
-73.834
-73.9665
4.90937
1.26647
9.19853
-3.728
-18.4945
-18.2053
-18.439
-18.2602
1.8618
-2.17598
38.1544
2.86634
-1.72357
640.178
100.797
-18.8257
-155.331
-159.575
-158.458
-162.796
641.03
100.953
-18.3812
639.521
98.8419
-17.7123
636.011
97.1443
-17.191
627.925
98.877
-17.3475
610.599
103.74
-16.627
586.144
110.168
-10.5785
574.294
118.055
-10.366
575.189
123.001
-16.3998
581.048
124.899
-19.4747
124.174
-22.7815
-322.703
154.928
-13.9276
-312.556
181.555
-12.5956
-74.0466
203.346
-11.456
-73.58
-74.1402
-73.6155
4.97567
-21.8538
34.9577
-3.83798
-18.6669
-18.1933
-18.5785
-18.2711
1.73242
-5.01222
40.3845
6.33973
-1.5677
674.957
212.696
-13.6827
-164.902
-166.79
-168.15
-169.93
679.105
195.182
-15.0912
682.257
185.697
-15.4903
683.909
176.527
-15.6538
682.922
166.162
-14.906
678.003
163.195
-13.9188
665.197
163.182
-12.6762
645.278
167.194
-9.54529
634.151
168.447
-8.13955
633.26
163.834
-15.2736
159.614
-19.0455
-310.017
235.052
-14.6632
-287.221
289.805
-13.3557
-65.4177
329.888
-12.9625
-54.3888
-65.3997
-54.4827
-60.6357
5.91369
-60.2039
79.3189
-3.48476
1.52684
4.04939
-3.7611
26.7311
-1.28257
1.71604
1.55986
-0.628955
35.5856
-1.57453
1.70256
-1.80952
2.50739
38.0022
-1.5614
1.65767
-4.7894
6.3033
40.5053
-1.48611
-13.5488
-11.9567
4.61201
147.041
143.746
-3.97064
-18.7177
-12.8023
-18.4836
-19.3407
-12.1897
-19.2139
647.959
422.267
-7.67858
-156.944
-145.147
-157.903
-143.8
663.681
354.65
-4.83408
679.671
324.514
-12.6096
688.999
302.365
-11.4711
695.543
281.033
-10.2615
698.678
262.956
-13.2038
695.318
248.212
-13.2981
686.005
241.597
-10.8414
673.016
238.932
-7.70044
667.594
231.049
-9.65498
219.968
-14.3907
-262.773
296.152
-14.0551
-216.002
358.377
-11.0196
-154.191
394.714
-9.04251
-86.6132
449.563
-6.72299
-101.661
-109.044
-101.902
-109.373
-25.9795
526.428
-19.6554
-124.837
-136.612
-124.761
-137.18
30.1486
591.889
-21.2558
-144.656
-149.061
-145.942
-150.772
100.14
636.118
-18.261
-154.707
-159.525
-156.742
-161.55
218.22
673.437
-14.4278
-165.29
-168.446
-167.595
-170.026
417.224
643.852
-10.4743
-155.736
-142.618
-159.543
-146.745
564.739
559.377
-17.962
614.546
477.444
-19.8847
639.561
420.806
-2.55573
658.214
387.65
-0.666384
674.362
366.274
-5.95046
689.947
345.163
-9.84976
700.962
327.558
-12.3179
702.541
310.569
-11.4267
697.11
299.972
-7.09822
691.697
290.432
-5.85975
274.175
-10.3455
-207.739
341.363
-17.3089
-155.735
395.851
-16.648
-111.387
422.941
-15.2853
-68.5687
464.995
-9.45472
-23.2735
522.35
-20.1104
29.2686
591.291
-21.0317
100.24
636.463
-18.0881
198.534
674.966
-15.0829
348.472
661.862
-8.69371
468.011
608.799
-19.0234
548.596
546.78
-22.7691
588.943
486.618
6.06853
615.693
445.295
0.583372
641.776
431.599
-11.5679
666.93
413.717
-11.7813
688.733
398.394
-12.0102
701.689
377.364
-13.2466
704.322
359.554
-10.0696
703.4
346.555
-6.00764
326.816
-8.66334
-165.948
374.751
-14.5755
-111.833
416.334
-12.6694
-77.0025
436.403
-13.1927
-47.0568
465.56
-12.4587
-15.9393
516.054
-18.7747
29.1119
587.931
-20.8834
97.161
634.78
-17.9624
186.172
677.383
-15.3067
323.388
678.065
-14.5289
414.523
637.609
-8.37827
479.507
584.709
2.57655
536.664
538.146
-3.17774
578.707
496.979
-19.7746
612.655
478.392
-7.32355
638.853
456.426
1.80383
662.184
445.773
1.76686
679.724
428.187
-2.86121
690.696
412.547
-7.80775
696.565
399.323
-4.07823
377.543
-6.53154
-139.589
403.237
-15.369
-81.408
432.76
-12.7896
-51.2676
443.128
-12.4432
-28.0898
455.608
-13.7381
-5.29752
503.543
-19.791
32.6423
579.945
-21.1867
94.8089
631.185
-17.9216
175.517
679.211
-15.6918
300.247
687.418
-13.5061
385.458
657.122
-5.89321
442.089
613.375
-5.40959
490.451
576.594
-20.1183
544.076
547.7
-16.6375
579.281
517.018
8.49121
604.123
481.199
11.5289
628.046
472.757
4.70443
650.997
466.245
-7.34442
672.999
460.338
-17.3736
689.319
452.647
-7.89788
428.264
-5.67238
-123.096
426.917
-16.7423
-59.8871
449.731
-14.6839
-25.0345
453.468
-10.8237
-8.71753
455.276
-16.8783
6.6891
486.044
-19.5842
40.1771
562.161
-20.6226
95.9207
622.664
-18.4237
164.586
678.288
-14.9961
278.029
693.834
-12.6759
363.235
673.68
-8.66617
430.092
641.193
-12.4838
476.351
611.266
-10.3611
513.553
580.587
4.04582
542.64
545.38
12.0135
569.838
505.018
8.80488
595.829
495.697
2.22996
623.704
495.957
-6.38025
654.056
501.524
-8.28975
672.57
497.659
1.9104
472.401
-0.273933
-112.753
449.805
-17.1601
-49.7258
467.919
-15.9004
-13.9388
468.7
-9.48934
8.11419
465.327
-17.8123
23.0481
479.976
-15.3953
48.3089
535.132
-15.9994
100.335
604.189
-17.8354
160.921
672.879
-14.0752
258.941
696.067
-14.7473
341.925
689.335
-11.4896
412.596
667.124
-13.5932
457.464
639.094