/*--------------------------------*- C++ -*----------------------------------*\
  =========                 |
  \\      /  F ield         | OpenFOAM: The Open Source CFD Toolbox
   \\    /   O peration     | Website:  https://openfoam.org
    \\  /    A nd           | Version:  9
     \\/     M anipulation  |
\*---------------------------------------------------------------------------*/
FoamFile
{
    format      ascii;
    class       volScalarField;
    location    "0.004";
    object      rho;
}
// * * * * * * * * * * * * * * * * * * * * * * * * * * * * * * * * * * * * * //

dimensions      [1 -3 0 0 0 0 0];

internalField   nonuniform List<scalar> 
9720
(
20.0102
22.0206
22.9648
22.3256
21.4044
20.6033
19.1915
17.086
14.45
12.1635
10.2974
9.09666
8.30248
7.75899
7.38144
7.06578
6.78971
6.52832
6.31503
5.88986
21.9511
23.9091
24.7625
22.4557
21.2338
21.0192
19.8978
16.9538
12.6692
9.39041
7.44884
6.84639
6.57014
6.33467
6.15095
5.96679
5.7793
5.57728
5.40566
5.05792
22.8045
24.6226
25.2114
20.293
19.5109
21.0324
20.6434
17.041
10.8828
6.77392
5.2627
5.39475
5.67656
5.94872
6.11696
6.09469
5.99179
5.81774
5.63551
5.26608
22.2225
22.3755
20.2281
17.2396
17.0135
21.6228
22.586
19.917
11.055
3.59135
3.7169
4.14869
4.83977
5.44418
5.83655
5.99588
5.97016
5.88856
5.77381
5.46691
21.2589
21.0253
19.2112
16.9208
3.04701
3.22693
3.46461
3.8595
4.50485
5.33361
6.08876
6.43697
6.41187
6.29892
6.13724
5.75162
20.386
20.6813
20.6113
21.2227
3.91651
4.06365
4.10551
4.23083
4.51285
5.11497
5.90813
6.41343
6.45623
6.39984
6.27214
5.89853
18.9165
19.4797
20.1441
22.0691
4.50922
4.53243
4.45853
4.46119
4.53267
4.77485
5.31228
5.96841
6.38559
6.51487
6.48883
6.20371
16.826
16.5919
16.5594
19.3296
4.67093
3.79386
3.9458
4.05935
4.20814
4.40438
4.7329
5.29217
5.89597
6.30537
6.51016
6.40677
14.2083
12.3707
10.5504
10.3254
2.96752
3.93235
4.59692
4.64523
0.872531
1.31358
1.93292
2.47621
2.8931
3.2293
3.59924
4.08061
4.68916
5.25318
5.75405
5.95393
11.9501
9.18827
6.63486
3.58132
3.23978
4.10277
4.55888
3.83109
1.45345
0.783333
0.925204
1.3188
1.81266
2.26457
2.66001
3.09972
3.65347
4.24782
4.81458
5.35016
10.1059
7.31835
5.19598
3.72643
3.5045
4.1404
4.48885
3.98405
2.10258
0.983669
0.802922
0.865719
1.11435
1.5043
1.91097
2.31592
2.81109
3.38924
3.94967
4.66708
8.91599
6.72153
5.31392
4.14641
3.90527
4.2649
4.49657
4.09772
2.62328
1.43349
0.904234
0.87088
0.921421
1.10304
1.41233
1.77665
2.2107
2.7235
3.23167
3.99097
8.12871
6.43658
5.57577
4.78161
4.5291
4.54904
4.57515
4.24888
3.01412
1.94439
1.19995
0.943423
0.947442
1.01454
1.18369
1.43792
1.77543
2.19587
2.63814
3.38202
7.59627
6.19927
5.83173
5.33485
5.30396
5.14051
4.82248
4.45096
3.34049
2.39551
1.61205
1.15876
1.03574
1.05548
1.13048
1.26581
1.49846
1.83211
2.20116
2.87781
7.23125
6.02336
6.00029
5.71818
6.00432
5.869
5.3416
4.78624
3.71088
2.79048
2.02723
1.49438
1.23834
1.15457
1.16872
1.23564
1.34563
1.54489
1.83068
2.45543
6.9293
5.84872
5.98065
5.89386
6.35232
6.34951
5.9498
5.33777
4.18986
3.23595
2.44755
1.88365
1.52355
1.32838
1.25717
1.26401
1.311
1.42768
1.64553
2.16329
6.66712
5.67084
5.88346
5.8773
6.3337
6.41261
6.3534
5.90672
4.77779
3.78777
2.95614
2.34299
1.89225
1.59464
1.40851
1.33504
1.3416
1.43533
1.59787
1.96579
6.41885
5.47868
5.71858
5.81029
6.23125
6.3607
6.49392
6.31159
5.31859
4.36603
3.53285
2.87253
2.33559
1.95331
1.65055
1.48226
1.47307
1.5205
1.6078
1.84724
6.21696
5.3175
5.54797
5.70871
6.07964
6.24106
6.46945
6.51347
5.80694
4.92023
4.08812
3.38647
2.78666
2.33683
1.95997
1.74084
1.65636
1.64014
1.65912
1.8106
5.81029
4.98768
5.19812
5.41986
5.70843
5.88267
6.19176
6.4056
5.99465
5.4399
4.79448
4.14137
3.53244
3.02398
2.6024
2.29937
2.06361
1.9203
1.84452
1.84233
18.9486
20.8984
21.8207
20.8224
19.8889
19.2245
17.9347
15.9681
13.4524
11.2974
9.50589
8.3763
7.62832
7.12422
6.78519
6.4953
6.22997
5.98213
5.78281
5.38618
20.8374
22.6783
23.42
20.6834
19.5512
19.7526
18.7378
15.9361
11.8598
8.76206
6.85115
6.2628
6.02278
5.82017
5.67336
5.51413
5.3345
5.13788
4.97249
4.64243
21.715
23.309
23.1488
18.404
18.3072
20.0246
19.6165
16.1695
10.2827
6.36167
4.83066
4.91278
5.15777
5.422
5.6405
5.64739
5.57057
5.41484
5.24573
4.89614
20.8677
20.7588
18.3377
15.669
16.5624
20.8135
21.5535
18.9395
10.507
3.3867
3.46148
3.79656
4.36509
4.94707
5.34963
5.56045
5.54937
5.48933
5.39611
5.11674
19.8643
19.4179
17.8332
15.6675
2.76388
3.0144
3.23235
3.56821
4.0866
4.81339
5.52307
5.98817
6.00579
5.9394
5.80806
5.44096
19.0584
19.4387
19.5799
20.428
3.69578
3.84293
3.8635
3.95077
4.16043
4.61749
5.33775
5.90594
6.06749
6.0385
5.93974
5.58757
17.6686
18.3542
19.2173
21.1793
4.29346
4.30476
4.19526
4.14504
4.18258
4.34122
4.7563
5.3785
5.83148
6.06399
6.06817
5.84211
15.6632
15.5399
15.7431
18.4697
4.4248
3.56306
3.68551
3.75958
3.85569
3.99628
4.24345
4.70561
5.28139
5.71792
6.0007
5.94749
13.1414
11.4954
9.94266
10.0745
2.7012
3.66597
4.30714
4.28288
0.797391
1.19573
1.76668
2.25123
2.61455
2.89787
3.20712
3.61311
4.14778
4.67902
5.17559
5.45961
11.0107
8.45928
6.12698
3.33388
3.00411
3.84167
4.28005
3.51829
1.29429
0.66855
0.799097
1.14464
1.59197
2.00917
2.35614
2.72215
3.18585
3.72179
4.26074
4.84073
9.25619
6.62329
4.66616
3.40454
3.21946
3.86275
4.17807
3.65826
1.8792
0.83444
0.670365
0.723144
0.946895
1.29997
1.65529
1.99434
2.41017
2.92994
3.46449
4.19072
8.1568
6.0776
4.75501
3.72182
3.55242
3.95473
4.15506
3.74809
2.34677
1.22184
0.746704
0.73021
0.772234
0.921759
1.17714
1.48489
1.8705
2.34696
2.82825
3.56475
7.43069
5.86053
5.01751
4.26769
4.0711
4.17376
4.20221
3.86029
2.69755
1.69307
1.01516
0.792614
0.792818
0.837184
0.965259
1.19946
1.51824
1.90932
2.30862
2.99748
6.94836
5.6724
5.29577
4.82896
4.78996
4.651
4.38056
4.02309
2.98485
2.12474
1.40344
0.97991
0.857623
0.870229
0.954256
1.09287
1.30416
1.59214
1.9136
2.52705
6.6269
5.54144
5.53003
5.23458
5.48044
5.35095
4.81269
4.29622
3.30882
2.48602
1.78361
1.27284
1.02573
0.976998
1.00433
1.06762
1.15767
1.31911
1.5646
2.13501
6.3548
5.39517
5.5423
5.47379
5.92816
5.88904
5.42062
4.77873
3.73027
2.87119
2.14903
1.6135
1.29405
1.15679
1.09721
1.0868
1.11105
1.20138
1.38252
1.87322
6.10577
5.22496
5.46834
5.47132
5.93747
6.03902
5.85476
5.34223
4.26671
3.34972
2.58723
2.02815
1.64643
1.40862
1.23346
1.1379
1.13574
1.20699
1.36197
1.72838
5.87203
5.03705
5.31752
5.42253
5.86875
6.00912
6.08384
5.77191
4.78403
3.8831
3.11415
2.52454
2.06749
1.73059
1.44297
1.26085
1.24615
1.2897
1.38616
1.63599
5.68486
4.88232
5.15731
5.33723
5.73874
5.91177
6.08499
6.04268
5.27463
4.41362
3.64463
3.01596
2.48647
2.07534
1.71504
1.48447
1.41908
1.42004
1.45367
1.60402
5.30751
4.5709
4.82522
5.06816
5.37916
5.56294
5.85029
5.98204
5.53738
4.96922
4.35439
3.75161
3.18785
2.70665
2.30258
2.01549
1.82652
1.71259
1.64137
1.63498
18.5591
20.43
21.2758
20.0121
18.9939
18.4511
17.244
15.3194
12.8937
10.8252
9.0943
8.01665
7.31496
6.84665
6.53398
6.26055
6.00883
5.7687
5.57343
5.18457
20.4073
22.1585
22.7872
19.539
18.3789
18.9177
17.9958
15.2524
11.3569
8.41312
6.54271
5.97541
5.77816
5.6178
5.5002
5.35827
5.18685
4.99136
4.82367
4.49346
21.2323
22.7414
21.2447
16.9062
17.4137
19.2501
18.843
15.4516
9.83405
6.18386
4.66545
4.70986
4.92665
5.16906
5.41471
5.47274
5.41831
5.28384
5.12377
4.78151
20.0448
19.464
16.7261
14.1397
15.8235
20.0595
20.7196
18.0745
9.84606
3.30265
3.37642
3.67386
4.19632
4.79324
5.21776
5.43763
5.42619
5.36431
5.271
4.99377
18.9836
18.183
16.8952
14.855
2.47877
2.82084
3.04571
3.3777
3.85257
4.53674
5.23056
5.78612
5.88891
5.84369
5.72872
5.36671
18.3424
18.6604
18.8617
19.7076
3.44294
3.61485
3.63643
3.72517
3.92055
4.30238
4.98949
5.6648
5.98292
5.96802
5.87475
5.51956
17.0547
17.7326
18.5774
20.4234
4.09575
4.07731
3.97325
3.93058
3.96358
4.09245
4.42495
5.03303
5.5814
5.88863
5.91664
5.72774
15.0695
14.9586
15.2116
17.7852
4.15694
3.33104
3.44701
3.53271
3.62834
3.76495
3.9773
4.35614
4.91032
5.41105
5.7794
5.76058
12.6075
11.0467
9.57907
9.62388
2.49111
3.4603
4.09984
4.08293
0.719213
1.11078
1.64681
2.09531
2.44752
2.71974
2.99
3.3329
3.80789
4.34814
4.85739
5.22323
10.5426
8.0981
5.87232
3.1151
2.76649
3.60913
4.09577
3.31602
1.14363
0.574412
0.700836
1.02339
1.45176
1.85933
2.19528
2.51174
2.91366
3.42282
3.94574
4.56968
8.8261
6.26147
4.38488
3.17279
2.95274
3.61821
3.98513
3.45724
1.71356
0.720642
0.575095
0.62651
0.834295
1.17061
1.51936
1.8344
2.18705
2.64951
3.15656
3.90403
7.76478
5.71779
4.44295
3.43988
3.25208
3.69011
3.92862
3.54611
2.16958
1.08142
0.647723
0.628005
0.6626
0.796582
1.04634
1.34395
1.68165
2.09707
2.54724
3.29112
7.08594
5.56549
4.70045
3.94238
3.70375
3.8734
3.96029
3.63769
2.51785
1.53931
0.894324
0.676643
0.676748
0.725868
0.850669
1.07363
1.35928
1.6986
2.05834
2.73768
6.64395
5.43951
4.9991
4.56488
4.38186
4.25514
4.09113
3.7728
2.78653
1.96037
1.25982
0.842656
0.740486
0.759291
0.845068
0.980942
1.17139
1.41604
1.70538
2.30431
6.35381
5.34607
5.27891
5.04525
5.09359
4.93886
4.42985
3.99023
3.05993
2.29824
1.62136
1.12115
0.895592
0.859503
0.889203
0.955995
1.04757
1.19123
1.40593
1.93818
6.10273
5.22398
5.36463
5.33744
5.67569
5.59194
5.02785
4.37629
3.41078
2.62066
1.94591
1.43624
1.14138
1.0263
0.975563
0.976367
1.00047
1.07157
1.22151
1.67991
5.87085
5.06663
5.3128
5.33919
5.79623
5.88258
5.54239
4.92583
3.88806
3.03042
2.31189
1.79407
1.45066
1.25012
1.10177
1.01998
1.01652
1.06844
1.19938
1.55241
5.64694
4.88331
5.18564
5.29441
5.75348
5.87001
5.84058
5.41269
4.4125
3.54001
2.78941
2.23576
1.82323
1.52885
1.28284
1.11587
1.09635
1.12906
1.22186
1.4803
5.46419
4.72632
5.03281
5.20891
5.64062
5.78789
5.87501
5.76481
4.90836
4.05713
3.30363
2.70743
2.2141
1.84597
1.52764
1.30292
1.24402
1.24861
1.29383
1.46455
5.09523
4.41429
4.70355
4.9386
5.2856
5.45371
5.68652
5.74564
5.25688
4.66126
4.04057
3.45575
2.9099
2.46497
2.08462
1.80351
1.63836
1.54699
1.49666
1.49728
18.1825
20.0199
20.7994
19.3033
18.2606
17.7916
16.6408
14.729
12.3621
10.3799
8.70885
7.69104
7.03975
6.61092
6.32318
6.06824
5.8313
5.59833
5.40591
5.02124
20.017
21.733
22.234
18.6116
17.5417
18.246
17.4082
14.6872
10.8585
8.02207
6.21945
5.70114
5.57104
5.45354
5.36123
5.23171
5.06621
4.87461
4.70617
4.37425
20.8027
22.2708
19.8776
15.8588
16.6938
18.6353
18.2596
14.9026
9.34665
5.81508
4.38382
4.45257
4.7293
5.00559
5.27787
5.35085
5.30183
5.17378
5.01608
4.6754
19.3542
18.5402
15.6509
13.3259
14.9275
19.3123
19.9188
17.3001
9.13655
3.05394
3.13288
3.41778
3.95803
4.63806
5.18256
5.38656
5.36083
5.27071
5.15907
4.87032
18.2384
17.3492
16.4257
14.7364
2.40235
2.65391
2.85669
3.16388
3.60348
4.25655
4.9683
5.57682
5.79094
5.76199
5.65846
5.29896
17.7245
18.0739
18.3942
19.0564
3.25688
3.45521
3.47361
3.54796
3.71272
4.01694
4.60259
5.35619
5.84515
5.86682
5.7945
5.45508
16.5245
17.228
18.0649
19.6852
3.91103
3.93688
3.84197
3.77366
3.7924
3.88352
4.11924
4.6289
5.27523
5.66996
5.73556
5.58448
14.5977
14.5236
14.7615
17.1085
3.93591
3.15771
3.28381
3.36893
3.44693
3.5595
3.73071
4.02417
4.50097
5.05816
5.51443
5.54383
12.2042
10.7062
9.24071
9.16651
2.32163
3.21524
3.92008
3.94465
0.635559
0.99076
1.51704
1.95829
2.30539
2.57651
2.81097
3.08784
3.47981
3.99406
4.51573
4.96319
10.206
7.87185
5.70737
2.97377
2.5754
3.3931
3.9017
3.15635
1.07513
0.49795
0.611819
0.919468
1.33678
1.73284
2.06141
2.34339
2.6771
3.13071
3.62801
4.28624
8.51452
6.04231
4.21101
3.0225
2.7629
3.41045
3.79956
3.27762
1.61647
0.641217
0.497551
0.554226
0.75344
1.06417
1.40759
1.71527
2.01425
2.40365
2.86234
3.61474
7.47421
5.47746
4.23957
3.25113
3.05062
3.48335
3.72961
3.35966
2.04529
0.979821
0.57385
0.539971
0.56798
0.695571
0.942897
1.24175
1.54542
1.89029
2.29421
3.03315
6.81595
5.33414
4.46638
3.71366
3.45986
3.6439
3.7485
3.43512
2.3657
1.40765
0.800788
0.578863
0.579447
0.627393
0.756682
0.977564
1.23298
1.51901
1.84838
2.51687
6.39175
5.22522
4.74369
4.34034
4.07051
3.94287
3.84037
3.54494
2.61151
1.80237
1.1355
0.731149
0.63596
0.661198
0.75088
0.883831
1.05883
1.27523
1.53912
2.11968
6.11702
5.14367
5.02391
4.86568
4.75906
4.52034
4.08084
3.71543
2.83897
2.12435
1.47968
0.990874
0.778907
0.757671
0.790793
0.860286
0.953633
1.08382
1.27612
1.77152
5.87483
5.03499
5.14797
5.14303
5.36473
5.2358
4.5862
4.00863
3.12002
2.40597
1.77711
1.28639
1.0056
0.907077
0.871893
0.878647
0.903643
0.962157
1.09097
1.50601
5.65459
4.89069
5.11286
5.14606
5.60862
5.68803
5.18672
4.4818
3.51948
2.74696
2.07744
1.59121
1.27024
1.09997
0.987269
0.91565
0.912003
0.951403
1.05307
1.37846
5.43854
4.71752
5.00509
5.09784
5.59095
5.70586
5.553
5.01382
4.02414
3.20485
2.48282
1.95946
1.57979
1.33708
1.13839
0.987563
0.96409
0.987836
1.06971
1.32642
5.26059
4.56442
4.86565
5.01449
5.49855
5.64066
5.62984
5.44928
4.53428
3.6974
2.95271
2.38878
1.93873
1.62476
1.34986
1.13891
1.0807
1.08755
1.13927
1.32021
4.90081
4.25806
4.55257
4.75949
5.15879
5.32489
5.4876
5.48035
4.96238
4.33842
3.70311
3.14327
2.63467
2.23291
1.87459
1.59467
1.44643
1.37942
1.34586
1.35841
17.9688
19.7712
20.5184
18.9216
17.8802
17.4521
16.3262
14.41
12.0329
10.0852
8.44765
7.4484
6.82673
6.42955
6.17324
5.94044
5.72289
5.50345
5.31628
4.93623
19.7472
21.3817
21.8234
18.1042
17.1515
17.9223
17.1153
14.3956
10.5277
7.73264
5.98159
5.46026
5.36588
5.28779
5.22561
5.126
4.98137
4.80448
4.64103
4.31201
20.4595
21.8045
19.0185
15.2717
16.4626
18.3987
17.9909
14.6306
9.00932
5.53188
4.15991
4.22679
4.50925
4.81245
5.10639
5.23758
5.20863
5.10396
4.95681
4.62242
18.8714
17.8931
15.0379
12.8399
14.6546
18.9081
19.4304
16.8525
8.8704
2.88449
2.9483
3.20485
3.72074
4.42465
5.06805
5.33328
5.31881
5.22498
5.10095
4.80431
17.7502
16.8304
16.0302
14.332
2.23728
2.49718
2.6832
2.96847
3.38595
4.01216
4.74288
5.38412
5.69932
5.6929
5.61235
5.27212
17.3273
17.6733
18.062
18.699
3.0876
3.29094
3.32488
3.40656
3.56454
3.83548
4.3531
5.10725
5.69236
5.80133
5.74401
5.43019
16.1932
16.9145
17.7758
19.2447
3.75438
3.80511
3.72432
3.65867
3.67087
3.74416
3.9376
4.37042
5.02759
5.48872
5.62059
5.48993
14.3076
14.2498
14.4967
16.6916
3.85593
3.05493
3.18117
3.26948
3.33808
3.43091
3.57341
3.82186
4.24351
4.8105
5.31848
5.41017
11.9623
10.4788
9.01239
8.79837
2.18313
3.03018
3.68817
3.65771
0.585888
0.926567
1.44059
1.87847
2.21608
2.47836
2.69572
2.94318
3.29314
3.7812
4.301
4.79665
10.0282
7.73388
5.59367
2.89699
2.4749
3.24945
3.70633
2.97401
1.00983
0.45788
0.565558
0.857207
1.25123
1.63735
1.968
2.24343
2.54428
2.96017
3.43293
4.10638
8.37678
5.95485
4.1508
2.94921
2.65452
3.27395
3.62865
3.1089
1.53179
0.598298
0.45368
0.509041
0.699826
0.998812
1.33502
1.6388
1.91164
2.25761
2.68103
3.4328
7.3498
5.38892
4.17678
3.18438
2.93609
3.35075
3.58038
3.20426
1.94651
0.923403
0.530041
0.491223
0.515432
0.636781
0.878403
1.16679
1.44882
1.76487
2.1422
2.87557
6.70089
5.24738
4.39591
3.65802
3.34346
3.50745
3.6
3.28319
2.25601
1.32788
0.748355
0.523237
0.520549
0.56854
0.695871
0.904886
1.14918
1.41219
1.7258
2.38584
6.2847
5.14218
4.65435
4.29144
3.93765
3.78176
3.68577
3.38982
2.49749
1.70621
1.05957
0.662956
0.572941
0.59943
0.687178
0.817469
0.98818
1.19264
1.44286
2.00273
6.01535
5.06391
4.92532
4.84609
4.61083
4.30085
3.89483
3.54748
2.71363
2.02245
1.38937
0.91584
0.707452
0.690193
0.724308
0.796724
0.89494
1.02756
1.19972
1.65884
5.77479
4.95662
5.04911
5.09474
5.21663
5.0262
4.33966
3.80923
2.96974
2.2925
1.68446
1.20266
0.922184
0.831887
0.803002
0.815219
0.847151
0.898796
1.00848
1.39522
5.5575
4.81388
5.02127
5.09004
5.51052
5.56913
4.9657
4.2375
3.33406
2.6037
1.96261
1.48642
1.1727
1.01401
0.914996
0.854333
0.851678
0.873087
0.959068
1.26922
5.3431
4.64357
4.9234
5.02277
5.50539
5.63931
5.38778
4.78374
3.82047
3.03194
2.32986
1.81995
1.4518
1.23298
1.06085
0.91482
0.879034
0.896671
0.970069
1.22914
5.164
4.48987
4.78999
4.92742
5.42971
5.58167
5.50594
5.25971
4.32781
3.50396
2.76691
2.21988
1.79044
1.50322
1.25013
1.03859
0.972848
0.979181
1.03564
1.22991
4.80334
4.18186
4.482
4.66965
5.10734
5.27829
5.38086
5.33601
4.7959
4.15645
3.51215
2.96342
2.4749
2.09011
1.73704
1.45708
1.31233
1.26426
1.2522
1.27122
17.9677
19.776
20.5212
18.9108
17.8736
17.4665
16.3425
14.4152
12.0302
10.0765
8.42431
7.41989
6.80406
6.41367
6.16408
5.9362
5.72211
5.50537
5.31988
4.94123
19.7324
21.3761
21.8276
18.0525
17.1561
17.9598
17.1427
14.4101
10.5381
7.74758
5.97073
5.42367
5.33142
5.26342
5.21216
5.12151
4.98134
4.80661
4.64444
4.31683
20.4396
21.7866
18.9717
15.1572
16.5654
18.481
18.0304
14.6474
9.02354
5.57706
4.16697
4.20708
4.46455
4.77622
5.08599
5.23488
5.20862
5.10741
4.96304
4.63123
18.8587
17.895
15.0419
12.668
14.9035
18.8991
19.3573
16.7909
8.7278
2.9092
2.97432
3.21557
3.70489
4.39608
5.04114
5.32132
5.31322
5.22819
5.11005
4.8181
17.725
16.7722
15.8832
13.8777
2.10818
2.4999
2.68662
2.96732
3.378
3.99209
4.71623
5.36099
5.69467
5.69411
5.62021
5.28531
17.2914
17.6107
17.9619
18.5444
2.98507
3.29934
3.32743
3.40495
3.56246
3.83229
4.34681
5.10582
5.69346
5.80873
5.7521
5.44038
16.1592
16.8597
17.7106
19.0814
3.66226
3.82995
3.74515
3.67429
3.68561
3.75663
3.94586
4.37475
5.0315
5.48637
5.62104
5.49206
14.2889
14.2217
14.4711
16.5753
3.74579
3.07457
3.19652
3.28181
3.35098
3.4448
3.58524
3.82979
4.2475
4.8112
5.31293
5.40864
11.9662
10.4892
9.02907
8.87262
2.1482
2.96052
3.60523
3.59006
0.577165
0.95942
1.47485
1.9015
2.22819
2.48526
2.69993
2.94511
3.29191
3.77661
4.29123
4.7882
10.0421
7.74525
5.59532
2.87702
2.4721
3.25928
3.75627
3.00422
0.993362
0.456306
0.572867
0.870174
1.26431
1.64516
1.9703
2.24267
2.53936
2.95135
3.41954
4.0929
8.40402
5.97915
4.17695
2.95259
2.66474
3.28855
3.67815
3.13999
1.51792
0.591408
0.451151
0.508177
0.701168
0.998391
1.33127
1.63255
1.90426
2.2479
2.66813
3.41717
7.38873
5.43516
4.21845
3.22039
2.95882
3.36765
3.6216
3.23601
1.94672
0.911368
0.522957
0.495275
0.520143
0.640217
0.877933
1.16301
1.44335
1.7567
2.13082
2.85921
6.74227
5.30117
4.45574
3.72653
3.38166
3.52726
3.63819
3.31307
2.26844
1.32156
0.739139
0.527765
0.527148
0.574378
0.699059
0.905368
1.14536
1.40344
1.71376
2.37134
6.32385
5.1949
4.71672
4.37158
3.99533
3.80723
3.71937
3.41665
2.5139
1.70899
1.05963
0.668022
0.579302
0.605729
0.692799
0.821708
0.98862
1.18978
1.43659
1.99325
6.04883
5.10981
4.98464
4.92199
4.67566
4.34008
3.92659
3.57067
2.72828
2.03279
1.40185
0.920962
0.713633
0.696217
0.729282
0.799704
0.896807
1.02601
1.19449
1.64904
5.80254
4.99208
5.08734
5.14147
5.26705
5.07768
4.37863
3.83205
2.9834
2.30475
1.69937
1.20922
0.928739
0.835707
0.805764
0.817084
0.846528
0.895986
1.00317
1.38731
5.57882
4.84012
5.05275
5.12685
5.53845
5.60814
5.01221
4.26364
3.34784
2.6142
1.97202
1.4922
1.17873
1.01841
0.916607
0.853151
0.850117
0.870585
0.955229
1.26393
5.35856
4.66227
4.94545
5.04644
5.52755
5.66317
5.41747
4.82028
3.84187
3.04306
2.33538
1.82454
1.46069
1.2395
1.06098
0.913263
0.876984
0.893381
0.966155
1.22646
5.1749
4.50285
4.80415
4.94184
5.4465
5.60199
5.51797
5.27782
4.34604
3.51541
2.77274
2.22395
1.79947
1.50772
1.25102
1.03914
0.970948
0.976569
1.03338
1.22802
4.80857
4.18803
4.48769
4.67439
5.11804
5.28988
5.38702
5.3345
4.80092
4.16389
3.52016
2.97316
2.48444
2.09554
1.73986
1.45843
1.31076
1.26539
1.25212
1.26978
18.171
20.0137
20.8176
19.3047
18.2853
17.8246
16.6638
14.7153
12.3079
10.3227
8.64306
7.6266
6.99257
6.58006
6.30565
6.06089
5.83218
5.60582
5.41747
5.03644
19.9526
21.6653
22.2304
18.574
17.6115
18.34
17.4609
14.6855
10.7851
7.96145
6.15635
5.61952
5.50613
5.41081
5.33605
5.22089
5.06398
4.87815
4.71337
4.38596
20.6957
22.1264
19.719
15.7122
16.9568
18.8366
18.3395
14.9066
9.23567
5.74838
4.33222
4.38545
4.64866
4.9406
5.23946
5.3447
5.3012
5.17949
5.02611
4.69081
19.2792
18.4107
15.5324
12.8988
15.211
19.2312
19.6535
17.0524
8.85518
3.02276
3.10104
3.37778
3.89937
4.57382
5.14738
5.38027
5.36148
5.27856
5.17243
4.89168
18.1455
17.1877
16.1311
13.9242
2.21461
2.62741
2.82313
3.1223
3.55553
4.19806
4.91588
5.54014
5.78805
5.76665
5.67155
5.32163
17.6322
17.9323
18.2063
18.7432
3.12456
3.44761
3.46817
3.54577
3.71302
4.01321
4.58293
5.34039
5.84945
5.87894
5.80921
5.47571
16.4525
17.1256
17.9544
19.2824
3.83761
3.97
3.87312
3.79758
3.81315
3.89899
4.12574
4.62183
5.2666
5.66519
5.74204
5.59532
14.5552
14.4505
14.673
16.7913
3.87612
3.1935
3.31383
3.39125
3.46146
3.56801
3.73436
4.02136
4.49353
5.0547
5.5154
5.55051
12.2004
10.672
9.1725
8.80811
2.15262
3.07828
3.79136
3.83409
0.606226
1.03102
1.56188
1.99378
2.32379
2.58083
2.81099
3.0884
3.48046
3.99227
4.51201
4.96396
10.2347
7.88229
5.69856
2.99332
2.59603
3.41502
3.94455
3.16535
1.03599
0.495868
0.622199
0.936607
1.34891
1.7379
2.06354
2.34542
2.67911
3.13045
3.62291
4.28185
8.57507
6.10532
4.28147
3.06365
2.78107
3.43283
3.84342
3.29764
1.58054
0.627459
0.493866
0.55481
0.756819
1.06694
1.40723
1.71078
2.00976
2.40186
2.85788
3.60802
7.55651
5.58281
4.33655
3.33585
3.07939
3.50931
3.76815
3.38214
2.02155
0.956454
0.56176
0.539877
0.568973
0.698322
0.943084
1.23821
1.53836
1.88429
2.28775
3.02604
6.90181
5.4406
4.58757
3.85596
3.51572
3.67629
3.78582
3.45787
2.35955
1.39088
0.782217
0.574756
0.578509
0.629776
0.760324
0.978295
1.22901
1.51376
1.8443
2.51394
6.47106
5.31858
4.84941
4.50987
4.16057
3.98405
3.87657
3.56815
2.6192
1.79657
1.11736
0.720895
0.635181
0.664108
0.757602
0.893024
1.06652
1.27954
1.53854
2.11493
6.18366
5.22247
5.12121
5.02915
4.85755
4.57209
4.11578
3.73906
2.85199
2.12781
1.47228
0.982755
0.778309
0.762749
0.797918
0.868665
0.961835
1.08609
1.27243
1.76352
5.93066
5.09442
5.20416
5.23496
5.45864
5.31431
4.62785
4.03507
3.13568
2.41185
1.78085
1.28868
1.0108
0.913569
0.878454
0.884088
0.904181
0.957963
1.08372
1.49671
5.69838
4.9332
5.158
5.21177
5.66179
5.76075
5.25093
4.51283
3.53694
2.75232
2.08371
1.6024
1.28222
1.1088
0.991445
0.91471
0.909951
0.9474
1.04598
1.37011
5.47154
4.7474
5.03519
5.13028
5.63216
5.76186
5.6104
5.06818
4.04879
3.21231
2.4881
1.96976
1.59111
1.34617
1.13938
0.984219
0.960698
0.982331
1.06208
1.31877
5.28516
4.58498
4.88393
5.02771
5.52753
5.68012
5.65239
5.48617
4.56038
3.71103
2.96137
2.39815
1.94666
1.63005
1.3488
1.13607
1.07594
1.08137
1.13304
1.31394
4.91392
4.26679
4.55777
4.75569
5.17275
5.33897
5.49822
5.49606
4.97726
4.35146
3.71465
3.15479
2.6405
2.23415
1.87315
1.59239
1.44208
1.37671
1.34388
1.35415
18.5745
20.4549
21.309
20
19.0131
18.4539
17.2176
15.2502
12.7942
10.743
9.03311
7.97828
7.29837
6.84482
6.53802
6.26918
6.0211
5.78356
5.59012
5.20302
20.3798
22.1415
22.8188
19.4978
18.4324
18.9686
17.9877
15.1829
11.2101
8.28888
6.46318
5.92847
5.75988
5.61737
5.50904
5.3709
5.20006
5.00471
4.83801
4.51004
21.1575
22.636
21.1475
16.843
17.5699
19.3826
18.86
15.3939
9.64336
6.01112
4.57005
4.63991
4.89504
5.16182
5.4268
5.49221
5.4369
5.30038
5.13931
4.79834
19.9874
19.3611
16.6183
13.5441
15.6607
19.8062
20.2788
17.6174
9.29125
3.22036
3.29276
3.59768
4.14341
4.77389
5.2412
5.47058
5.45632
5.39097
5.29609
5.01847
18.8984
18.0508
16.7469
14.382
2.37484
2.79602
3.00479
3.32729
3.80317
4.49987
5.2158
5.79448
5.91445
5.8709
5.7553
5.39037
18.2617
18.5467
18.7295
19.3136
3.25437
3.60602
3.63278
3.72641
3.92364
4.30087
4.98306
5.67526
6.00523
5.9916
5.9
5.54579
16.9887
17.6281
18.4619
19.8896
3.9711
4.10823
4.00521
3.948
3.97857
4.10383
4.42718
5.02761
5.58236
5.89876
5.93604
5.75081
15.0417
14.8999
15.1174
17.3189
4.00135
3.31636
3.44742
3.53302
3.62322
3.75583
3.96603
4.33942
4.89369
5.4066
5.79185
5.77882
12.6163
11.0237
9.51703
9.36643
2.36609
3.26424
3.96374
3.96811
0.671353
1.08973
1.63374
2.08695
2.43885
2.7099
2.98117
3.32552
3.80029
4.34005
4.85303
5.23075
10.5745
8.11462
5.86467
3.13196
2.77799
3.616
4.11267
3.32452
1.13517
0.561113
0.685925
1.01062
1.44353
1.85593
2.19454
2.51086
2.90972
3.41678
3.93933
4.57259
8.87709
6.31515
4.43529
3.20152
2.98267
3.63747
4.01073
3.46157
1.69962
0.704436
0.561263
0.614414
0.826742
1.16813
1.51895
1.8335
2.1825
2.64531
3.15511
3.90914
7.82757
5.79995
4.51408
3.49805
3.29839
3.72317
3.95996
3.55476
2.15791
1.05816
0.627044
0.617935
0.653969
0.79034
1.04206
1.34006
1.67676
2.09455
2.54995
3.2988
7.14614
5.64069
4.78832
4.04068
3.7738
3.91541
3.99262
3.65187
2.51383
1.51896
0.869329
0.664418
0.667007
0.72018
0.847543
1.07204
1.35842
1.69992
2.06306
2.74278
6.69703
5.50117
5.06905
4.6773
4.47678
4.29893
4.12277
3.79058
2.78727
1.94856
1.2376
0.824176
0.730725
0.753212
0.845011
0.987105
1.17987
1.4229
1.70833
2.3037
6.39673
5.39749
5.34191
5.15566
5.18796
4.988
4.45805
4.00812
3.06272
2.29209
1.60522
1.10202
0.88161
0.855501
0.889858
0.959512
1.05219
1.19262
1.40417
1.93342
6.13874
5.26384
5.40345
5.39132
5.75723
5.67591
5.06718
4.39511
3.41429
2.61378
1.93121
1.41898
1.12803
1.02317
0.975428
0.976932
0.999595
1.06838
1.21505
1.67157
5.89934
5.09568
5.3441
5.37436
5.84958
5.969
5.60497
4.95223
3.89506
3.02204
2.29474
1.77617
1.44033
1.24689
1.09825
1.01684
1.0138
1.06375
1.19112
1.54299
5.66886
4.90368
5.20457
5.30677
5.79956
5.94523
5.89604
5.45327
4.42737
3.53294
2.77147
2.21836
1.81399
1.52394
1.27671
1.10974
1.0893
1.12092
1.21242
1.47158
5.48064
4.7399
5.04244
5.20953
5.67518
5.84326
5.91488
5.80156
4.92784
4.05716
3.29245
2.69481
2.20637
1.84111
1.52196
1.2933
1.23386
1.23821
1.28405
1.45664
5.10355
4.41886
4.70403
4.92983
5.30163
5.4796
5.71354
5.77416
5.27262
4.66589
4.03818
3.45094
2.90683
2.46166
2.07693
1.79059
1.62588
1.53656
1.48889
1.48959
18.9631
20.9003
21.8289
20.8247
19.882
19.1759
17.8645
15.8794
13.3798
11.2488
9.48147
8.37483
7.6435
7.14573
6.80592
6.51342
6.24655
5.99782
5.79859
5.4023
20.8411
22.6637
23.4265
20.7168
19.5963
19.7444
18.6681
15.8397
11.7852
8.71747
6.83465
6.26949
6.04249
5.84281
5.69188
5.52927
5.34755
5.14968
4.98475
4.65616
21.6985
23.2589
23.0733
18.4896
18.4239
20.0756
19.545
16.0606
10.2163
6.34226
4.83575
4.92176
5.17265
5.44239
5.65603
5.66063
5.58181
5.42391
5.25456
4.90644
20.8052
20.6228
18.1518
14.5878
16.2619
20.4893
21.0139
18.3286
10.0543
3.3926
3.47318
3.81433
4.38223
4.9559
5.35603
5.57628
5.5668
5.50606
5.41135
5.13107
19.7972
19.292
17.6964
15.0228
2.58401
2.98973
3.20325
3.54751
4.07774
4.81639
5.53834
6.00338
6.01652
5.94674
5.81246
5.44495
18.9942
19.3295
19.4491
20.0059
3.47882
3.82724
3.84538
3.93516
4.15535
4.62687
5.35034
5.91336
6.07112
6.04227
5.94527
5.59597
17.6044
18.251
19.1038
20.618
4.17356
4.32328
4.20251
4.15059
4.19028
4.35363
4.77317
5.39676
5.84513
6.07703
6.0809
5.85526
15.6185
15.4683
15.6657
17.9965
4.20258
3.56648
3.6863
3.76059
3.85759
3.99994
4.24898
4.71291
5.29137
5.73195
6.01912
5.96668
13.1125
11.4547
9.91961
9.76252
2.53803
3.49681
4.20506
4.19914
0.750545
1.21672
1.78158
2.25947
2.62021
2.90259
3.21305
3.62126
4.15938
4.69344
5.19139
5.47608
10.9895
8.43395
6.11029
3.32623
3.00316
3.8673
4.3573
3.57281
1.28655
0.669051
0.801391
1.1491
1.59957
2.01867
2.36515
2.73019
3.19491
3.73527
4.27654
4.85913
9.24083
6.61006
4.66372
3.40379
3.22263
3.88543
4.2381
3.70776
1.88288
0.83698
0.670985
0.723292
0.947898
1.30336
1.66141
2.00088
2.41604
2.93967
3.47918
4.21098
8.14691
6.0765
4.76114
3.73499
3.56646
3.97637
4.19604
3.79195
2.36072
1.22867
0.748153
0.727127
0.767233
0.916687
1.17497
1.48605
1.87347
2.35354
2.84115
3.58591
7.42517
5.86625
5.03448
4.29236
4.10396
4.19898
4.23938
3.89701
2.71267
1.69828
1.0124
0.783691
0.78431
0.829516
0.960586
1.19965
1.52176
1.91573
2.31975
3.01641
6.94845
5.68505
5.32172
4.87295
4.84378
4.6766
4.41049
4.0491
2.99486
2.12172
1.3913
0.963584
0.845905
0.860951
0.950974
1.09698
1.31193
1.60068
1.92463
2.54222
6.62943
5.55962
5.56704
5.30183
5.54279
5.38914
4.83598
4.31254
3.31167
2.47324
1.76074
1.24819
1.00801
0.968584
1.00053
1.06991
1.16495
1.32842
1.5736
2.14437
6.36446
5.41637
5.57443
5.516
5.9933
5.95889
5.45564
4.79101
3.72849
2.85238
2.11815
1.58169
1.27284
1.14819
1.09353
1.08801
1.112
1.20153
1.38327
1.87653
6.11987
5.24685
5.49625
5.50359
6
6.10906
5.89939
5.36049
4.26722
3.32914
2.5539
1.99364
1.62342
1.39791
1.22818
1.13483
1.13307
1.20402
1.3576
1.72735
5.88772
5.05808
5.34123
5.44472
5.92626
6.07322
6.12785
5.79666
4.7893
3.86615
3.08412
2.49265
2.04427
1.71642
1.43322
1.25109
1.23607
1.28043
1.37841
1.63275
5.69961
4.90075
5.17747
5.35363
5.78673
5.96454
6.12692
6.07134
5.28386
4.403
3.62119
2.98851
2.46353
2.05849
1.70061
1.4671
1.40284
1.4051
1.44228
1.59829
5.31833
4.58346
4.83874
5.07645
5.40879
5.59518
5.88144
6.00892
5.54967
4.96639
4.33997
3.73099
3.16727
2.68733
2.28211
1.99063
1.80404
1.69378
1.62908
1.62652
20.0316
22.0285
22.9634
22.2662
21.3314
20.5169
19.1207
17.0309
14.4223
12.145
10.2848
9.09803
8.31716
7.77982
7.40292
7.08344
6.80532
6.54348
6.33042
5.90501
21.9681
23.9128
24.7613
22.4004
21.2088
20.9939
19.8358
16.9082
12.6836
9.41541
7.45442
6.84875
6.58215
6.34836
6.16223
5.97654
5.78877
5.58731
5.41627
5.06933
22.81
24.6094
25.1952
20.3634
19.6585
21.0901
20.5688
16.976
10.9362
6.86043
5.30122
5.41126
5.67625
5.94161
6.10816
6.08965
5.99093
5.81931
5.63858
5.27182
22.1997
22.3042
19.9977
16.2144
17.0869
21.1826
21.867
19.1809
10.6715
3.65233
3.78471
4.2103
4.86254
5.41604
5.79872
5.98194
5.96182
5.88413
5.77175
5.46933
21.2068
20.8831
18.946
15.9002
2.80172
3.19415
3.46194
3.88058
4.53164
5.34763
6.07779
6.40598
6.37911
6.26711
6.11038
5.7361
20.2908
20.5219
20.4216
20.6696
3.71125
4.04093
4.08566
4.21951
4.51838
5.13937
5.90269
6.38286
6.42567
6.37008
6.24538
5.88088
18.8127
19.3253
19.9933
21.4129
4.35509
4.51033
4.43421
4.44069
4.52141
4.77845
5.32819
5.9734
6.38074
6.50459
6.47619
6.18971
16.7299
16.4484
16.4031
18.7242
4.47206
3.77349
3.92301
4.03684
4.18845
4.38883
4.72624
5.29589
5.89459
6.30207
6.50585
6.39996
14.1073
12.2217
10.3757
9.91299
2.78015
3.76562
4.43952
4.45272
0.860624
1.31188
1.92654
2.46767
2.8829
3.21906
3.59136
4.07761
4.68905
5.25357
5.75402
5.95198
11.8578
9.07294
6.51823
3.57217
3.28075
4.1405
4.6035
3.87415
1.46451
0.78519
0.926431
1.31742
1.80757
2.25696
2.65104
3.09153
3.64663
4.24339
4.81273
5.35019
10.0278
7.24191
5.14237
3.72326
3.54856
4.18131
4.53308
4.02683
2.11914
0.986775
0.800239
0.861713
1.10791
1.49547
1.90061
2.30454
2.79855
3.37843
3.94305
4.66677
8.85489
6.67558
5.27799
4.15125
3.95043
4.30796
4.53994
4.14058
2.64354
1.4386
0.901409
0.865485
0.914577
1.09313
1.39988
1.76199
2.19518
2.71039
3.22287
3.98991
8.08235
6.4099