/*--------------------------------*- C++ -*----------------------------------*\
  =========                 |
  \\      /  F ield         | OpenFOAM: The Open Source CFD Toolbox
   \\    /   O peration     | Website:  https://openfoam.org
    \\  /    A nd           | Version:  9
     \\/     M anipulation  |
\*---------------------------------------------------------------------------*/
FoamFile
{
    format      ascii;
    class       volScalarField;
    location    "0.004";
    object      rho.Air;
}
// * * * * * * * * * * * * * * * * * * * * * * * * * * * * * * * * * * * * * //

dimensions      [1 -3 0 0 0 0 0];

internalField   nonuniform List<scalar> 
9720
(
0.015239
0.0180078
0.0185755
0.0181427
0.0174825
0.0167634
0.0156226
0.0140441
0.0120031
0.0103905
0.00899988
0.008018
0.00731151
0.0068452
0.0065608
0.0062735
0.00598655
0.00565693
0.00539725
0.00467902
0.017981
0.0226865
0.0233602
0.0205777
0.0191358
0.0187345
0.0177853
0.0151227
0.0117953
0.00916756
0.00755451
0.00710439
0.00685857
0.00657186
0.00625328
0.00590532
0.00557649
0.00521298
0.00493977
0.0041723
0.018495
0.0232544
0.0236847
0.0181798
0.0172291
0.0186232
0.0183229
0.0151026
0.00974473
0.00607466
0.00459425
0.00471992
0.00504304
0.00550204
0.00583708
0.00584336
0.00573959
0.00548643
0.00522102
0.00435002
0.0180666
0.020558
0.0182025
0.0152722
0.014812
0.0188808
0.0196777
0.0173829
0.00985084
0.00270272
0.00242681
0.00261877
0.0030839
0.00369177
0.0042894
0.00487687
0.00506838
0.00502359
0.00491061
0.00425077
0.0173316
0.0190087
0.0170339
0.0147218
0.00234269
0.00080793
0.000858235
0.000994268
0.00128036
0.00177105
0.0024318
0.00319366
0.00383493
0.00406622
0.00406403
0.00372014
0.0165075
0.0184517
0.0182605
0.0184893
0.00102031
0.000326144
0.000343446
0.000382552
0.000459468
0.000625233
0.000929654
0.00137071
0.00188877
0.00236025
0.00270714
0.00266818
0.015303
0.0173808
0.0178309
0.01918
0.000536149
0.00017585
0.000181109
0.000193297
0.000214838
0.000253159
0.000329481
0.000463271
0.000658786
0.000931396
0.00122334
0.0015315
0.0137181
0.0147432
0.0146377
0.0168139
0.000295512
0.000106337
0.000115853
0.000130281
0.000149816
0.000176396
0.000215511
0.000279455
0.000367444
0.000484175
0.00062263
0.000876936
0.0117051
0.0115241
0.00941206
0.0092387
0.00226091
0.00110399
0.00065683
0.000384364
3.12186e-05
3.05966e-05
4.3939e-05
6.17075e-05
8.25277e-05
0.000107224
0.000140215
0.000186346
0.000248726
0.000325081
0.000405612
0.000591077
0.0101316
0.00899392
0.00587984
0.00259752
0.000861782
0.000396532
0.000223248
0.000130838
3.54386e-05
1.99811e-05
2.22567e-05
3.0023e-05
4.42808e-05
6.49565e-05
9.24478e-05
0.00013069
0.00018378
0.000252741
0.000323646
0.000488544
0.00875977
0.00743348
0.00444944
0.00240556
0.000914885
0.000413359
0.00022876
0.000142744
5.19387e-05
2.29123e-05
2.32843e-05
2.65713e-05
3.34137e-05
4.44126e-05
6.0641e-05
8.73083e-05
0.000131672
0.000197302
0.000267683
0.00042932
0.00778524
0.00693846
0.00455297
0.00258157
0.0010677
0.000457556
0.000243153
0.000158916
7.24755e-05
3.1842e-05
2.72303e-05
2.85047e-05
3.38283e-05
4.37626e-05
5.80766e-05
7.65644e-05
0.000106944
0.000160795
0.000225598
0.000382281
0.00708536
0.00664349
0.00483874
0.00299837
0.00137242
0.000548949
0.000270988
0.000181453
9.60062e-05
4.75918e-05
3.4281e-05
3.45224e-05
3.73093e-05
4.5546e-05
6.00451e-05
7.8604e-05
0.000104043
0.00014048
0.000189584
0.000334967
0.0066304
0.00633038
0.00524652
0.0035507
0.0018643
0.000740712
0.00032276
0.000213795
0.000124688
7.05964e-05
4.50794e-05
4.43352e-05
4.60526e-05
5.22135e-05
6.50097e-05
8.36057e-05
0.000107819
0.000142553
0.000182115
0.000303806
0.00636232
0.00602277
0.00557633
0.00410892
0.00250382
0.0010734
0.000424221
0.000263352
0.000163715
0.000101652
6.16826e-05
5.80625e-05
6.03375e-05
6.56547e-05
7.61288e-05
9.30759e-05
0.000115911
0.000148271
0.000185613
0.000294755
0.00609677
0.00570071
0.0055969
0.00468416
0.0032479
0.00153373
0.000591803
0.000344217
0.000218658
0.00014532
9.04188e-05
7.6564e-05
7.87847e-05
8.44531e-05
9.41183e-05
0.000107317
0.00012615
0.000156761
0.000195666
0.000300785
0.0058309
0.00540244
0.00552249
0.00495039
0.00389775
0.00207562
0.00082951
0.000452842
0.000291859
0.000205357
0.000138923
0.000108497
0.000105274
0.000109258
0.000118111
0.000128406
0.000143094
0.000172886
0.00021217
0.000310605
0.00552885
0.00507607
0.00531616
0.00492502
0.0041408
0.00258336
0.00114112
0.000592849
0.00037862
0.000281329
0.000209974
0.000166359
0.000144225
0.000146055
0.000152204
0.000161339
0.000176483
0.000204468
0.000236355
0.00032354
0.00529443
0.00483474
0.00509287
0.00483988
0.00414053
0.00292371
0.00149231
0.000765113
0.000472764
0.000360511
0.000287312
0.000237211
0.000198471
0.000188424
0.000191817
0.000202139
0.000218498
0.00024001
0.000265047
0.000340217
0.00462868
0.00413313
0.00431104
0.00425832
0.0038149
0.00286298
0.00179063
0.0010609
0.000695359
0.000553287
0.000472615
0.000413692
0.000359498
0.000322474
0.00030903
0.00031415
0.000323123
0.000334258
0.000348595
0.000656367
0.0131855
0.016149
0.0165997
0.0160608
0.0153898
0.0146924
0.0136458
0.0122503
0.0105029
0.00902745
0.00773726
0.00686519
0.00623498
0.00580586
0.00553989
0.00527285
0.00498739
0.00466371
0.00441909
0.00375148
0.0161606
0.0231767
0.0242335
0.0202055
0.0187055
0.017997
0.0169645
0.0144577
0.0114147
0.00908193
0.00752862
0.00687842
0.00642521
0.00598325
0.00557942
0.00515296
0.00475328
0.00432285
0.00400921
0.00318136
0.0166063
0.0241532
0.0252053
0.0183724
0.0160595
0.0177268
0.0172449
0.0144085
0.00911692
0.00518849
0.00366088
0.00379843
0.00413902
0.00462683
0.00504383
0.00506553
0.00493955
0.00461277
0.00426691
0.00322047
0.0162065
0.0204609
0.0185515
0.0145715
0.0182318
0.0242531
0.0291136
0.0269938
0.0107346
0.00105766
0.00111986
0.00134129
0.00173896
0.00229752
0.0029619
0.00365614
0.00390202
0.00385906
0.00373129
0.00298606
0.0153864
0.0187394
0.0159281
0.0170599
0.000497926
6.3455e-05
0.000141491
0.000240822
0.000392629
0.000660953
0.00110058
0.00167993
0.00221902
0.00254084
0.00257652
0.00230068
0.0144664
0.0177497
0.0173504
0.023786
9.99765e-06
2.98824e-05
5.39467e-05
8.10609e-05
0.000116884
0.000182455
0.000315525
0.000530185
0.000803499
0.00109399
0.00134877
0.00135891
0.0132833
0.0165321
0.0167839
0.0292007
2.40366e-05
4.18621e-05
5.45975e-05
6.75677e-05
8.17378e-05
9.98011e-05
0.000130211
0.000185839
0.000264859
0.000380807
0.00051442
0.000677263
0.0118362
0.014021
0.0138576
0.0271709
4.92924e-05
5.4475e-05
6.31548e-05
7.37114e-05
8.70268e-05
0.000104383
0.00012824
0.000166079
0.000219016
0.000286659
0.000357348
0.000461169
0.0100995
0.0110592
0.00869398
0.0104052
0.000434517
6.16498e-06
1.48812e-05
3.04543e-05
1.33176e-05
2.24723e-05
3.41478e-05
4.77207e-05
6.27419e-05
8.02626e-05
0.000103468
0.000135224
0.000178925
0.000233719
0.000291618
0.000393376
0.00867429
0.00879935
0.0049474
0.00102192
5.88793e-05
2.70109e-05
3.40522e-05
4.15619e-05
2.01085e-05
1.58685e-05
1.84645e-05
2.60388e-05
3.90091e-05
5.65353e-05
7.82891e-05
0.000106621
0.000145593
0.000197866
0.000255019
0.000370351
0.00743423
0.00736822
0.00353206
0.00110338
0.000142367
5.43353e-05
4.88352e-05
5.19525e-05
2.96201e-05
1.80825e-05
1.90718e-05
2.24463e-05
2.91252e-05
4.00189e-05
5.51196e-05
7.71655e-05
0.000111344
0.000162404
0.000220723
0.000346347
0.0065977
0.00672136
0.0036792
0.0013397
0.000254799
8.62004e-05
6.41916e-05
6.45673e-05
4.201e-05
2.43113e-05
2.23727e-05
2.40675e-05
2.93464e-05
3.78167e-05
4.99369e-05
6.62274e-05
9.27859e-05
0.000137971
0.000192349
0.000318977
0.00598314
0.00623126
0.00401718
0.0017319
0.000426982
0.000129954
8.16595e-05
8.03306e-05
5.72444e-05
3.57371e-05
2.88123e-05
2.93961e-05
3.20575e-05
3.88865e-05
5.11616e-05
6.81668e-05
9.12231e-05
0.00012378
0.000166346
0.000285222
0.00557035
0.00575581
0.00447304
0.00227779
0.000722647
0.000210349
0.000104821
0.000100875
7.60988e-05
5.27312e-05
3.84256e-05
3.79158e-05
3.9091e-05
4.3983e-05
5.56006e-05
7.30001e-05
9.45013e-05
0.000123539
0.000155898
0.0002563
0.00532941
0.00535652
0.00487557
0.00293154
0.00118998
0.000366792
0.000146446
0.000129732
0.000100981
7.49137e-05
5.2094e-05
4.97575e-05
5.13519e-05
5.60799e-05
6.62045e-05
8.10697e-05
9.98765e-05
0.000125858
0.00015736
0.000250371
0.00508994
0.00495978
0.00490514
0.00362044
0.00179075
0.000608981
0.000219822
0.000174786
0.000135696
0.00010458
7.35189e-05
6.54765e-05
6.76884e-05
7.33051e-05
8.19533e-05
9.21293e-05
0.000106564
0.000130923
0.000163679
0.000255834
0.00483696
0.00459663
0.00479429
0.00389492
0.00233962
0.000910241
0.00032285
0.000237261
0.000183635
0.000145597
0.000108111
9.05366e-05
9.08429e-05
9.46088e-05
0.000101377
0.000108442
0.000119108
0.000142387
0.000176125
0.000265646
0.0045502
0.00421187
0.00450426
0.00386038
0.0026606
0.00123949
0.000467983
0.000315603
0.000242862
0.000200212
0.000160324
0.000135127
0.0001228
0.000124117
0.000128298
0.000134592
0.000145287
0.000168256
0.000197831
0.000278156
0.00433545
0.00393703
0.0042
0.0037501
0.00269563
0.00150848
0.000636532
0.000400918
0.000306483
0.000260618
0.000220993
0.00019117
0.000165571
0.000157813
0.000160156
0.000167764
0.000180631
0.00020052
0.00022426
0.000292653
0.00372005
0.00317526
0.00322914
0.0030462
0.00241288
0.00150076
0.000809708
0.000529119
0.000423923
0.000387471
0.000356595
0.00032641
0.000290297
0.00026111
0.000254898
0.000260749
0.000271604
0.000284262
0.000297724
0.000501653
0.0092368
0.0115401
0.0116824
0.0109527
0.0102572
0.00965341
0.0088639
0.00796163
0.0069814
0.00616703
0.00539228
0.00489372
0.00452837
0.00427506
0.00413369
0.00399148
0.00382382
0.00360459
0.00343599
0.0029182
0.0116802
0.0242458
0.0254633
0.0193174
0.0173959
0.0165207
0.0152164
0.013194
0.0106611
0.0084387
0.00682583
0.00587799
0.00520463
0.00467321
0.00427168
0.00386346
0.00346505
0.0030327
0.00272687
0.00198977
0.0118418
0.0255002
0.0267053
0.0154059
0.0139872
0.0147557
0.0152818
0.0130737
0.00735765
0.00304227
0.00174219
0.00190992
0.00226462
0.0027638
0.00325217
0.00331165
0.00318389
0.00281751
0.00242947
0.00152318
0.0112236
0.0199188
0.0154976
0.0198454
0.0104381
0.0111956
0.0242792
0.000826677
4.92974e-05
3.39027e-05
7.87941e-05
0.000150549
0.000282388
0.000526596
0.000926446
0.00143399
0.00170616
0.00170162
0.00161758
0.00116143
0.0103792
0.0177665
0.0134427
0.000449125
1.52258e-06
7.23342e-06
1.07078e-05
1.76488e-05
3.27977e-05
6.98037e-05
0.000157428
0.000316795
0.000509233
0.000687999
0.000744827
0.000695308
0.00954622
0.0162471
0.0155553
0.0262263
9.39531e-06
1.97284e-05
2.19751e-05
2.51261e-05
3.08248e-05
4.04474e-05
5.95465e-05
9.14088e-05
0.000137312
0.000202729
0.00026277
0.000329805
0.0086045
0.0149285
0.015392
0.0270863
2.69231e-05
4.57301e-05
4.70149e-05
4.88986e-05
5.19989e-05
5.7689e-05
6.89357e-05
8.98423e-05
0.000114563
0.000143688
0.000167628
0.000204245
0.00762405
0.012759
0.0130775
0.000608065
5.70966e-05
6.25301e-05
6.76742e-05
7.46604e-05
8.34605e-05
9.50611e-05
0.000110025
0.000130488
0.000160361
0.000203291
0.000229141
0.000243508
0.00660595
0.0101925
0.00716377
8.13307e-05
9.17148e-07
7.84426e-06
2.29717e-05
4.84041e-05
1.55548e-05
2.62615e-05
3.83648e-05
5.12246e-05
6.45215e-05
7.87331e-05
9.60632e-05
0.000119055
0.00015114
0.000191704
0.000239181
0.00029065
0.00581586
0.00794952
0.00272416
2.97803e-05
5.53052e-06
1.65963e-05
3.97106e-05
5.38503e-05
2.45454e-05
1.70019e-05
1.97282e-05
2.78325e-05
4.14618e-05
5.86596e-05
7.8131e-05
0.000101315
0.000132947
0.000174799
0.000224509
0.000312349
0.00509109
0.00646963
0.00155543
7.2581e-05
8.42758e-06
1.83835e-05
4.06989e-05
5.89409e-05
3.50692e-05
1.94621e-05
2.01972e-05
2.33051e-05
2.99681e-05
4.16795e-05
5.77567e-05
7.86894e-05
0.000107472
0.00014918
0.000199309
0.000302077
0.00462982
0.00558277
0.00174307
0.000139495
1.50619e-05
2.12618e-05
4.23121e-05
6.56481e-05
4.638e-05
2.69052e-05
2.33587e-05
2.47494e-05
2.96464e-05
3.75576e-05
4.94436e-05
6.52678e-05
8.93394e-05
0.000127915
0.00017517
0.000283618
0.00428788
0.00493147
0.00210841
0.000260883
3.07909e-05
2.67847e-05
4.52421e-05
7.38175e-05
5.84059e-05
3.9381e-05
3.00024e-05
2.99851e-05
3.19964e-05
3.84622e-05
5.01633e-05
6.64084e-05
8.6903e-05
0.000116065
0.000153954
0.000257845
0.00405715
0.00441824
0.00261065
0.000494697
7.08211e-05
3.63827e-05
5.08845e-05
8.45649e-05
7.15228e-05
5.52369e-05
4.08612e-05
3.80805e-05
3.89487e-05
4.32782e-05
5.38679e-05
7.02564e-05
8.9768e-05
0.000113922
0.000142096
0.000232476
0.00394688
0.00405527
0.00313886
0.000902846
0.000167513
5.64504e-05
6.25373e-05
9.86057e-05
8.77222e-05
7.32069e-05
5.52055e-05
4.96075e-05
5.07113e-05
5.44143e-05
6.32039e-05
7.70418e-05
9.43199e-05
0.000116055
0.000142824
0.00022327
0.00383689
0.00369242
0.00322934
0.00142818
0.000344019
9.24037e-05
8.32721e-05
0.000118613
0.000109579
9.49021e-05
7.41164e-05
6.41332e-05
6.5757e-05
7.03465e-05
7.74876e-05
8.67388e-05
9.9767e-05
0.000119763
0.000146748
0.000227051
0.00370153
0.0033475
0.00312139
0.00174334
0.00055416
0.000145459
0.000108569
0.000148801
0.000140238
0.000124355
0.000100782
8.5409e-05
8.52806e-05
8.87145e-05
9.42694e-05
0.00010035
0.000109129
0.000127234
0.000154894
0.000234606
0.00351833
0.00297188
0.00279142
0.00174939
0.000746718
0.000224827
0.00013943
0.000189084
0.000178567
0.000164002
0.000140278
0.000121152
0.000111471
0.00011227
0.000115275
0.000120523
0.000128445
0.000145946
0.000171178
0.000244915
0.00337579
0.00270574
0.00243915
0.0016766
0.000809651
0.000298183
0.000166772
0.000212764
0.000225047
0.000211767
0.000188226
0.000166403
0.000146557
0.000139248
0.000141031
0.000147098
0.000156683
0.000172406
0.00019357
0.000257563
0.00290451
0.00201778
0.00156216
0.00121802
0.000750814
0.000365946
0.000208428
0.000232111
0.000271882
0.000294907
0.000286961
0.000271606
0.000246294
0.000222682
0.000218762
0.000224246
0.00023426
0.000245748
0.000258536
0.00036703
0.00603812
0.00670482
0.00684789
0.00649058
0.00593767
0.00548115
0.00501839
0.00455632
0.00413666
0.00387661
0.00361955
0.0034737
0.00336413
0.00329762
0.00330188
0.00328295
0.00322566
0.0031057
0.00299064
0.00255967
0.00678124
0.0153241
0.0152448
0.0106557
0.00862832
0.00811607
0.0070153
0.00547498
0.0042692
0.00271012
0.00199282
0.00206919
0.00273401
0.00281346
0.00276622
0.0026117
0.00238805
0.0020976
0.00188247
0.00141882
0.00694051
0.0157195
0.0146352
0.00871976
0.00850192
0.00930454
0.00971955
0.00672894
0.00348976
0.000874976
0.00025196
0.00024861
0.000369192
0.000617287
0.000948868
0.00113205
0.00111657
0.00101111
0.000837155
0.000652506
0.00666774
0.011413
0.0092115
0.000358178
0.000893201
0.00248189
0.0281522
0.000365909
3.88406e-05
3.61267e-06
5.58354e-06
8.62835e-06
1.63222e-05
3.65976e-05
8.79639e-05
0.000181895
0.000267685
0.000310313
0.000303874
0.000338753
0.00605628
0.00903306
0.00932119
0.000721399
2.85158e-06
1.04351e-05
1.20907e-05
1.42138e-05
1.76098e-05
2.27067e-05
3.07032e-05
4.45182e-05
6.61489e-05
9.79142e-05
0.000118268
0.00018226
0.00552111
0.00801719
0.00976315
0.0132682
1.54211e-05
2.79791e-05
2.9792e-05
3.16196e-05
3.39535e-05
3.73431e-05
4.33668e-05
5.2704e-05
6.3928e-05
7.68082e-05
8.74499e-05
0.000120629
0.00500674
0.00673691
0.00958742
0.0292916
3.93606e-05
6.04188e-05
6.01945e-05
6.079e-05
6.27311e-05
6.63871e-05
7.25695e-05
8.27868e-05
9.48546e-05
0.000107302
0.000114985
0.000133776
0.00452081
0.00514246
0.00663678
0.000486583
7.59186e-05
7.41872e-05
7.93678e-05
8.60037e-05
9.3893e-05
0.000104453
0.000118428
0.000136473
0.000161575
0.000202667
0.000217396
0.000212791
0.00407654
0.00399187
0.00354732
3.63449e-05
1.8378e-06
1.19931e-05
3.30415e-05
6.63605e-05
1.86005e-05
2.95756e-05
4.42543e-05
5.87873e-05
7.28714e-05
8.71217e-05
0.000103106
0.000123442
0.000151909
0.000188973
0.00023384
0.000276214
0.00379986
0.00234236
0.000860423
2.48286e-06
7.46574e-06
2.1992e-05
5.03154e-05
6.44094e-05
2.92594e-05
1.80227e-05
2.09297e-05
3.05051e-05
4.61555e-05
6.45635e-05
8.40182e-05
0.000105396
0.000133456
0.000171248
0.000218129
0.000298222
0.0035293
0.00163286
0.000243189
3.98994e-06
8.84983e-06
2.34378e-05
4.99219e-05
6.90955e-05
4.17993e-05
2.0979e-05
2.1328e-05
2.42723e-05
3.16802e-05
4.44401e-05
6.19205e-05
8.28853e-05
0.000108551
0.000145115
0.000190611
0.000285808
0.00337075
0.00190597
0.000211056
6.38811e-06
1.05295e-05
2.49399e-05
5.03783e-05
7.50196e-05
5.3994e-05
2.9872e-05
2.44857e-05
2.56584e-05
2.96041e-05
3.71499e-05
4.92411e-05
6.55689e-05
8.87568e-05
0.000122517
0.000165127
0.000266562
0.0032514
0.00264817
0.000322357
1.23939e-05
1.31967e-05
2.68901e-05
5.20487e-05
8.20899e-05
6.56697e-05
4.37417e-05
3.17885e-05
3.00204e-05
3.17018e-05
3.77003e-05
4.93897e-05
6.55373e-05
8.35662e-05
0.000109314
0.000144516
0.000242473
0.00317744
0.00271407
0.000552061
2.91795e-05
1.74051e-05
2.95872e-05
5.53781e-05
9.16196e-05
7.78012e-05
5.99668e-05
4.37295e-05
3.77287e-05
3.81332e-05
4.22173e-05
5.24386e-05
6.78511e-05
8.5674e-05
0.000107024
0.00013413
0.000220802
0.00318586
0.00267105
0.000889437
7.67682e-05
2.50411e-05
3.47334e-05
6.08652e-05
0.000104279
9.21201e-05
7.72552e-05
5.90218e-05
4.89541e-05
4.94671e-05
5.26447e-05
6.07523e-05
7.36551e-05
8.978e-05
0.000108638
0.00013119
0.00020327
0.00317556
0.00253545
0.00111335
0.000169617
3.97377e-05
4.38182e-05
6.96032e-05
0.000120573
0.000110918
9.68769e-05
7.72539e-05
6.29648e-05
6.3791e-05
6.74117e-05
7.38802e-05
8.25401e-05
9.44629e-05
0.000111311
0.000133572
0.000204323
0.00313321
0.00233959
0.00110971
0.000265134
6.38171e-05
5.42411e-05
8.05249e-05
0.000145358
0.000137801
0.000122716
0.000100357
8.2235e-05
8.04155e-05
8.37138e-05
8.93865e-05
9.46148e-05
0.000101971
0.00011631
0.000138459
0.000208954
0.00303443
0.00208203
0.00102452
0.000324914
9.83559e-05
6.65817e-05
9.21982e-05
0.000181793
0.000170978
0.000157551
0.000134166
0.000112998
0.000102872
0.000103972
0.000106763
0.000110642
0.000116401
0.000129369
0.000150123
0.000217715
0.0029369
0.00189211
0.000873445
0.000322592
0.000118956
7.70035e-05
9.86684e-05
0.000186423
0.000216359
0.000201585
0.000176309
0.000153123
0.000135431
0.000128019
0.000128574
0.000132378
0.000138695
0.000150705
0.000169173
0.000229237
0.0025446
0.00145302
0.000688796
0.000361017
0.000185624
0.00011131
0.00011731
0.000181775
0.000245752
0.000273214
0.000264132
0.000249042
0.000228001
0.000207224
0.000197192
0.000200474
0.000207992
0.000218117
0.0002294
0.000292201
0.00538146
0.0057511
0.005941
0.00572945
0.00522836
0.00481847
0.00442201
0.00402683
0.00366625
0.00346996
0.00328094
0.00317761
0.00310828
0.00307852
0.00310774
0.00311107
0.00308196
0.00298684
0.00288258
0.00246961
0.00575418
0.00227715
0.0026287
0.002531
0.00248247
0.00260159
0.00248045
0.00192524
0.00137321
0.000501607
0.000169574
0.00110934
0.00207287
0.00229019
0.00228824
0.00222134
0.00207479
0.00184785
0.00167836
0.00130613
0.00594062
0.0026545
0.00467684
0.0050744
0.00675359
0.00695346
0.00731289
0.0049801
0.00192195
0.000348993
3.92863e-05
3.38416e-05
0.000103704
0.000223053
0.000374501
0.000526322
0.000550033
0.000530697
0.000475937
0.000507315
0.00582672
0.00240406
0.00488293
0.00149008
0.00224806
1.40387e-09
0.021819
0.000412769
1.73876e-05
4.07726e-06
5.84967e-06
7.36383e-06
9.29252e-06
1.2193e-05
1.77488e-05
2.93924e-05
4.7811e-05
7.4755e-05
9.28797e-05
0.000221219
0.00530026
0.00249584
0.00572047
9.59304e-05
3.33115e-06
1.18947e-05
1.38572e-05
1.59901e-05
1.84957e-05
2.15953e-05
2.5788e-05
3.28998e-05
4.33513e-05
5.86479e-05
7.11586e-05
0.000134702
0.00485735
0.00266202
0.00704007
0.000316288
1.96292e-05
3.29863e-05
3.55155e-05
3.77612e-05
4.00134e-05
4.24993e-05
4.69458e-05
5.38011e-05
6.051e-05
6.94365e-05
7.81371e-05
0.000108774
0.00444354
0.00249034
0.0074418
0.0241588
4.89322e-05
7.14038e-05
7.11021e-05
7.15672e-05
7.32637e-05
7.64824e-05
8.14248e-05
8.96433e-05
0.000100435
0.000110116
0.000115439
0.000130135
0.00404672
0.00189816
0.00499943
0.000303136
9.29154e-05
8.48282e-05
9.01756e-05
9.7165e-05
0.000105067
0.000115165
0.000128322
0.000145154
0.000167723
0.00020729
0.000223819
0.000217669
0.00368295
0.00142955
0.00215988
2.19134e-05
2.38147e-06
1.45493e-05
3.81849e-05
7.21502e-05
1.9086e-05
3.19885e-05
4.9364e-05
6.58993e-05
8.11227e-05
9.6029e-05
0.000111781
0.000130992
0.000157365
0.000193082
0.000235058
0.000277639
0.00347893
0.000521446
0.000373949
3.23905e-06
9.42371e-06
2.60034e-05
5.58854e-05
6.76308e-05
2.98131e-05
1.80945e-05
2.14494e-05
3.25627e-05
4.98417e-05
6.98213e-05
9.06041e-05
0.000112005
0.000138219
0.00017379
0.000218345
0.000294947
0.0032752
0.000172688
4.06546e-05
4.61833e-06
1.08779e-05
2.78618e-05
5.5888e-05
7.24938e-05
4.335e-05
2.11214e-05
2.15019e-05
2.43853e-05
3.26309e-05
4.69631e-05
6.61567e-05
8.80119e-05
0.000112286
0.000145699
0.000188277
0.000280266
0.00315388
0.00112831
3.29626e-05
5.74713e-06
1.24781e-05
2.95391e-05
5.65196e-05
7.88091e-05
5.62926e-05
3.05087e-05
2.43946e-05
2.56318e-05
2.91686e-05
3.65896e-05
4.9109e-05
6.6459e-05
8.9263e-05
0.000121025
0.000161221
0.000259557
0.00306697
0.00208588
0.000102267
7.13123e-06
1.43054e-05
3.11658e-05
5.82472e-05
8.6122e-05
6.8568e-05
4.48448e-05
3.17892e-05
2.92652e-05
3.06751e-05
3.67748e-05
4.85847e-05
6.37937e-05
8.11523e-05
0.000105213
0.000139232
0.000235135
0.00301829
0.00228062
0.000221043
9.41219e-06
1.66369e-05
3.32088e-05
6.13166e-05
9.56797e-05
8.11788e-05
6.15416e-05
4.36863e-05
3.63477e-05
3.66868e-05
4.07136e-05
5.07305e-05
6.55545e-05
8.27334e-05
0.000103428
0.000130232
0.000214296
0.00303717
0.00227444
0.000377005
1.45882e-05
2.03819e-05
3.69868e-05
6.58439e-05
0.000108088
9.53404e-05
7.92601e-05
5.93503e-05
4.75009e-05
4.76126e-05
5.02853e-05
5.7899e-05
7.05087e-05
8.6412e-05
0.000104737
0.000124386
0.000191588
0.00303682
0.00220227
0.000541337
2.69622e-05
2.76992e-05
4.3018e-05
7.30454e-05
0.000123338
0.000112966
9.83545e-05
7.80994e-05
6.13108e-05
6.14276e-05
6.42997e-05
7.0141e-05
7.88074e-05
9.10775e-05
0.000106155
0.00012531
0.000190932
0.00300797
0.00205773
0.00057198
4.76279e-05
3.76688e-05
4.95345e-05
8.25281e-05
0.000145476
0.000137973
0.000122595
0.000100177
8.00304e-05
7.69291e-05
7.98359e-05
8.51338e-05
9.06834e-05
9.77182e-05
0.000109094
0.00012831
0.000194203
0.00292216
0.00184074
0.000554525
7.81621e-05
5.12975e-05
5.80552e-05
9.13977e-05
0.000181489
0.00016994
0.000155623
0.000131726
0.000109007
9.73474e-05
9.88526e-05
0.000102037
0.000104753
0.000108447
0.000118554
0.00013689
0.000202381
0.00282964
0.0016825
0.000503021
9.74708e-05
6.17665e-05
6.58526e-05
9.55327e-05
0.000187252
0.000213064
0.000197927
0.000171546
0.00014703
0.000128481
0.000122998
0.000121058
0.000123014
0.000127056
0.000136525
0.000154009
0.000214223
0.00244771
0.00132508
0.000531889
0.000231956
0.000127108
9.54794e-05
0.000110185
0.000181415
0.000243345
0.000267324
0.000256409
0.000239937
0.000219223
0.000200594
0.000184727
0.000186077
0.000191637
0.000201722
0.000214144
0.000266256
0.00537942
0.00575194
0.00594449
0.00574245
0.00523424
0.00482459
0.00442794
0.00403029
0.00366651
0.00346669
0.00327191
0.00316815
0.00310075
0.00307364
0.00310493
0.00311014
0.00308258
0.0029882
0.00288329
0.00246724
0.00574666
0.00226108
0.00263442
0.00257705
0.0024593
0.00255797
0.0024483
0.00191717
0.00134721
0.000489151
0.000162352
0.00108571
0.00205314
0.00228221
0.00228191
0.0022179
0.00207309
0.00184586
0.00167491
0.00130065
0.00593106
0.00264744
0.00468809
0.00506301
0.00695545
0.00691532
0.00720648
0.00495136
0.00182576
0.000340102
3.8229e-05
3.21645e-05
0.000101064
0.00022022
0.00037066
0.000521647
0.000545405
0.000526207
0.000471709
0.000503849
0.00581755
0.00241039
0.00493978
0.00158106
0.0061538
0.000144907
0.0170858
0.000217637
1.01241e-05
4.14224e-06
5.98443e-06
7.51711e-06
9.44705e-06
1.23328e-05
1.77956e-05
2.91334e-05
4.70806e-05
7.37065e-05
9.19485e-05
0.000220259
0.00529429
0.00256692
0.00581069
1.50444e-06
3.29024e-06
1.20677e-05
1.41608e-05
1.64354e-05
1.90358e-05
2.21087e-05
2.62814e-05
3.32906e-05
4.37386e-05
5.92614e-05
7.21183e-05
0.000135484
0.00485122
0.00272555
0.00717801
0.00302006
2.00619e-05
3.42817e-05
3.68843e-05
3.91979e-05
4.15834e-05
4.41991e-05
4.88171e-05
5.57868e-05
6.22815e-05
7.10325e-05
7.97119e-05
0.000110262
0.00443972
0.00251694
0.00750023
0.0272448
5.31679e-05
7.56177e-05
7.51238e-05
7.54817e-05
7.70901e-05
8.03593e-05
8.54983e-05
9.40781e-05
0.000105301
0.000114677
0.000119287
0.000132982
0.00404715
0.0019215
0.00503447
0.000737823
0.000101745
9.0596e-05
9.59858e-05
0.00010305
0.00011122
0.000121818
0.000135736
0.000153559
0.000177652
0.000218791
0.000233219
0.0002256
0.00368803
0.00144292
0.00217051
1.96126e-05
2.88656e-06
1.72349e-05
4.29486e-05
7.82895e-05
1.97333e-05
3.53187e-05
5.3791e-05
7.07486e-05
8.62806e-05
0.000101746
0.000118318
0.000138717
0.00016671
0.000203473
0.00024597
0.000286475
0.00348693
0.000521139
0.000354042
3.49784e-06
1.03113e-05
2.81496e-05
6.03462e-05
7.20461e-05
3.05724e-05
1.90111e-05
2.29855e-05
3.51175e-05
5.35195e-05
7.44656e-05
9.62084e-05
0.000118838
0.000146479
0.000183036
0.000228172
0.000304012
0.00328954
0.000168861
3.26316e-05
5.03688e-06
1.18152e-05
2.99641e-05
5.99297e-05
7.68908e-05
4.48069e-05
2.19487e-05
2.25225e-05
2.58805e-05
3.4968e-05
5.02119e-05
7.04786e-05
9.35877e-05
0.000119189
0.000153488
0.00019677
0.000288761
0.00317168
0.00110016
2.96955e-05
6.27313e-06
1.35226e-05
3.15764e-05
6.02508e-05
8.33253e-05
5.87481e-05
3.14036e-05
2.54079e-05
2.69231e-05
3.0777e-05
3.87598e-05
5.21143e-05
7.08674e-05
9.5019e-05
0.000127625
0.000168516
0.000267157
0.0030854
0.00204741
9.54095e-05
7.77199e-06
1.54777e-05
3.32309e-05
6.16882e-05
9.07955e-05
7.19198e-05
4.64448e-05
3.28101e-05
3.05596e-05
3.22566e-05
3.88329e-05
5.1428e-05
6.74221e-05
8.53718e-05
0.000110118
0.000144916
0.000241761
0.00303562
0.00226152
0.000211201
1.0106e-05
1.78474e-05
3.53637e-05
6.46681e-05
0.000100647
8.52765e-05
6.42064e-05
4.53116e-05
3.78307e-05
3.82578e-05
4.27504e-05
5.35959e-05
6.91631e-05
8.67125e-05
0.000107773
0.000135277
0.000220541
0.00305174
0.00225844
0.000358562
1.51288e-05
2.15248e-05
3.93298e-05
6.94364e-05
0.000113565
0.00010013
8.30501e-05
6.19911e-05
4.92923e-05
4.94801e-05
5.24942e-05
6.06707e-05
7.38397e-05
9.00447e-05
0.000108231
0.000127917
0.000196048
0.00304812
0.0021896
0.000515458
2.67684e-05
2.8585e-05
4.52897e-05
7.70412e-05
0.000129263
0.000118309
0.000102854
8.14646e-05
6.35661e-05
6.37494e-05
6.66572e-05
7.27078e-05
8.16799e-05
9.41317e-05
0.000109228
0.000128538
0.000194869
0.00301446
0.00204494
0.00054834
4.60041e-05
3.8476e-05
5.14648e-05
8.66567e-05
0.000151499
0.000143592
0.000127446
0.000103814
8.271e-05
7.95281e-05
8.24472e-05
8.76511e-05
9.31537e-05
0.000100383
0.000111884
0.000131244
0.000197954
0.00292349
0.00182519
0.000532357
7.46786e-05
5.20483e-05
5.96539e-05
9.47425e-05
0.000187693
0.000175698
0.000160785
0.00013575
0.000112185
0.00010048
0.000101749
0.000104497
0.000107228
0.000111015
0.000121024
0.000139564
0.000206016
0.00282727
0.00166464
0.000484841
9.35333e-05
6.25597e-05
6.7278e-05
9.82898e-05
0.00019213
0.000218637
0.000203221
0.000176055
0.000150779
0.000132116
0.000125963
0.00012381
0.000125875
0.000129812
0.000139137
0.000156962
0.000217924
0.00243923
0.00130792
0.000519025
0.000226059
0.000126094
9.62907e-05
0.000112004
0.000185181
0.000248037
0.000272512
0.000261613
0.000245072
0.000223894
0.000204612
0.000188254
0.000189605
0.000194918
0.000205218
0.000217746
0.000269333
0.00602177
0.00670507
0.00686737
0.00653151
0.00595798
0.00548618
0.00501195
0.00453655
0.00410676
0.0038471
0.00358594
0.00344237
0.00334045
0.00328068
0.00329231
0.00327957
0.00322721
0.00310906
0.00299261
0.00255403
0.00672443
0.0152055
0.0155976
0.0108172
0.00833963
0.00771866
0.00675107
0.00531437
0.00404917
0.00254598
0.0018963
0.00203508
0.00273249
0.00280786
0.00276084
0.00260984
0.00238904
0.00209749
0.00187859
0.00140783
0.00687454
0.0151548
0.0144635
0.00885349
0.00983192
0.0093467
0.0094904
0.00660302
0.00327261
0.00086856
0.000267143
0.000247673
0.000370317
0.000621006
0.000951331
0.00113276
0.00111608
0.0010075
0.000830288
0.000642712
0.00663579
0.011339
0.00911549
0.00108292
0.00566771
2.22045e-16
0.0187994
0.000173243
1.55385e-05
3.91728e-06
6.06314e-06
9.18585e-06
1.66542e-05
3.60297e-05
8.47996e-05
0.000176004
0.00026035
0.000305526
0.000300745
0.000335183
0.00604725
0.00956999
0.00881344
1.31633e-06
3.40496e-06
1.12498e-05
1.31729e-05
1.55361e-05
1.91553e-05
2.44876e-05
3.24709e-05
4.60762e-05
6.66076e-05
9.76624e-05
0.000119126
0.000183176
0.00552286
0.00847672
0.0101395
0.00679271
2.02788e-05
3.19446e-05
3.40369e-05
3.60179e-05
3.84604e-05
4.18524e-05
4.79229e-05
5.73695e-05
6.88217e-05
8.19484e-05
9.26996e-05
0.000125359
0.00502097
0.00698873
0.00980659
0.0309569
5.35603e-05
7.1631e-05
7.10554e-05
7.12886e-05
7.28264e-05
7.63516e-05
8.26175e-05
9.31313e-05
0.000105728
0.000118147
0.000125109
0.000142295
0.00454646
0.00534278
0.00666466
0.000192978
0.000101935
8.86368e-05
9.43227e-05
0.000101542
0.000110014
0.000121507
0.000136816
0.000156645
0.000184484
0.000228576
0.000240136
0.000232816
0.00410827
0.00405036
0.00339389
1.77651e-05
2.65063e-06
1.64839e-05
4.33281e-05
8.2336e-05
2.07699e-05
3.59893e-05
5.39162e-05
7.06866e-05
8.63415e-05
0.000102152
0.000119933
0.000142568
0.000174138
0.000213641
0.000261448
0.000300617
0.00383528
0.00242508
0.000849004
3.05862e-06
8.97834e-06
2.60634e-05
5.89776e-05
7.37543e-05
3.11642e-05
2.02679e-05
2.43225e-05
3.64027e-05
5.49255e-05
7.61532e-05
9.84186e-05
0.000122459
0.000153479
0.000194251
0.00024393
0.000324418
0.00356881
0.00169651
0.000229244
4.80788e-06
1.06293e-05
2.77555e-05
5.83162e-05
7.91729e-05
4.56237e-05
2.30996e-05
2.3986e-05
2.77653e-05
3.71122e-05
5.25287e-05
7.29608e-05
9.66391e-05
0.000125037
0.000164964
0.000213652
0.000311111
0.00341269
0.00192056
0.000202104
7.42977e-06
1.2561e-05
2.94381e-05
5.86485e-05
8.56754e-05
5.98947e-05
3.24696e-05
2.6995e-05
2.87615e-05
3.33898e-05
4.2322e-05
5.63252e-05
7.55881e-05
0.000101802
0.000138936
0.000184937
0.000290034
0.00329434
0.00263681
0.000314384
1.38288e-05
1.55688e-05
3.14786e-05
6.0198e-05
9.33905e-05
7.35993e-05
4.801e-05
3.45216e-05
3.29814e-05
3.52263e-05
4.25057e-05
5.61836e-05
7.40613e-05
9.40595e-05
0.000122887
0.000161421
0.000263856
0.00321945
0.00270711