/*--------------------------------*- C++ -*----------------------------------*\
  =========                 |
  \\      /  F ield         | OpenFOAM: The Open Source CFD Toolbox
   \\    /   O peration     | Website:  https://openfoam.org
    \\  /    A nd           | Version:  9
     \\/     M anipulation  |
\*---------------------------------------------------------------------------*/
FoamFile
{
    format      ascii;
    class       volScalarField;
    location    "0.004";
    object      rho.C4;
}
// * * * * * * * * * * * * * * * * * * * * * * * * * * * * * * * * * * * * * //

dimensions      [1 -3 0 0 0 0 0];

internalField   nonuniform List<scalar> 
9720
(
20.0286
22.031
22.9732
22.3317
21.4092
20.6074
19.195
17.0889
14.4523
12.1656
10.2993
9.09867
8.30473
7.76166
7.38472
7.06984
6.79471
6.53453
6.32248
5.90084
21.9617
23.9138
24.7662
22.4584
21.2362
21.0213
19.8997
16.9553
12.6703
9.3912
7.4495
6.84708
6.57095
6.33569
6.15228
5.96853
5.78152
5.58012
5.40912
5.0632
22.813
24.6264
25.2145
20.2952
19.5129
21.0344
20.6452
17.0425
10.8837
6.77446
5.26313
5.39524
5.67715
5.94948
6.11797
6.09599
5.99346
5.81988
5.6381
5.27001
22.2286
22.3783
20.2303
17.2427
17.0165
21.6265
22.5895
19.9199
11.0564
3.59164
3.71721
4.14907
4.84028
5.44487
5.83748
5.9971
5.97174
5.89061
5.77634
5.47083
21.2635
21.0276
19.2132
16.9239
3.04746
3.22753
3.46529
3.86031
4.50584
5.33485
6.09029
6.43879
6.41401
6.30154
6.14034
5.75619
20.3899
20.6834
20.6132
21.2262
3.91807
4.06604
4.10796
4.2334
4.51563
5.11816
5.91181
6.41746
6.46043
6.40439
6.27708
5.90488
18.9197
19.4814
20.1457
22.0722
4.51323
4.53879
4.46484
4.46758
4.53923
4.78181
5.32002
5.97703
6.39476
6.52437
6.49866
6.21496
16.8286
16.5932
16.5607
19.3321
4.67933
3.8046
3.95691
4.07078
4.22006
4.41696
4.74653
5.30747
5.91301
6.32375
6.52953
6.42786
14.2104
12.3716
10.5511
10.3266
2.96786
3.93354
4.60001
4.6517
0.875615
1.31944
1.94182
2.48782
2.9069
3.24498
3.61702
4.10108
4.71296
5.2803
5.78447
5.98798
11.952
9.18894
6.6353
3.58155
3.2402
4.10442
4.56332
3.83854
1.45905
0.787394
0.930752
1.3274
1.82512
2.28072
2.67962
3.12334
3.68216
4.28222
4.85483
5.39863
10.1077
7.3189
5.19633
3.72668
3.505
4.14214
4.49331
3.99185
2.11054
0.989204
0.808621
0.872819
1.12439
1.51877
1.93039
2.34074
2.84271
3.42908
3.9979
4.72912
8.91784
6.72211
5.31432
4.14672
3.90588
4.26677
4.50117
4.10589
2.63306
1.44183
0.911363
0.879289
0.931649
1.11661
1.43124
1.80222
2.24453
2.76746
3.28615
4.06467
8.1308
6.43728
5.57626
4.78202
4.52987
4.55111
4.57997
4.25757
3.02541
1.95588
1.20997
0.953598
0.959828
1.02996
1.20402
1.46495
1.81118
2.24272
2.69721
3.46565
7.59876
6.20016
5.83237
5.33542
5.30493
5.14294
4.82772
4.46035
3.35318
2.40988
1.62598
1.17223
1.05111
1.07465
1.15459
1.29599
1.53717
1.88269
2.26537
2.97142
7.23432
6.02455
6.00115
5.71897
6.00556
5.87189
5.3476
4.79668
3.72528
2.80759
2.04535
1.51279
1.2586
1.17864
1.19836
1.27181
1.38938
1.59957
1.89984
2.55965
6.93313
5.8503
5.98179
5.89492
6.35385
6.35281
5.95666
5.34981
4.20657
3.25639
2.4703
1.90812
1.55024
1.35871
1.2932
1.30757
1.36319
1.49153
1.72547
2.28226
6.67186
5.67288
5.88494
5.8787
6.33556
6.41621
6.36098
5.9205
4.79745
3.81256
2.98484
2.37501
1.92729
1.63348
1.45257
1.38716
1.40468
1.5142
1.6956
2.10338
6.42477
5.48131
5.7205
5.81214
6.23358
6.36469
6.50207
6.32701
5.34144
4.39591
3.56884
2.91386
2.38119
2.00371
1.70602
1.54618
1.55245
1.61999
1.72801
2.0086
6.2241
5.32072
5.55032
5.711
6.08244
6.24547
6.4781
6.53019
5.83314
4.9556
4.13184
3.43763
2.84381
2.40035
2.02983
1.82151
1.75427
1.76068
1.80178
1.9984
5.82084
4.99265
5.20174
5.42346
5.71262
5.88849
6.20203
6.42463
6.0252
5.48375
4.85172
4.21105
3.61318
3.11596
2.70658
2.41963
2.20238
2.08349
2.03297
2.08497
18.959
20.9039
21.825
20.8253
19.8911
19.2264
17.9363
15.9694
13.4535
11.2983
9.50678
8.37727
7.62946
7.12562
6.78698
6.49757
6.23284
5.98578
5.78731
5.39318
20.843
22.6803
23.4213
20.6842
19.5518
19.7532
18.7384
15.9365
11.8601
8.76229
6.85136
6.26305
6.0231
5.82061
5.67399
5.51498
5.33563
5.13936
4.97435
4.64551
21.7195
23.3103
23.1496
18.4043
18.3075
20.0249
19.6168
16.1697
10.2828
6.36178
4.83078
4.91294
5.15799
5.42233
5.64097
5.64803
5.57142
5.41595
5.24711
4.89845
20.8707
20.7596
18.3381
15.6691
16.5624
20.8136
21.5535
18.9396
10.507
3.38675
3.46158
3.79672
4.36533
4.94742
5.3501
5.56109
5.55021
5.49045
5.39753
5.11913
19.8665
19.4186
17.8335
15.6676
2.76397
3.01501
3.23302
3.56897
4.0875
4.81446
5.52433
5.98963
6.0074
5.94125
5.81018
5.4441
19.0602
19.4393
19.5801
20.4281
3.69757
3.84603
3.86659
3.95391
4.16371
4.62107
5.34175
5.91017
6.07176
6.04282
5.94421
5.59301
17.67
18.3546
19.2175
21.1793
4.29919
4.31316
4.20339
4.15304
4.19062
4.34951
4.76524
5.3883
5.84167
6.07444
6.07868
5.85333
15.6644
15.5403
15.7432
18.4697
4.43768
3.57671
3.69942
3.77362
3.87004
4.01115
4.25923
4.723
5.30054
5.7385
6.02237
5.97011
13.1424
11.4957
9.94276
10.0745
2.70125
3.6671
4.31108
4.29175
0.801613
1.20312
1.77759
2.26513
2.63076
2.91597
3.22733
3.63602
4.17407
4.70877
5.20887
5.49657
11.0116
8.45946
6.12707
3.33392
3.00456
3.84406
4.28674
3.52915
1.30167
0.673387
0.805547
1.15442
1.60603
2.02733
2.37793
2.74793
3.21665
3.75845
4.30359
4.89242
9.25699
6.62345
4.66625
3.40462
3.21996
3.86515
4.18451
3.66925
1.8895
0.840941
0.67671
0.730804
0.957698
1.31557
1.67605
2.02047
2.44301
2.97121
3.51468
4.25556
8.15768
6.07779
4.75514
3.72195
3.55299
3.95719
4.16145
3.7592
2.35925
1.23153
0.754423
0.739187
0.782908
0.93561
1.19614
1.51042
1.90446
2.39152
2.88383
3.64014
7.43173
5.8608
5.01769
4.26788
4.07178
4.17634
4.20867
3.87177
2.71166
1.70648
1.02613
0.803362
0.805469
0.852351
0.984747
1.22579
1.55377
1.95634
2.36772
3.0808
6.94964
5.67277
5.29603
4.82923
4.79079
4.65385
4.38729
4.03514
3.00048
2.14162
1.41898
0.994036
0.872909
0.888717
0.97767
1.12265
1.34245
1.64169
1.97599
2.61771
6.62854
5.54197
5.53041
5.23496
5.48144
5.35416
4.82002
4.3092
3.32623
2.50597
1.80385
1.29212
1.0457
1.00056
1.03319
1.10263
1.19948
1.37053
1.62931
2.23336
6.35691
5.39592
5.54283
5.47432
5.92935
5.8925
5.42872
4.79319
3.75004
2.89465
2.17417
1.63905
1.32084
1.18712
1.13249
1.12813
1.15927
1.2595
1.45485
1.98351
6.10845
5.22596
5.46906
5.47203
5.93882
6.04258
5.86335
5.35837
4.28946
3.37761
2.61845
2.06158
1.68216
1.4477
1.2763
1.18631
1.19317
1.27771
1.45038
1.85616
5.87547
5.03839
5.31848
5.42349
5.87033
6.0128
6.09279
5.78948
4.80988
3.91613
3.15285
2.56772
2.11423
1.78087
1.49625
1.31955
1.31772
1.37872
1.4947
1.78479
5.68911
4.88401
5.15852
5.33846
5.74058
5.91567
6.09413
6.06143
5.30379
4.45217
3.69124
3.06921
2.54465
2.1381
1.78164
1.55829
1.50797
1.52932
1.58326
1.77513
5.31417
4.57374
4.82727
5.07027
5.38192
5.56781
5.86036
6.00223
5.57038
5.01603
4.41439
3.82321
3.26891
2.7965
2.40168
2.12742
1.95537
1.86337
1.81319
1.85309
18.563
20.4317
21.2771
20.0129
18.9944
18.4516
17.2444
15.3197
12.8939
10.8254
9.09456
8.01696
7.31538
6.8472
6.53475
6.26162
6.01028
5.7707
5.57604
5.18912
20.409
22.1588
22.7874
19.539
18.3789
18.9178
17.9958
15.2524
11.3569
8.41313
6.54273
5.97544
5.77821
5.6179
5.50036
5.35854
5.18725
4.99195
4.82451
4.49521
21.2336
22.7415
21.2447
16.9062
17.4137
19.2501
18.843
15.4516
9.83406
6.18386
4.66546
4.70988
4.92668
5.16911
5.41481
5.4729
5.41854
5.2842
5.12427
4.7827
20.0456
19.464
16.7261
14.1397
15.8235
20.0595
20.7196
18.0745
9.84606
3.3027
3.37651
3.67399
4.19649
4.79345
5.21801
5.43793
5.42657
5.3648
5.27165
4.99515
18.9842
18.1831
16.8952
14.855
2.47886
2.82159
3.04656
3.37867
3.85369
4.53803
5.23198
5.78762
5.89042
5.84524
5.7304
5.36914
18.3429
18.6604
18.8618
19.7076
3.44486
3.61866
3.64034
3.72923
3.92483
4.30702
4.99469
5.67037
5.9884
5.97328
5.87995
5.52516
17.055
17.7326
18.5774
20.4234
4.10206
4.08766
3.98339
3.94069
3.97385
4.10306
4.43635
5.04569
5.59489
5.90228
5.93005
5.74121
15.0698
14.9586
15.2116
17.7852
4.17094
3.347
3.46341
3.54954
3.64572
3.78313
3.9967
4.37737
4.93402
5.43675
5.80674
5.78835
12.6078
11.0467
9.57908
9.62388
2.49121
3.46204
4.10557
4.09557
0.724235
1.11939
1.65953
2.11147
2.46645
2.74095
3.01361
3.35959
3.83856
4.38327
4.89693
5.26713
10.5429
8.09811
5.87233
3.11514
2.76713
3.61245
4.10508
3.33055
1.15224
0.57973
0.707922
1.03417
1.46745
1.87988
2.22012
2.54086
2.94816
3.46408
3.99415
4.62841
8.82633
6.26148
4.38489
3.17286
2.95344
3.62156
3.99417
3.47219
1.72628
0.727853
0.581853
0.634594
0.845816
1.1876
1.54228
1.86303
2.22233
2.69361
3.21054
3.97475
7.76507
5.71781
4.44296
3.43997
3.25285
3.69354
3.93754
3.56133
2.18547
1.09258
0.656052
0.637402
0.673666
0.810914
1.06627
1.37082
1.71682
2.14288
2.60485
3.37076
7.08632
5.56553
4.70047
3.9425
3.70463
3.87699
3.96929
3.65332
2.53607
1.55539
0.906555
0.687947
0.689776
0.741342
0.870438
1.10041
1.39523
1.74585
2.11784
2.82299
6.64447
5.43959
4.99914
4.56504
4.38288
4.25904
4.10041
3.78907
2.80663
1.98104
1.27772
0.857738
0.756264
0.777899
0.868471
1.01088
1.20982
1.46515
1.76704
2.39494
6.35453
5.34621
5.27898
5.04544
5.09473
4.94324
4.43979
4.00747
3.08206
2.32276
1.64499
1.14216
0.91625
0.883208
0.917888
0.990916
1.08944
1.24212
1.46905
2.03384
6.10374
5.22421
5.36474
5.33768
5.67691
5.59661
5.03884
4.39514
3.43557
2.64899
1.97492
1.46412
1.16927
1.05717
1.01088
1.01755
1.04786
1.12716
1.2892
1.78366
5.87222
5.06698
5.31299
5.33948
5.79747
5.88716
5.55402
4.94677
3.91628
3.06355
2.3471
1.83003
1.48775
1.29001
1.14486
1.0677
1.07169
1.13413
1.28009
1.67098
5.64884
4.88384
5.18593
5.29481
5.75476
5.87445
5.85239
5.43538
4.44452
3.57907
2.83272
2.28194
1.87166
1.5798
1.33581
1.17231
1.16284
1.20949
1.31975
1.61817
5.46668
4.72708
5.03323
5.20945
5.642
5.79229
5.88669
5.78895
4.94416
4.10242
3.35585
2.76476
2.27463
1.90954
1.59335
1.37262
1.32565
1.34735
1.41144
1.6236
5.09957
4.4159
4.70459
4.93977
5.28765
5.45853
5.69831
5.77026
5.29645
4.71548
4.1076
3.53322
2.99476
2.55642
2.18232
1.90999
1.75889
1.68703
1.65624
1.69885
18.1848
20.0207
20.8001
19.3036
18.2609
17.7918
16.641
14.7292
12.3622
10.38
8.70899
7.69123
7.04
6.61129
6.32371
6.06902
5.83241
5.59993
5.40806
5.02518
20.0178
21.733
22.234
18.6116
17.5417
18.246
17.4082
14.6872
10.8585
8.02207
6.21945
5.70114
5.57105
5.45358
5.3613
5.23185
5.06645
4.87502
4.70678
4.3757
20.8034
22.2708
19.8776
15.8588
16.6938
18.6353
18.2596
14.9026
9.34665
5.81508
4.38383
4.45258
4.72931
5.00561
5.2779
5.3509
5.30192
5.17396
5.01638
4.67635
19.3545
18.5402
15.6509
13.3259
14.9275
19.3123
19.9188
17.3001
9.13656
3.05402
3.13301
3.41795
3.95824
4.63831
5.18284
5.38686
5.36116
5.27111
5.1596
4.8715
18.2387
17.3492
16.4257
14.7364
2.40251
2.65506
2.85793
3.16524
3.60501
4.25829
4.97022
5.57879
5.79284
5.76388
5.66039
5.30151
17.7247
18.0739
18.3942
19.0564
3.25993
3.46058
3.47901
3.55347
3.71846
4.02305
4.60935
5.36361
5.85266
5.87383
5.80123
5.46185
16.5247
17.228
18.0649
19.6852
3.92023
3.95059
3.85535
3.78681
3.80565
3.89707
4.13349
4.64458
5.29246
5.6876
5.75255
5.60112
14.5978
14.5236
14.7615
17.1085
3.95454
3.1771
3.3038
3.38945
3.468
3.5814
3.75387
4.04915
4.52872
5.08885
5.54724
5.57688
12.2043
10.7062
9.24071
9.16651
2.32175
3.21765
3.92798
3.96145
0.641123
1.0001
1.53129
1.97666
2.32704
2.60085
2.83782
3.11773
3.51385
4.03325
4.56018
5.01282
10.2061
7.87185
5.70737
2.97382
2.57623
3.39732
3.91327
3.17391
1.08513
0.503503
0.619149
0.930851
1.35369
1.75519
2.08858
2.37501
2.71405
3.17472
3.67977
4.34949
8.51466
6.04231
4.21101
3.02259
2.7638
3.41472
3.81078
3.29556
1.6313
0.648895
0.504379
0.562454
0.76529
1.08168
1.43163
1.74552
2.05086
2.44865
2.91725
3.68764
7.47439
5.47747
4.23958
3.25124
3.05163
3.48772
3.74063
3.37789
2.06376
0.991957
0.582446
0.549153
0.578599
0.709507
0.96282
1.26912
1.58083
1.93532
2.35073
3.11286
6.81619
5.33415
4.46639
3.71381
3.46101
3.64847
3.7596
3.4537
2.38672
1.42528
0.813534
0.589813
0.591867
0.642112
0.775802
1.0038
1.26781
1.56404
1.90537
2.60049
6.3921
5.22525
4.7437
4.34052
4.07184
3.94776
3.85173
3.56414
2.63447
1.825
1.15424
0.746009
0.651035
0.678832
0.77307
0.912286
1.09532
1.32172
1.5977
2.20725
6.11754
5.14373
5.02394
4.86588
4.76053
4.5258
4.09282
3.7356
2.86388
2.15114
1.50462
1.01192
0.798792
0.780178
0.817705
0.893138
0.993416
1.13213
1.33572
1.8619
5.87557
5.03512
5.14801
5.14325
5.36624
5.24178
4.59939
4.03035
3.14746
2.43655
1.80753
1.31449
1.0326
0.936315
0.905173
0.917425
0.948238
1.01376
1.15294
1.60052
5.65566
4.89091
5.11294
5.1463
5.61009
5.69406
5.20111
4.50587
3.55044
2.78221
2.11355
1.62679
1.30565
1.13754
1.02815
0.960601
0.96333
1.0111
1.12449
1.48392
5.44008
4.7179
5.00524
5.09814
5.59241
5.71149
5.56769
5.04029
4.05947
3.24631
2.52669
2.00437
1.62535
1.38481
1.18823
1.03978
1.02409
1.05862
1.15492
1.44916
5.26266
4.56499
4.86591
5.0149
5.50006
5.64609
5.64405
5.47755
4.57411
3.74563
3.00567
2.44476
1.99626
1.68471
1.41126
1.20217
1.15279
1.1734
1.24177
1.4624
4.90458
4.2594
4.55339
4.76048
5.16085
5.33041
5.50157
5.50888
5.00656
4.39656
3.77214
3.22077
2.71778
2.32126
1.96673
1.69157
1.5541
1.50431
1.48869
1.54049
17.971
19.7719
20.519
18.922
17.8805
17.4523
16.3264
14.4102
12.0331
10.0853
8.44779
7.44857
6.82696
6.42989
6.17374
5.94118
5.72395
5.505
5.31838
4.9401
19.748
21.3817
21.8234
18.1042
17.1515
17.9223
17.1153
14.3956
10.5277
7.73264
5.98159
5.46026
5.36589
5.28782
5.22568
5.12613
4.9816
4.80486
4.64162
4.31344
20.4601
21.8045
19.0185
15.2717
16.4626
18.3987
17.9909
14.6306
9.00932
5.53188
4.15991
4.2268
4.50926
4.81247
5.10642
5.23763
5.20871
5.10413
4.9571
4.62336
18.8717
17.8931
15.0379
12.8399
14.6546
18.9081
19.4304
16.8525
8.8704
2.88456
2.94843
3.20502
3.72097
4.42493
5.06836
5.33362
5.31917
5.22542
5.10149
4.80551
17.7504
16.8304
16.0302
14.332
2.23747
2.49838
2.68452
2.96995
3.38764
4.01412
4.74509
5.38645
5.70161
5.69514
5.6146
5.2749
17.3275
17.6733
18.062
18.699
3.09125
3.29713
3.33112
3.41294
3.57117
3.84249
4.3608
5.11581
5.70122
5.80966
5.75188
5.43799
16.1933
16.9145
17.7758
19.2447
3.76561
3.8214
3.74016
3.67416
3.68635
3.75983
3.95387
4.38805
5.04708
5.50889
5.63994
5.50867
14.3078
14.2498
14.4967
16.6916
3.87866
3.07784
3.20473
3.29349
3.36245
3.45594
3.59945
3.84958
4.27392
4.84426
5.35467
5.44642
11.9624
10.4788
9.01239
8.79837
2.18325
3.03285
3.6969
3.67552
0.591865
0.936673
1.45632
1.89898
2.24023
2.50542
2.72528
2.97569
3.32974
3.82318
4.34854
4.84978
10.0284
7.73388
5.59367
2.89706
2.47587
3.25432
3.71908
2.99242
1.02031
0.463594
0.573158
0.869185
1.26909
1.66112
1.99706
2.27722
2.58336
3.00635
3.48702
4.17247
8.37691
5.95485
4.15081
2.94933
2.6556
3.27888
3.64108
3.12784
1.54731
0.606167
0.460514
0.517365
0.711934
1.01685
1.36001
1.67045
1.94961
2.30364
2.73683
3.50712
7.34997
5.38893
4.17678
3.18453
2.93729
3.35581
3.59264
3.22364
1.96577
0.935889
0.53866
0.500237
0.525779
0.650488
0.898392
1.19451
1.48448
1.80983
2.19842
2.95552
6.70113
5.2474
4.39592
3.65821
3.34483
3.51273
3.61233
3.30299
2.27788
1.34581
0.76111
0.533738
0.532346
0.582676
0.714519
0.930586
1.1834
1.45615
1.78161
2.46877
6.28503
5.14221
4.65436
4.29166
3.93923
3.78737
3.69837
3.41029
2.52138
1.72917
1.07812
0.677148
0.587214
0.616194
0.708368
0.844807
1.02349
1.23776
1.49991
2.0886
6.01584
5.06397
4.92534
4.84634
4.61259
4.30705
3.90803
3.56897
2.73946
2.0497
1.4141
0.936275
0.726333
0.711463
0.749671
0.827922
0.933302
1.07479
1.25752
1.74587
5.7755
4.95674
5.04915
5.095
5.21845
5.03307
4.35408
3.83227
2.99806
2.32355
1.71484
1.23016
0.947908
0.859479
0.834325
0.851979
0.890029
0.948272
1.06704
1.48419
5.55853
4.81409
5.02134
5.09032
5.51229
5.57621
4.98163
4.26293
3.36594
2.63931
1.99851
1.52107
1.20646
1.04949
0.953708
0.897265
0.900785
0.928887
1.02478
1.36665
5.34458
4.64393
4.92354
5.02311
5.50713
5.64593
5.40422
4.81198
3.85695
3.0738
2.37317
1.86332
1.49489
1.27805
1.10839
0.964302
0.934698
0.961346
1.04712
1.34219
5.16601
4.49041
4.79024
4.92786
5.43147
5.58796
5.5218
5.29001
4.36911
3.55275
2.81911
2.27392
1.84512
1.56009
1.30832
1.09736
1.03836
1.05631
1.12792
1.36124
4.80702
4.18318
4.48282
4.67066
5.10959
5.28457
5.39635
5.36665
4.84203
4.21567
3.58081
3.03921
2.5553
2.17495
1.82419
1.54671
1.41031
1.37826
1.38421
1.44101
17.9698
19.7767
20.5218
18.9112
17.8738
17.4667
16.3427
14.4154
12.0303
10.0766
8.42444
7.42006
6.80429
6.41401
6.16458
5.93694
5.72318
5.50692
5.32198
4.94512
19.7331
21.3761
21.8276
18.0525
17.1561
17.9598
17.1427
14.4101
10.5381
7.74758
5.97073
5.42367
5.33143
5.26345
5.21223
5.12163
4.98157
4.807
4.64504
4.31829
20.4401
21.7866
18.9717
15.1572
16.5654
18.481
18.0304
14.6474
9.02354
5.57706
4.16697
4.20709
4.46457
4.77623
5.08602
5.23492
5.2087
5.10758
4.96333
4.63218
18.8591
17.895
15.0419
12.668
14.9035
18.8991
19.3573
16.7909
8.7278
2.90927
2.97444
3.21575
3.70512
4.39636
5.04147
5.32166
5.3136
5.22864
5.11061
4.81934
17.7252
16.7722
15.8832
13.8777
2.10833
2.50113
2.68797
2.96883
3.37974
3.99411
4.71851
5.3634
5.69705
5.69644
5.62255
5.2882
17.2916
17.6107
17.9619
18.5444
2.98885
3.30579
3.33393
3.41159
3.56936
3.83959
4.35482
5.11475
5.70271
5.81743
5.76028
5.44847
16.1593
16.8597
17.7106
19.0814
3.67463
3.84725
3.76194
3.69067
3.70195
3.77315
3.96297
4.39323
5.05189
5.50739
5.64116
5.51146
14.2891
14.2217
14.4711
16.5753
3.7709
3.09916
3.22172
3.30741
3.37693
3.47137
3.61278
3.85898
4.27938
4.84645
5.35056
5.44611
11.9663
10.4892
9.02907
8.87263
2.1484
2.96385
3.61528
3.60961
0.583494
0.970425
1.49189
1.92344
2.25383
2.51387
2.73109
2.97927
3.33013
3.82033
4.34052
4.84308
10.0422
7.74525
5.59533
2.8771
2.47325
3.26471
3.77023
3.02375
1.004
0.462206
0.580896
0.882903
1.28323
1.67018
2.00075
2.27795
2.57998
2.99922
3.47543
4.16093
8.40416
5.97915
4.17695
2.95272
2.66597
3.29399
3.69169
3.16002
1.53373
0.599387
0.458152
0.516785
0.713779
1.01715
1.35718
1.6653
1.94349
2.29537
2.72555
3.49338
7.3889
5.43517
4.21846
3.22057
2.96018
3.37319
3.63484
3.25646
1.96649
0.923917
0.531637
0.504601
0.530905
0.654463
0.898615
1.19162
1.48011
1.80295
2.18854
2.94101
6.74251
5.30119
4.45575
3.72675
3.38319
3.53301
3.65143
3.33388
2.29097
1.33972
0.751933
0.538552
0.539368
0.589062
0.718399
0.931965
1.18063
1.44855
1.77091
2.45612
6.32418
5.19493
4.71674
4.37183
3.99708
3.8133
3.73281
3.43813
2.53855
1.73239
1.07843
0.682515
0.593985
0.623072
0.714789
0.850078
1.0251
1.23618
1.49507
2.08108
6.04932
5.10987
4.98466
4.92227
4.67759
4.34675
3.9406
3.59313
2.75492
2.06065
1.42713
0.941757
0.732969
0.718127
0.755494
0.831931
0.936372
1.07449
1.25362
1.73782
5.80326
4.9922
5.08738
5.14175
5.26904
5.08506
4.39391
3.8561
3.01258
2.33653
1.73045
1.23723
0.955043
0.863974
0.837931
0.854845
0.890449
0.946541
1.06288
1.47787
5.57985
4.84033
5.05283
5.12715
5.54036
5.61568
5.02903
4.29015
3.38066
2.6506
2.0086
1.52746
1.2132
1.05471
0.956186
0.896936
0.900209
0.927455
1.02208
1.36286
5.36005
4.66263
4.9456
5.04679
5.52941
5.67018
5.43472
4.8497
3.87948
3.08585
2.37942
1.86864
1.50475
1.2856
1.10942
0.963611
0.933613
0.959017
1.04421
1.34107
5.1769
4.5034
4.8044
4.9423
5.44837
5.60861
5.53449
5.30917
4.38851
3.56525
2.82582
2.2789
1.85531
1.56573
1.31028
1.09901
1.03751
1.05475
1.12687
1.36102
4.81224
4.18935
4.48852
4.67544
5.1204
5.29647
5.4031
5.36601
4.84814
4.22427
3.59003
3.05037
2.56643
2.18197
1.82861
1.54967
1.41018
1.38116
1.38597
1.44153
18.1733
20.0145
20.8182
19.305
18.2856
17.8249
16.664
14.7154
12.308
10.3228
8.64321
7.62679
6.99283
6.58042
6.30619
6.06167
5.8333
5.60745
5.41965
5.04046
19.9534
21.6653
22.2304
18.574
17.6115
18.34
17.4609
14.6855
10.7851
7.96145
6.15635
5.61952
5.50615
5.41084
5.33613
5.22103
5.06422
4.87856
4.714
4.38746
20.6963
22.1264
19.719
15.7122
16.9568
18.8366
18.3395
14.9066
9.23567
5.74839
4.33222
4.38545
4.64867
4.94062
5.23949
5.34475
5.3013
5.17967
5.02643
4.6918
19.2795
18.4107
15.5324
12.8988
15.211
19.2312
19.6535
17.0524
8.85519
3.02282
3.10116
3.37795
3.89958
4.57408
5.14768
5.38059
5.36183
5.27899
5.17299
4.89293
18.1458
17.1877
16.1311
13.9242
2.21478
2.6286
2.82443
3.12374
3.55718
4.19996
4.91799
5.54235
5.79019
5.76876
5.67369
5.32438
17.6324
17.9323
18.2063
18.7432
3.12843
3.45372
3.47432
3.55205
3.71955
4.02016
4.59061
5.34885
5.85803
5.88688
5.81673
5.48321
16.4527
17.1256
17.9544
19.2824
3.85006
3.98629
3.88897
3.8131
3.82871
3.91482
4.14228
4.63988
5.2863
5.68522
5.76108
5.61379
14.5553
14.4505
14.673
16.7913
3.90122
3.21704
3.33801
3.41585
3.48649
3.59383
3.76136
4.05028
4.52539
5.08971
5.55238
5.58721
12.2006
10.672
9.1725
8.80811
2.15277
3.08148
3.8016
3.85484
0.612739
1.04239
1.57911
2.01576
2.34934
2.60925
2.8421
3.12285
3.51936
4.03677
4.56203
5.01909
10.2348
7.88229
5.69856
2.99338
2.597
3.4201
3.95827
3.18524
1.04679
0.502132
0.630709
0.949945
1.36857
1.76367
2.09468
2.38147
2.72099
3.18001
3.68078
4.35169
8.57521
6.10532
4.28148
3.06375
2.78215
3.43796
3.85669
3.31798
1.59661
0.635761
0.501403
0.564078
0.770295
1.08682
1.43437
1.74472
2.05067
2.45197
2.9187
3.68787
7.5567
5.58281
4.33656
3.336
3.0806
3.51454
3.78109
3.40278
2.04161
0.969401
0.570978
0.550004
0.58077
0.713899
0.965303
1.26862
1.57749
1.9339
2.34977
3.11275
6.90206
5.44061
4.58758
3.85615
3.51711
3.68174
3.79877
3.47883
2.38247
1.40969
0.795656
0.586517
0.591991
0.645971
0.781493
1.00726
1.2672
1.56289
1.90634
2.60444
6.47142
5.31861
4.84942
4.51009
4.16218
3.98985
3.88973
3.58977
2.64433
1.82085
1.13707
0.736526
0.651325
0.683256
0.781948
0.924353
1.10652
1.33015
1.60189
2.20894
6.18418
5.22254
5.12123
5.0294
4.85932
4.5785
4.12957
3.76169
2.87928
2.15666
1.49869
1.0049
0.799448
0.786994
0.827104
0.904381
1.00501
1.13807
1.33612
1.85953
5.93142
5.09455
5.2042
5.23523
5.46045
5.32133
4.64296
4.05939
3.16572
2.44477
1.81324
1.31849
1.03957
0.94487
0.91416
0.92565
0.951683
1.01258
1.14906
1.59607
5.69946
4.93343
5.15808
5.21205
5.66352
5.76776
5.26737
4.53971
3.57081
2.79021
2.12217
1.64031
1.32003
1.14887
1.03488
0.962183
0.964033
1.01007
1.12066
1.48018
5.47309
4.74778
5.03535
5.13063
5.63386
5.76833
5.62703
5.09777
4.08742
3.25686
2.53478
2.0175
1.63956
1.39685
1.19194
1.03897
1.02347
1.05608
1.15058
1.44621
5.28724
4.58556
4.8842
5.02817
5.52926
5.68626
5.66819
5.51734
4.6038
3.76289
3.01778
2.45759
2.00759
1.69339
1.41329
1.20226
1.15106
1.17055
1.23942
1.46138
4.91772
4.26816
4.55863
4.75676
5.17502
5.34513
5.51361
5.52718
5.025
4.41372
3.78808
3.23694
2.72818
2.32694
1.96954
1.69342
1.55399
1.5066
1.49242
1.54268
18.5785
20.4565
21.3102
20.0008
19.0136
18.4543
17.218
15.2505
12.7944
10.7433
9.03336
7.97859
7.29878
6.84537
6.5388
6.27026
6.02257
5.7856
5.59279
5.20769
20.3815
22.1417
22.8189
19.4978
18.4325
18.9687
17.9877
15.1829
11.2102
8.28889
6.46319
5.9285
5.75993
5.61746
5.5092
5.37116
5.20047
5.00533
4.83888
4.51187
21.1588
22.6361
21.1476
16.8431
17.5699
19.3826
18.86
15.3939
9.64337
6.01113
4.57006
4.63993
4.89507
5.16188
5.4269
5.49236
5.43713
5.30075
5.13984
4.7996
19.9882
19.3612
16.6183
13.5441
15.6607
19.8062
20.2788
17.6174
9.29126
3.22041
3.29284
3.59781
4.14358
4.77411
5.24147
5.4709
5.45673
5.3915
5.29679
5.01994
18.899
18.0508
16.7469
14.382
2.37497
2.79691
3.00577
3.32839
3.80444
4.50135
5.21744
5.79622
5.9162
5.87269
5.7572
5.39304
18.2622
18.5467
18.7295
19.3136
3.25751
3.61077
3.6376
3.73137
3.92885
4.30649
4.98934
5.68201
6.01187
5.99783
5.90609
5.55216
16.9891
17.6281
18.4619
19.8896
3.98142
4.12139
4.01805
3.96069
3.99136
4.11698
4.44119
5.04306
5.59873
5.91519
5.95191
5.76652
15.042
14.9
15.1174
17.3189
4.02298
3.33634
3.46803
3.55405
3.6448
3.77826
3.98971
4.3652
4.92232
5.43752
5.82432
5.81142
12.6166
11.0237
9.51704
9.36644
2.36622
3.26691
3.97262
3.98693
0.677738
1.10001
1.64916
2.10665
2.46191
2.73562
3.00968
3.35763
3.83699
4.38184
4.89979
5.28194
10.5747
8.11463
5.86468
3.13201
2.77879
3.62009
4.12398
3.34187
1.14536
0.567336
0.69423
1.02337
1.46222
1.88048
2.22418
2.54548
2.95051
3.46525
3.99587
4.64041
8.87734
6.31516
4.4353
3.2016
2.98353
3.6416
4.02171
3.47935
1.71456
0.712747
0.569029
0.623756
0.840203
1.18811
1.5459
1.86705
2.22359
2.69642
3.21739
3.98996
7.82787
5.79997
4.5141
3.49816
3.29935
3.72741
3.9708
3.57282
2.17646
1.07095
0.636455
0.628698
0.666654
0.806835
1.06505
1.371
1.7171
2.14688
2.61559
3.38879
7.14653
5.64074
4.78835
4.04084
3.77489
3.91985
4.00354
3.67044
2.53506
1.53736
0.883063
0.67717
0.681694
0.737707
0.869978
1.1024
1.39904
1.75314
2.1299
2.83784
6.69756
5.50125
5.0691
4.67749
4.47806
4.30372
4.134
3.80989
2.81066
1.97225
1.2577
0.840925
0.748316
0.773992
0.871249
1.02075
1.22292
1.47758
1.77654
2.40312
6.39747
5.39763
5.34199
5.1559
5.18939
4.99337
4.47004
4.02854
3.08848
2.32016
1.63179
1.12529
0.904379
0.881778
0.921643
0.99811
1.09829
1.24825
1.47279
2.03669
6.13977
5.26408
5.40358
5.3916
5.75873
5.68167
5.08043
4.41741
3.44307
2.64611
1.96374
1.44984
1.15872
1.05719
1.01419
1.02184
1.0509
1.12812
1.28736
1.78198
5.90074
5.09604
5.34429
5.3747
5.85108
5.97463
5.61902
4.97703
3.92783
3.05977
2.33412
1.81592
1.48113
1.29064
1.14512
1.06833
1.0729
1.13355
1.2764
1.66809
5.6708
4.90424
5.20488
5.30722
5.80109
5.95057
5.91017
5.48009
4.46452
3.5774
2.81991
2.26942
1.86717
1.57955
1.33396
1.17017
1.15984
1.2057
1.31526
1.61641
5.48317
4.74069
5.0429
5.21013
5.6768
5.8485
5.92865
5.82985
4.96932
4.10877
3.351
2.75831
2.27282
1.91035
1.59281
1.36751
1.32007
1.342
1.40746
1.62345
5.10796
4.42053
4.70514
4.93111
5.30393
5.48514
5.72723
5.8027
5.31804
4.7274
4.11329
3.53671
2.99979
2.56084
2.18164
1.90339
1.75284
1.68373
1.65642
1.70043
18.9734
20.9056
21.8331
20.8275
19.8842
19.1777
17.866
15.8806
13.3808
11.2497
9.48233
8.37578
7.64462
7.14712
6.80769
6.5157
6.24943
6.00151
5.80314
5.40943
20.8466
22.6656
23.4278
20.7175
19.5969
19.7449
18.6686
15.8401
11.7855
8.71769
6.83484
6.26973
6.04281
5.84325
5.69251
5.53013
5.34868
5.15118
4.98664
4.65934
21.703
23.2603
23.074
18.49
18.4242
20.0759
19.5452
16.0608
10.2165
6.34236
4.83587
4.92193
5.17288
5.44271
5.6565
5.66128
5.58267
5.42505
5.25598
4.90885
20.8083
20.6236
18.1521
14.5878
16.2619
20.4893
21.0139
18.3286
10.0543
3.39265
3.47328
3.81449
4.38247
4.95624
5.35651
5.57693
5.56766
5.50721
5.41282
5.13357
19.7994
19.2926
17.6967
15.0228
2.58409
2.99029
3.20389
3.54825
4.07863
4.81749
5.53965
6.00489
6.01822
5.9487
5.81472
5.44828
18.9961
19.3301
19.4494
20.0059
3.48098
3.83038
3.84856
3.93845
4.15884
4.63073
5.35472
5.91803
6.07584
6.04703
5.95018
5.60186
17.606
18.2515
19.104
20.618
4.18109
4.33251
4.21144
4.15942
4.19921
4.3629
4.78324
5.40785
5.85673
6.08888
6.09279
5.8678
15.6197
15.4687
15.6658
17.9965
4.21949
3.58194
3.70195
3.7763
3.8737
4.01669
4.26683
4.73263
5.3132
5.75544
6.04386
5.9924
13.1135
11.4549
9.91972
9.76252
2.53813
3.49881
4.21157
4.21331
0.756029
1.22537
1.79416
2.27532
2.63862
2.9231
3.23595
3.64725
4.18926
4.72728
5.22927
5.51803
10.9904
8.43415
6.11039
3.32628
3.0037
3.87012
4.36525
3.58567
1.29501
0.674637
0.808837
1.16033
1.61563
2.03934
2.3899
2.75944
3.22982
3.7768
4.32503
4.91741
9.24166
6.61024
4.66382
3.40388
3.22324
3.88829
4.24585
3.72093
1.89491
0.844513
0.678312
0.73208
0.960229
1.32113
1.68501
2.0305
2.45316
2.98619
3.53561
4.28353
8.14782
6.07671
4.76128
3.73514
3.56716
3.97934
4.20376
3.80544
2.37552
1.24006
0.757122
0.737417
0.779356
0.932327
1.19639
1.5148
1.91156
2.40336
2.9031
3.66952
7.42624
5.86653
5.03468
4.29257
4.10481
4.20214
4.24724
3.91097
2.72956
1.71411
1.02515
0.79595
0.798607
0.846532
0.982379
1.22904
1.56128
1.96782
2.385
3.10792
6.94976
5.68545
5.32201
4.87327
4.84482
4.68012
4.41872
4.06378
3.01359
2.14163
1.40928
0.979605
0.863091
0.881579
0.977024
1.13005
1.35425
1.65508
1.99282
2.64075
6.63111
5.56018
5.56745
5.30227
5.54402
5.39312
4.84497
4.32835
3.33259
2.49675
1.78407
1.26999
1.03034
0.994831
1.03242
1.10841
1.21072
1.38437
1.64362
2.25018
6.36661
5.41715
5.575
5.51659
5.99473
5.96319
5.4656
4.80863
3.75225
2.88001
2.14708
1.61054
1.30279
1.18193
1.13238
1.13316
1.16413
1.26385
1.46052
1.99401
6.12259
5.24789
5.49701
5.50436
6.00158
6.11343
5.90994
5.38014
4.29455
3.36196
2.58985
2.03144
1.66338
1.44126
1.27515
1.18729
1.1947
1.2793
1.45112
1.86223
5.89121
5.05945
5.34224
5.44576
5.92807
6.07766
6.13876
5.81797
4.82026
3.90499
3.12873
2.54154
2.0965
1.77193
1.49128
1.31421
1.31223
1.37439
1.49243
1.78877
5.70392
4.9025
5.17874
5.35496
5.7888
5.96914
6.13793
6.09394
5.31867
4.44827
3.67492
3.04881
2.52842
2.12751
1.77285
1.54602
1.49694
1.51982
1.57773
1.77682
5.3251
4.5864
4.84091
5.07871
5.41182
5.60071
5.89322
6.03279
5.58854
5.02085
4.40869
3.81158
3.25708
2.78546
2.38892
2.10968
1.9398
1.85142
1.80811
1.85286
20.0497
22.0386
22.9715
22.2721
21.3359
20.5208
19.1239
17.0336
14.4245
12.1469
10.2867
9.09997
8.31937
7.78246
7.40617
7.08749
6.81032
6.54972
6.33793
5.91613
21.9786
23.9175
24.7649
22.403
21.211
20.9959
19.8376
16.9096
12.6846
9.41617
7.45505
6.84942
6.58294
6.34936
6.16356
5.97828
5.791
5.59017
5.41977
5.07472
22.8186
24.6132
25.1983
20.3656
19.6605
21.092
20.5705
16.9773
10.937
6.86094
5.30164
5.41174
5.67683
5.94236
6.10915
6.09096
5.99261
5.82148
5.64121
5.27588
22.206
22.3071
20
16.215
17.0874
21.1832
21.8676
19.1814
10.6718
3.65261
3.78502
4.21067
4.86304
5.41672
5.79963
5.98316
5.96341
5.88621
5.77433
5.47337
21.2116
20.8855
18.948
15.9007
2.80181
3.19468
3.46257
3.88133
4.53259
5.34884
6.07929
6.40779
6.38125
6.26974
6.11354
5.74082
20.2949
20.524
20.4236
20.6702
3.7125
4.04305
4.08788
4.22189
4.52101
5.14244
5.90629
6.38684
6.42989
6.37471
6.25049
5.88754
18.8161
19.3272
19.9951
21.4134
4.35956
4.51616
4.44007
4.44671
4.52769
4.78523
5.33587
5.98205
6.39007
6.51439
6.48644
6.20157
16.7327
16.4499
16.4044
18.7246
4.4831
3.78339
3.9334
4.04769
4.19994
4.40115
4.7398
5.31136
5.91203
6.32114
6.52616
6.42233
14.1095
12.2226
10.3764
9.91321
2.78022
3.76681
4.44359
4.46208
0.864838
1.31798
1.93558
2.47936
2.89677
3.23487
3.6094
4.09853
4.71358
5.28179
5.78594
5.98812
11.8598
9.07365
6.51869
3.57241
3.28133
4.14275
4.60934
3.88399
1.4714
0.78981
0.93249
1.32656
1.82062
2.27374
2.67136
3.11603
3.67648
4.27936
4.85504
5.40154
10.0296
7.24249
5.14275
3.72354
3.54923
4.18365
4.53895
4.03711
2.12905
0.99329
0.806667
0.869508
1.11872
1.51086
1.92112
2.33065
2.83178
3.4203
3.99383
4.73233
8.8568
6.6762
5.27842
4.15159
3.95123
4.31045
4.54597
4.15129
2.65584
1.44862
0.909633
0.874908
0.925808
1.1078
1.42011
1.78915
2.23093
2.75673
3.28025
4.06758
8.0845
6.41063