/*--------------------------------*- C++ -*----------------------------------*\
  =========                 |
  \\      /  F ield         | OpenFOAM: The Open Source CFD Toolbox
   \\    /   O peration     | Website:  https://openfoam.org
    \\  /    A nd           | Version:  9
     \\/     M anipulation  |
\*---------------------------------------------------------------------------*/
FoamFile
{
    format      ascii;
    class       volScalarField;
    location    "0.004";
    object      rhoE;
}
// * * * * * * * * * * * * * * * * * * * * * * * * * * * * * * * * * * * * * //

dimensions      [1 -1 -2 0 0 0 0];

internalField   nonuniform List<scalar> 
9720
(
6.3876e+07
6.81479e+07
7.02753e+07
6.8376e+07
6.57409e+07
6.25754e+07
5.78955e+07
5.20999e+07
4.52685e+07
3.85186e+07
3.30703e+07
2.95502e+07
2.75618e+07
2.64638e+07
2.58253e+07
2.56739e+07
2.56514e+07
2.57272e+07
2.5804e+07
2.58825e+07
6.78019e+07
7.14469e+07
7.31608e+07
6.65052e+07
6.33525e+07
6.23059e+07
5.83875e+07
5.04981e+07
3.89952e+07
2.90873e+07
2.32578e+07
2.16004e+07
2.11541e+07
2.09944e+07
2.10952e+07
2.12589e+07
2.14161e+07
2.15587e+07
2.1706e+07
2.18295e+07
6.96372e+07
7.27313e+07
7.40336e+07
6.03652e+07
5.81902e+07
6.20761e+07
6.00795e+07
5.04642e+07
3.3792e+07
2.09049e+07
1.65147e+07
1.72706e+07
1.83925e+07
1.9734e+07
2.09343e+07
2.16445e+07
2.21562e+07
2.24913e+07
2.26812e+07
2.28276e+07
6.78558e+07
6.59818e+07
5.99811e+07
5.19394e+07
5.10655e+07
6.3314e+07
6.52388e+07
5.786e+07
3.35939e+07
1.12785e+07
1.22306e+07
1.36341e+07
1.56031e+07
1.79006e+07
1.98566e+07
2.11816e+07
2.20229e+07
2.2757e+07
2.32579e+07
2.37859e+07
6.49924e+07
6.23618e+07
5.69907e+07
5.05383e+07
9.05457e+06
1.16657e+07
1.25225e+07
1.3879e+07
1.59373e+07
1.83732e+07
2.10743e+07
2.28558e+07
2.34753e+07
2.39564e+07
2.42374e+07
2.44656e+07
6.16985e+07
6.11026e+07
6.0732e+07
6.2205e+07
1.5226e+07
1.6734e+07
1.6884e+07
1.73606e+07
1.83504e+07
2.01698e+07
2.23748e+07
2.42563e+07
2.48042e+07
2.52327e+07
2.5476e+07
2.55729e+07
5.68474e+07
5.69402e+07
5.84256e+07
6.352e+07
1.90715e+07
2.03357e+07
1.99942e+07
1.9942e+07
2.01421e+07
2.09324e+07
2.26139e+07
2.46357e+07
2.64002e+07
2.72842e+07
2.77043e+07
2.78148e+07
5.11356e+07
4.93151e+07
4.8972e+07
5.59987e+07
2.14813e+07
1.84913e+07
1.93529e+07
2.00662e+07
2.09067e+07
2.18408e+07
2.32944e+07
2.55297e+07
2.77237e+07
2.95648e+07
3.06935e+07
3.09469e+07
4.43362e+07
3.79412e+07
3.26899e+07
3.12351e+07
8.87663e+06
1.5171e+07
1.92579e+07
2.10687e+07
4.54829e+06
6.54316e+06
9.67603e+06
1.28715e+07
1.50827e+07
1.7e+07
1.90469e+07
2.13958e+07
2.43049e+07
2.68215e+07
2.93694e+07
3.09397e+07
3.76756e+07
2.83633e+07
2.04573e+07
1.12247e+07
1.15925e+07
1.65379e+07
2.00311e+07
1.82774e+07
7.04262e+06
4.03539e+06
4.64603e+06
6.78999e+06
9.51011e+06
1.20713e+07
1.44853e+07
1.72213e+07
2.03042e+07
2.345e+07
2.63351e+07
2.97459e+07
3.2309e+07
2.27773e+07
1.62935e+07
1.21909e+07
1.25284e+07
1.66918e+07
1.97459e+07
1.90953e+07
1.04922e+07
4.79318e+06
4.09288e+06
4.3578e+06
5.76647e+06
8.1652e+06
1.0655e+07
1.33422e+07
1.63172e+07
1.98339e+07
2.29212e+07
2.75289e+07
2.881e+07
2.11007e+07
1.69726e+07
1.3542e+07
1.38918e+07
1.71817e+07
1.97392e+07
1.98186e+07
1.35232e+07
7.35697e+06
4.49816e+06
4.39177e+06
4.77152e+06
5.99591e+06
7.93366e+06
1.03984e+07
1.30148e+07
1.63429e+07
1.93882e+07
2.44697e+07
2.68378e+07
2.06188e+07
1.80114e+07
1.53811e+07
1.5863e+07
1.81835e+07
1.9985e+07
2.06962e+07
1.55685e+07
1.01844e+07
6.23831e+06
4.8625e+06
4.97497e+06
5.45352e+06
6.47817e+06
8.29003e+06
1.05243e+07
1.35189e+07
1.65096e+07
2.1701e+07
2.57749e+07
2.04458e+07
1.92739e+07
1.74899e+07
1.81206e+07
1.99696e+07
2.08054e+07
2.16636e+07
1.73922e+07
1.27195e+07
8.75503e+06
6.35037e+06
5.60065e+06
5.69185e+06
6.12363e+06
7.22662e+06
8.97864e+06
1.15326e+07
1.40681e+07
1.88437e+07
2.51817e+07
2.05602e+07
2.04549e+07
1.93791e+07
2.06543e+07
2.19982e+07
2.24289e+07
2.31591e+07
1.93955e+07
1.51111e+07
1.12915e+07
8.46967e+06
6.87469e+06
6.30285e+06
6.4012e+06
7.08426e+06
8.04447e+06
9.73981e+06
1.18679e+07
1.64075e+07
2.50729e+07
2.07473e+07
2.11612e+07
2.07473e+07
2.24399e+07
2.38403e+07
2.43304e+07
2.53836e+07
2.17099e+07
1.78413e+07
1.40504e+07
1.10628e+07
8.89407e+06
7.66897e+06
7.24342e+06
7.53027e+06
8.02754e+06
9.10561e+06
1.07547e+07
1.45752e+07
2.50974e+07
2.09349e+07
2.16825e+07
2.16137e+07
2.30964e+07
2.44875e+07
2.6107e+07
2.75041e+07
2.44955e+07
2.08691e+07
1.70517e+07
1.3786e+07
1.12577e+07
9.61758e+06
8.51494e+06
8.22006e+06
8.41223e+06
9.27325e+06
1.0455e+07
1.34412e+07
2.52154e+07
2.11069e+07
2.20399e+07
2.23962e+07
2.36272e+07
2.49511e+07
2.70715e+07
2.94289e+07
2.69506e+07
2.38997e+07
2.0524e+07
1.71788e+07
1.43423e+07
1.2323e+07
1.05264e+07
9.54812e+06
9.58001e+06
9.99387e+06
1.065e+07
1.28825e+07
2.53305e+07
2.12879e+07
2.22681e+07
2.29423e+07
2.3951e+07
2.52382e+07
2.75186e+07
3.05579e+07
2.94903e+07
2.67408e+07
2.35684e+07
2.02113e+07
1.73488e+07
1.49408e+07
1.27863e+07
1.14957e+07
1.09378e+07
1.0901e+07
1.12673e+07
1.29808e+07
2.54767e+07
2.1478e+07
2.24899e+07
2.35469e+07
2.42473e+07
2.54064e+07
2.76919e+07
3.0843e+07
3.10476e+07
3.01078e+07
2.81412e+07
2.52699e+07
2.2566e+07
1.98037e+07
1.74716e+07
1.56194e+07
1.42143e+07
1.34732e+07
1.32784e+07
1.40155e+07
6.00656e+07
6.42254e+07
6.63511e+07
6.3333e+07
6.06181e+07
5.80507e+07
5.3776e+07
4.8423e+07
4.19034e+07
3.55563e+07
3.03228e+07
2.69972e+07
2.51067e+07
2.40708e+07
2.35068e+07
2.33745e+07
2.33132e+07
2.33491e+07
2.33968e+07
2.34283e+07
6.39243e+07
6.72166e+07
6.86307e+07
6.123e+07
5.81811e+07
5.85925e+07
5.49265e+07
4.73573e+07
3.64882e+07
2.70786e+07
2.13436e+07
1.96872e+07
1.92654e+07
1.91203e+07
1.92846e+07
1.94771e+07
1.96068e+07
1.97008e+07
1.98033e+07
1.98614e+07
6.5892e+07
6.82512e+07
6.76478e+07
5.50892e+07
5.49902e+07
5.93685e+07
5.72285e+07
4.79826e+07
3.20731e+07
1.96341e+07
1.51067e+07
1.57574e+07
1.66679e+07
1.7839e+07
1.91406e+07
1.98774e+07
2.04163e+07
2.07611e+07
2.09488e+07
2.10738e+07
6.32446e+07
6.10598e+07
5.46513e+07
4.76556e+07
4.9851e+07
6.1454e+07
6.26061e+07
5.52618e+07
3.21781e+07
1.0579e+07
1.13485e+07
1.25528e+07
1.41609e+07
1.6212e+07
1.8089e+07
1.9497e+07
2.02928e+07
2.1019e+07
2.15388e+07
2.2069e+07
6.02845e+07
5.74055e+07
5.32271e+07
4.68729e+07
8.26554e+06
1.11402e+07
1.18818e+07
1.30504e+07
1.47097e+07
1.68505e+07
1.91644e+07
2.12739e+07
2.19301e+07
2.24972e+07
2.28291e+07
2.30188e+07
5.74033e+07
5.75159e+07
5.79708e+07
6.0298e+07
1.51387e+07
1.645e+07
1.64654e+07
1.67369e+07
1.74387e+07
1.8806e+07
2.07365e+07
2.2582e+07
2.3489e+07
2.39227e+07
2.41957e+07
2.4231e+07
5.27935e+07
5.36173e+07
5.59125e+07
6.13214e+07
1.92127e+07
2.0163e+07
1.95941e+07
1.9258e+07
1.92962e+07
1.97661e+07
2.10296e+07
2.28934e+07
2.4487e+07
2.57392e+07
2.61668e+07
2.63472e+07
4.73474e+07
4.60905e+07
4.66806e+07
5.371e+07
2.15045e+07
1.81334e+07
1.88226e+07
1.92823e+07
1.98634e+07
2.05375e+07
2.16403e+07
2.35349e+07
2.56388e+07
2.72912e+07
2.87891e+07
2.91592e+07
4.07818e+07
3.5278e+07
3.09058e+07
3.068e+07
8.06669e+06
1.44926e+07
1.86838e+07
2.03199e+07
4.3702e+06
6.2672e+06
9.14908e+06
1.20945e+07
1.41732e+07
1.57848e+07
1.75326e+07
1.95713e+07
2.21884e+07
2.4541e+07
2.69367e+07
2.88711e+07
3.45121e+07
2.60935e+07
1.88736e+07
1.0363e+07
1.09334e+07
1.6039e+07
1.97118e+07
1.7699e+07
6.65515e+06
3.6049e+06
4.22587e+06
6.11525e+06
8.62706e+06
1.10052e+07
1.31684e+07
1.55219e+07
1.821e+07
2.11027e+07
2.37816e+07
2.7379e+07
2.93747e+07
2.05516e+07
1.45641e+07
1.1071e+07
1.16437e+07
1.60662e+07
1.91772e+07
1.83793e+07
9.75161e+06
4.28684e+06
3.60906e+06
3.79426e+06
4.99779e+06
7.1926e+06
9.474e+06
1.18056e+07
1.43462e+07
1.75165e+07
2.04439e+07
2.50929e+07
2.61265e+07
1.89622e+07
1.51631e+07
1.21936e+07
1.27728e+07
1.63696e+07
1.89766e+07
1.88817e+07
1.2537e+07
6.52982e+06
3.85678e+06
3.77943e+06
4.08231e+06
5.16701e+06
6.78945e+06
8.87318e+06
1.11803e+07
1.42594e+07
1.71762e+07
2.21349e+07
2.43085e+07
1.86114e+07
1.60951e+07
1.37528e+07
1.43992e+07
1.71073e+07
1.90473e+07
1.9544e+07
1.44831e+07
9.15068e+06
5.37056e+06
4.15821e+06
4.29968e+06
4.66422e+06
5.37237e+06
6.957e+06
9.04186e+06
1.1828e+07
1.4613e+07
1.94912e+07
2.33453e+07
1.85196e+07
1.73144e+07
1.56993e+07
1.64785e+07
1.85267e+07
1.95823e+07
2.03256e+07
1.60596e+07
1.15568e+07
7.74423e+06
5.49351e+06
4.77705e+06
4.76771e+06
5.18706e+06
6.2251e+06
7.81733e+06
1.01128e+07
1.24565e+07
1.67973e+07
2.28454e+07
1.87347e+07
1.86765e+07
1.75698e+07
1.87873e+07
2.03975e+07
2.0886e+07
2.15427e+07
1.78594e+07
1.37633e+07
1.01309e+07
7.34316e+06
5.75353e+06
5.34554e+06
5.47524e+06
6.10145e+06
6.95096e+06
8.4462e+06
1.02892e+07
1.43907e+07
2.27687e+07
1.89682e+07
1.94305e+07
1.90966e+07
2.08588e+07
2.22025e+07
2.26994e+07
2.35205e+07
1.99555e+07
1.62111e+07
1.26015e+07
9.61329e+06
7.57398e+06
6.64922e+06
6.29902e+06
6.49662e+06
6.87753e+06
7.72673e+06
9.03751e+06
1.26066e+07
2.27609e+07
1.91286e+07
1.99739e+07
1.99301e+07
2.15199e+07
2.30871e+07
2.42781e+07
2.55625e+07
2.25607e+07
1.89585e+07
1.52598e+07
1.2083e+07
9.82486e+06
8.48325e+06
7.47331e+06
7.06845e+06
7.1592e+06
7.76372e+06
8.84429e+06
1.17386e+07
2.28415e+07
1.92471e+07
2.03252e+07
2.07068e+07
2.21066e+07
2.35521e+07
2.55463e+07
2.72684e+07
2.48537e+07
2.1811e+07
1.84644e+07
1.52762e+07
1.27665e+07
1.09866e+07
9.32336e+06
8.17318e+06
8.06725e+06
8.38879e+06
9.08547e+06
1.13302e+07
2.29291e+07
1.93822e+07
2.05391e+07
2.12606e+07
2.24603e+07
2.38559e+07
2.60022e+07
2.87234e+07
2.72518e+07
2.44469e+07
2.13568e+07
1.82071e+07
1.5634e+07
1.34562e+07
1.13136e+07
9.79358e+06
9.29204e+06
9.33912e+06
9.77345e+06
1.14257e+07
2.30306e+07
1.9507e+07
2.07266e+07
2.18388e+07
2.27014e+07
2.39434e+07
2.61944e+07
2.91014e+07
2.90919e+07
2.79174e+07
2.59103e+07
2.31493e+07
2.05945e+07
1.79272e+07
1.55455e+07
1.36538e+07
1.24859e+07
1.19274e+07
1.17372e+07
1.2379e+07
5.92214e+07
6.31364e+07
6.52257e+07
6.15853e+07
5.8298e+07
5.61733e+07
5.20415e+07
4.68139e+07
4.0491e+07
3.43219e+07
2.92129e+07
2.60124e+07
2.4231e+07
2.32785e+07
2.2753e+07
2.26052e+07
2.25314e+07
2.25488e+07
2.25592e+07
2.2523e+07
6.30194e+07
6.59757e+07
6.72909e+07
5.86749e+07
5.50195e+07
5.64684e+07
5.3e+07
4.56137e+07
3.51379e+07
2.61248e+07
2.04977e+07
1.89009e+07
1.85997e+07
1.85416e+07
1.87723e+07
1.89834e+07
1.91021e+07
1.91587e+07
1.92116e+07
1.91922e+07
6.49164e+07
6.69781e+07
6.22969e+07
5.10784e+07
5.26398e+07
5.72252e+07
5.51303e+07
4.60684e+07
3.06212e+07
1.90529e+07
1.45424e+07
1.50667e+07
1.59869e+07
1.70939e+07
1.84737e+07
1.93343e+07
1.99007e+07
2.02728e+07
2.04563e+07
2.05394e+07
6.13614e+07
5.80159e+07
5.04421e+07
4.36373e+07
4.73686e+07
5.95567e+07
6.03133e+07
5.28893e+07
3.00557e+07
1.02795e+07
1.09739e+07
1.2202e+07
1.37564e+07
1.57948e+07
1.7705e+07
1.90839e+07
1.98207e+07
2.04845e+07
2.09545e+07
2.13955e+07
5.81198e+07
5.42558e+07
5.09677e+07
4.44432e+07
7.42801e+06
1.05209e+07
1.13012e+07
1.25249e+07
1.4156e+07
1.63734e+07
1.86409e+07
2.10384e+07
2.191e+07
2.24442e+07
2.27454e+07
2.27916e+07
5.57831e+07
5.55893e+07
5.58683e+07
5.82528e+07
1.41492e+07
1.57585e+07
1.58427e+07
1.61893e+07
1.69498e+07
1.83021e+07
2.04758e+07
2.26206e+07
2.40221e+07
2.43725e+07
2.45369e+07
2.43191e+07
5.1309e+07
5.20379e+07
5.41702e+07
5.92536e+07
1.86204e+07
1.97188e+07
1.92703e+07
1.9014e+07
1.90789e+07
1.95634e+07
2.07604e+07
2.2884e+07
2.46925e+07
2.61276e+07
2.6523e+07
2.65553e+07
4.57958e+07
4.44874e+07
4.51434e+07
5.18655e+07
2.06796e+07
1.75178e+07
1.83348e+07
1.88533e+07
1.94838e+07
2.02206e+07
2.12956e+07
2.30827e+07
2.54736e+07
2.73457e+07
2.91643e+07
2.94345e+07
3.94088e+07
3.41222e+07
2.9854e+07
2.92889e+07
7.44332e+06
1.4139e+07
1.85267e+07
2.03288e+07
4.05359e+06
6.13237e+06
8.86377e+06
1.15907e+07
1.37855e+07
1.53501e+07
1.70699e+07
1.89854e+07
2.15393e+07
2.42299e+07
2.6636e+07
2.89e+07
3.32817e+07
2.51107e+07
1.80672e+07
9.70857e+06
1.02405e+07
1.55501e+07
1.96235e+07
1.73761e+07
6.13762e+06
3.24854e+06
3.86785e+06
5.64792e+06
8.20777e+06
1.06161e+07
1.2735e+07
1.48419e+07
1.74185e+07
2.04076e+07
2.31704e+07
2.70139e+07
2.81984e+07
1.95218e+07
1.36016e+07
1.02815e+07
1.08527e+07
1.55738e+07
1.91231e+07
1.82472e+07
9.18858e+06
3.83017e+06
3.22096e+06
3.45587e+06
4.58976e+06
6.69159e+06
8.92358e+06
1.11328e+07
1.34988e+07
1.65722e+07
1.95283e+07
2.43523e+07
2.5034e+07
1.79421e+07
1.41806e+07
1.14326e+07
1.19345e+07
1.58466e+07
1.87995e+07
1.87189e+07
1.19831e+07
5.94163e+06
3.48165e+06
3.39708e+06
3.61929e+06
4.55863e+06
6.18194e+06
8.27562e+06
1.04383e+07
1.32892e+07
1.60913e+07
2.1126e+07
2.33314e+07
1.77813e+07
1.51826e+07
1.29539e+07
1.34719e+07
1.65421e+07
1.88609e+07
1.93323e+07
1.41252e+07
8.68671e+06
4.89638e+06
3.65742e+06
3.75715e+06
4.19612e+06
4.92748e+06
6.46087e+06
8.37022e+06
1.08514e+07
1.34057e+07
1.82766e+07
2.24655e+07
1.78387e+07
1.64332e+07
1.49434e+07
1.55962e+07
1.78466e+07
1.93388e+07
2.00638e+07
1.56835e+07
1.11707e+07
7.18582e+06
4.80961e+06
4.26383e+06
4.37434e+06
4.77471e+06
5.73352e+06
7.15612e+06
9.1527e+06
1.13857e+07
1.5709e+07
2.20119e+07
1.81458e+07
1.79245e+07
1.70063e+07
1.78648e+07
1.99241e+07
2.05189e+07
2.11442e+07
1.73877e+07
1.33128e+07
9.52519e+06
6.64258e+06
5.20917e+06
4.88303e+06
4.9436e+06
5.50342e+06
6.31847e+06
7.69868e+06
9.47408e+06
1.33822e+07
2.19357e+07
1.84214e+07
1.88825e+07
1.86575e+07
2.03481e+07
2.19438e+07
2.25176e+07
2.29149e+07
1.93e+07
1.54561e+07
1.18123e+07
8.85878e+06
6.93774e+06
6.06546e+06
5.64763e+06
5.83266e+06
6.21935e+06
7.01027e+06
8.16996e+06
1.15327e+07
2.19288e+07
1.85872e+07
1.94537e+07
1.94533e+07
2.13203e+07
2.32191e+07
2.41479e+07
2.52049e+07
2.18073e+07
1.80216e+07
1.42384e+07
1.11413e+07
8.9814e+06
7.7147e+06
6.71282e+06
6.37405e+06
6.5219e+06
7.02882e+06
7.92151e+06
1.06489e+07
2.2e+07
1.8682e+07
1.98405e+07
2.01968e+07
2.19009e+07
2.35978e+07
2.55495e+07
2.69915e+07
2.43501e+07
2.09574e+07
1.73548e+07
1.41437e+07
1.16628e+07
9.94626e+06
8.40491e+06
7.37969e+06
7.25648e+06
7.46604e+06
8.07131e+06
1.02712e+07
2.20526e+07
1.87682e+07
2.00421e+07
2.07052e+07
2.224e+07
2.38285e+07
2.5982e+07
2.87487e+07
2.66608e+07
2.36082e+07
2.02886e+07
1.70215e+07
1.43823e+07
1.23419e+07
1.03716e+07
8.81891e+06
8.28592e+06
8.27691e+06
8.68854e+06
1.03914e+07
2.20884e+07
1.88126e+07
2.01634e+07
2.11785e+07
2.23507e+07
2.37539e+07
2.60699e+07
2.90376e+07
2.88276e+07
2.73092e+07
2.50132e+07
2.20508e+07
1.93462e+07
1.67943e+07
1.44473e+07
1.24828e+07
1.13257e+07
1.08041e+07
1.06677e+07
1.12842e+07
5.77929e+07
6.1669e+07
6.36655e+07
5.93924e+07
5.59391e+07
5.4046e+07
5.00481e+07
4.48234e+07
3.87025e+07
3.28273e+07
2.78617e+07
2.4856e+07
2.32244e+07
2.2391e+07
2.19303e+07
2.18018e+07
2.17456e+07
2.17559e+07
2.17526e+07
2.16789e+07
6.16093e+07
6.45427e+07
6.56065e+07
5.59487e+07
5.25352e+07
5.43502e+07
5.11207e+07
4.38033e+07
3.35896e+07
2.49139e+07
1.94479e+07
1.79711e+07
1.78669e+07
1.79361e+07
1.82343e+07
1.84612e+07
1.85748e+07
1.86161e+07
1.86395e+07
1.85644e+07
6.34457e+07
6.55704e+07
5.79619e+07
4.79511e+07
5.04899e+07
5.51942e+07
5.32642e+07
4.4354e+07
2.90794e+07
1.78559e+07
1.36333e+07
1.42278e+07
1.5298e+07
1.65132e+07
1.7964e+07
1.88522e+07
1.94106e+07
1.97692e+07
1.99275e+07
1.99593e+07
5.91384e+07
5.54081e+07
4.72593e+07
4.1216e+07
4.44609e+07
5.72063e+07
5.78312e+07
5.04566e+07
2.77e+07
9.53695e+06
1.01719e+07
1.14384e+07
1.31143e+07
1.52906e+07
1.75598e+07
1.88053e+07
1.94332e+07
1.99531e+07
2.03238e+07
2.06669e+07
5.56843e+07
5.18224e+07
4.96811e+07
4.39243e+07
7.41806e+06
1.02581e+07
1.094e+07
1.20793e+07
1.35971e+07
1.57321e+07
1.80166e+07
2.04882e+07
2.16997e+07
2.22109e+07
2.24805e+07
2.24257e+07
5.37927e+07
5.38153e+07
5.44358e+07
5.62809e+07
1.39982e+07
1.57942e+07
1.58372e+07
1.60903e+07
1.67112e+07
1.7822e+07
1.97938e+07
2.21628e+07
2.4016e+07
2.43731e+07
2.44989e+07
2.41556e+07
4.95812e+07
5.04776e+07
5.2584e+07
5.70009e+07
1.87711e+07
1.99826e+07
1.94955e+07
1.90906e+07
1.90885e+07
1.94236e+07
2.03054e+07
2.21961e+07
2.44013e+07
2.58718e+07
2.63204e+07
2.62385e+07
4.42404e+07
4.31209e+07
4.37534e+07
4.97404e+07
2.06664e+07
1.73087e+07
1.8195e+07
1.86755e+07
1.91585e+07
1.98262e+07
2.07082e+07
2.21843e+07
2.44266e+07
2.66785e+07
2.87408e+07
2.8998e+07
3.80177e+07
3.29522e+07
2.86704e+07
2.76706e+07
6.9068e+06
1.35004e+07
1.84317e+07
2.04018e+07
3.71865e+06
5.64432e+06
8.4284e+06
1.10862e+07
1.33241e+07
1.49328e+07
1.64792e+07
1.81722e+07
2.03358e+07
2.309e+07
2.55455e+07
2.81199e+07
3.21092e+07
2.43336e+07
1.74895e+07
9.23597e+06
9.74366e+06
1.52154e+07
1.94922e+07
1.70808e+07
6.01822e+06
2.90402e+06
3.46665e+06
5.1556e+06
7.75793e+06
1.01723e+07
1.22528e+07
1.4101e+07
1.63522e+07
1.91279e+07
2.18775e+07
2.5865e+07
2.7085e+07
1.87717e+07
1.30117e+07
9.7389e+06
1.03694e+07
1.52684e+07
1.90116e+07
1.79287e+07
8.93972e+06
3.49997e+06
2.85914e+06
3.15006e+06
4.2832e+06
6.2188e+06
8.3791e+06
1.04553e+07
1.25794e+07
1.5342e+07
1.8155e+07
2.29783e+07
2.40077e+07
1.7148e+07
1.3492e+07
1.08163e+07
1.14323e+07
1.55302e+07
1.86073e+07
1.83735e+07
1.15708e+07
5.45381e+06
3.16113e+06
3.02127e+06
3.19538e+06
4.02239e+06
5.59031e+06
7.67207e+06
9.73747e+06
1.22717e+07
1.48213e+07
1.97261e+07
2.23492e+07
1.69936e+07
1.44234e+07
1.22432e+07
1.28539e+07
1.61388e+07
1.86124e+07
1.88489e+07
1.36422e+07
8.15092e+06
4.4833e+06
3.20197e+06
3.256e+06
3.65981e+06
4.44412e+06
5.98924e+06
7.73783e+06
9.9053e+06
1.22218e+07
1.69171e+07
2.15242e+07
1.70692e+07
1.55877e+07
1.41953e+07
1.48338e+07
1.72147e+07
1.89479e+07
1.94829e+07
1.51247e+07
1.06126e+07
6.61342e+06
4.17674e+06
3.65901e+06
3.89496e+06
4.35288e+06
5.26992e+06
6.553e+06
8.30746e+06
1.0292e+07
1.44429e+07
2.11008e+07
1.73816e+07
1.70311e+07
1.63648e+07
1.70213e+07
1.91007e+07
1.98325e+07
2.03399e+07
1.66108e+07
1.26744e+07
8.83902e+06
5.86937e+06
4.56854e+06
4.4146e+06
4.47686e+06
4.98734e+06
5.74896e+06
6.93113e+06
8.55777e+06
1.22205e+07
2.10012e+07
1.7668e+07
1.8077e+07
1.78663e+07
1.94654e+07
2.12959e+07
2.16426e+07
2.17756e+07
1.82569e+07
1.45423e+07
1.08919e+07
7.96271e+06
6.21267e+06
5.4727e+06
5.08422e+06
5.22736e+06
5.55246e+06
6.24732e+06
7.34016e+06
1.03883e+07
2.09931e+07
1.78477e+07
1.86663e+07
1.86046e+07
2.08237e+07
2.30329e+07
2.361e+07
2.39431e+07
2.04121e+07
1.67442e+07
1.30146e+07
1.00787e+07
8.06691e+06
6.91423e+06
6.02086e+06
5.66778e+06
5.80393e+06
6.30429e+06
7.04378e+06
9.51628e+06
2.10554e+07
1.79463e+07
1.90813e+07
1.92921e+07
2.14014e+07
2.34024e+07
2.50273e+07
2.60387e+07
2.3028e+07
1.94619e+07
1.5804e+07
1.27568e+07
1.04029e+07
8.8385e+06
7.39836e+06
6.50301e+06
6.44498e+06
6.65737e+06
7.15321e+06
9.20966e+06
2.10957e+07
1.80168e+07
1.92976e+07
1.97735e+07
2.17373e+07
2.35829e+07
2.55564e+07
2.80826e+07
2.53827e+07
2.20766e+07
1.86179e+07
1.54345e+07
1.28748e+07
1.09716e+07
9.20052e+06
7.82455e+06
7.33526e+06
7.32065e+06
7.66965e+06
9.30632e+06
2.11015e+07
1.80229e+07
1.9416e+07
2.02334e+07
2.17744e+07
2.33648e+07
2.55826e+07
2.8398e+07
2.78832e+07
2.59486e+07
2.33899e+07
2.03994e+07
1.77181e+07
1.5299e+07
1.30797e+07
1.1184e+07
1.01269e+07
9.67915e+06
9.54784e+06
1.01483e+07
5.70602e+07
6.0885e+07
6.27689e+07
5.81909e+07
5.47843e+07
5.30078e+07
4.90801e+07
4.38219e+07
3.76574e+07
3.19062e+07
2.69949e+07
2.40237e+07
2.24953e+07
2.17677e+07
2.14064e+07
2.1326e+07
2.13062e+07
2.13395e+07
2.13303e+07
2.12328e+07
6.07135e+07
6.34539e+07
6.44122e+07
5.45015e+07
5.14651e+07
5.33615e+07
5.02292e+07
4.28821e+07
3.25076e+07
2.40043e+07
1.86619e+07
1.71475e+07
1.71763e+07
1.73681e+07
1.77564e+07
1.80733e+07
1.82438e+07
1.83187e+07
1.834e+07
1.8237e+07
6.24351e+07
6.41894e+07
5.53162e+07
4.62199e+07
4.98585e+07
5.44116e+07
5.24358e+07
4.34347e+07
2.79632e+07
1.69225e+07
1.28759e+07
1.3448e+07
1.4547e+07
1.58564e+07
1.73792e+07
1.84634e+07
1.90772e+07
1.94974e+07
1.96761e+07
1.969e+07
5.77519e+07
5.34623e+07
4.53771e+07
3.97931e+07
4.36778e+07
5.59415e+07
5.63599e+07
4.90691e+07
2.68106e+07
8.95645e+06
9.51237e+06
1.07422e+07
1.23967e+07
1.45941e+07
1.71874e+07
1.86075e+07
1.92354e+07
1.97193e+07
2.00334e+07
2.03208e+07
5.41509e+07
5.02839e+07
4.8496e+07
4.26674e+07
6.74103e+06
9.67062e+06
1.03205e+07
1.14309e+07
1.29349e+07
1.50154e+07
1.74036e+07
1.99775e+07
2.15667e+07
2.21307e+07
2.24614e+07
2.24153e+07
5.25425e+07
5.25915e+07
5.34206e+07
5.54404e+07
1.3647e+07
1.53166e+07
1.54484e+07
1.57659e+07
1.63826e+07
1.74139e+07
1.92247e+07
2.16682e+07
2.38549e+07
2.45412e+07
2.4674e+07
2.43301e+07
4.85603e+07
4.95447e+07
5.17277e+07
5.57378e+07
1.85525e+07
1.96665e+07
1.92851e+07
1.88987e+07
1.88849e+07
1.91602e+07
1.99249e+07
2.15582e+07
2.39027e+07
2.55562e+07
2.62942e+07
2.61569e+07
4.33588e+07
4.22994e+07
4.29401e+07
4.84997e+07
2.08149e+07
1.70121e+07
1.79411e+07
1.84653e+07
1.88624e+07
1.9437e+07
2.01774e+07
2.14582e+07
2.34945e+07
2.59855e+07
2.82014e+07
2.87443e+07
3.72943e+07
3.22378e+07
2.78687e+07
2.65279e+07
6.51023e+06
1.314e+07
1.79908e+07
1.95156e+07
3.4961e+06
5.34296e+06
8.12591e+06
1.077e+07
1.29746e+07
1.45647e+07
1.59979e+07
1.75837e+07
1.95228e+07
2.22035e+07
2.47035e+07
2.75172e+07
3.15894e+07
2.39464e+07
1.71247e+07
8.95422e+06
9.5118e+06
1.49494e+07
1.8958e+07
1.63654e+07
5.74664e+06
2.73351e+06
3.22618e+06
4.7981e+06
7.31464e+06
9.74695e+06
1.18576e+07
1.36312e+07
1.56764e+07
1.82255e+07
2.08959e+07
2.49896e+07
2.66446e+07
1.85096e+07
1.28258e+07
9.51192e+06
1.01358e+07
1.50363e+07
1.85801e+07
1.7317e+07
8.62322e+06
3.30524e+06
2.61302e+06
2.89503e+06
4.0304e+06
5.92397e+06
8.03333e+06
9.98591e+06
1.19167e+07
1.44447e+07
1.71203e+07
2.19807e+07
2.35873e+07
1.68516e+07
1.32311e+07
1.06106e+07
1.12012e+07
1.53189e+07
1.82883e+07
1.78543e+07
1.11564e+07
5.15909e+06
2.93598e+06
2.80129e+06
2.96294e+06
3.7002e+06
5.19906e+06
7.15758e+06
9.13589e+06
1.15593e+07
1.39846e+07
1.88208e+07
2.19521e+07
1.66979e+07
1.41309e+07
1.20573e+07
1.26143e+07
1.59167e+07
1.83111e+07
1.83103e+07
1.31715e+07
7.76681e+06
4.24695e+06
2.95319e+06
2.94359e+06
3.30093e+06
4.07733e+06
5.56837e+06
7.2853e+06
9.31174e+06
1.14729e+07
1.60313e+07
2.11499e+07
1.67855e+07
1.52719e+07
1.40365e+07
1.45459e+07
1.6936e+07
1.86446e+07
1.89409e+07
1.46655e+07
1.01967e+07
6.25117e+06
3.79803e+06
3.27302e+06
3.54862e+06
4.0251e+06
4.9304e+06
6.15993e+06
7.76361e+06
9.59743e+06
1.3579e+07
2.07412e+07
1.71017e+07
1.66869e+07
1.63029e+07
1.67154e+07
1.87078e+07
1.94634e+07
1.97495e+07
1.60985e+07
1.22176e+07
8.3606e+06
5.41039e+06
4.13717e+06
4.06216e+06
4.14606e+06
4.64337e+06
5.39163e+06
6.49803e+06
7.97678e+06
1.14278e+07
2.06238e+07
1.73807e+07
1.77249e+07
1.76646e+07
1.9153e+07
2.10065e+07
2.11129e+07
2.10898e+07
1.7657e+07
1.39814e+07
1.03202e+07
7.39376e+06
5.71096e+06
5.07131e+06
4.70745e+06
4.82162e+06
5.15036e+06
5.77089e+06
6.81297e+06
9.67634e+06
2.05953e+07
1.75464e+07
1.83266e+07
1.83306e+07
2.06733e+07
2.30533e+07
2.32819e+07
2.31385e+07
1.96333e+07
1.60178e+07
1.23065e+07
9.44809e+06
7.53309e+06
6.42781e+06
5.58166e+06
5.23642e+06
5.33761e+06
5.79461e+06
6.49372e+06
8.82831e+06
2.06368e+07
1.76333e+07
1.87553e+07
1.89081e+07
2.12481e+07
2.35889e+07
2.48379e+07
2.54853e+07
2.22328e+07
1.85751e+07
1.49023e+07
1.19667e+07
9.71242e+06
8.18642e+06
6.82983e+06
5.95946e+06
5.87284e+06
6.14288e+06
6.57432e+06
8.56489e+06
2.0649e+07
1.76799e+07
1.89693e+07
1.93182e+07
2.15965e+07
2.37312e+07
2.5531e+07
2.76432e+07
2.46219e+07
2.11582e+07
1.76031e+07
1.45041e+07
1.1996e+07
1.01325e+07
8.46455e+06
7.15579e+06
6.67561e+06
6.6824e+06
6.99646e+06
8.63831e+06
2.06098e+07
1.76395e+07
1.9056e+07
1.97294e+07
2.1613e+07
2.34378e+07
2.54812e+07
2.81565e+07
2.73299e+07
2.51111e+07
2.2362e+07
1.93494e+07
1.66678e+07
1.427e+07
1.20949e+07
1.02517e+07
9.24782e+06
8.9088e+06
8.85232e+06
9.43347e+06
5.70806e+07
6.09438e+07
6.27964e+07
5.81752e+07
5.47769e+07
5.30582e+07
4.91482e+07
4.38517e+07
3.76534e+07
3.18669e+07
2.69082e+07
2.39236e+07
2.24168e+07
2.17111e+07
2.13727e+07
2.13101e+07
2.13034e+07
2.13472e+07
2.13454e+07
2.12555e+07
6.06962e+07
6.3493e+07
6.44652e+07
5.4348e+07
5.1523e+07
5.34875e+07
5.03329e+07
4.29522e+07
3.25544e+07
2.40574e+07
1.8625e+07
1.70316e+07
1.70637e+07
1.72842e+07
1.7707e+07
1.80566e+07
1.82443e+07
1.83275e+07
1.8354e+07
1.82582e+07
6.24194e+07
6.41877e+07
5.52005e+07
4.58652e+07
5.02006e+07
5.46663e+07
5.25751e+07
4.35158e+07
2.80113e+07
1.70828e+07
1.28802e+07
1.33811e+07
1.44068e+07
1.57323e+07
1.73091e+07
1.84563e+07
1.90834e+07
1.95173e+07
1.97068e+07
1.97318e+07
5.77161e+07
5.34814e+07
4.5377e+07
3.9195e+07
4.41763e+07
5.58969e+07
5.60792e+07
4.88228e+07
2.63701e+07
9.01499e+06
9.57115e+06
1.07622e+07
1.23356e+07
1.44897e+07
1.70923e+07
1.85695e+07
1.92218e+07
1.97386e+07
2.00726e+07
2.03744e+07
5.40189e+07
5.00281e+07
4.79663e+07
4.10809e+07
6.26836e+06
9.66287e+06
1.03212e+07
1.14167e+07
1.28938e+07
1.49334e+07
1.73102e+07
1.99011e+07
2.15651e+07
2.21491e+07
2.25033e+07
2.24752e+07
5.24253e+07
5.24044e+07
5.31377e+07
5.48916e+07
1.31201e+07
1.532e+07
1.54301e+07
1.57347e+07
1.63542e+07
1.73902e+07
1.9207e+07
2.16884e+07
2.38884e+07
2.45971e+07
2.47247e+07
2.43797e+07
4.8451e+07
4.9351e+07
5.1496e+07
5.51548e+07
1.82004e+07
1.97815e+07
1.93869e+07
1.89745e+07
1.89575e+07
1.92199e+07
1.99693e+07
2.15885e+07
2.39362e+07
2.55607e+07
2.63107e+07
2.61788e+07
4.32783e+07
4.22058e+07
4.28888e+07
4.8139e+07
2.02609e+07
1.70982e+07
1.80054e+07
1.85156e+07
1.89173e+07
1.94987e+07
2.02282e+07
2.14915e+07
2.35084e+07
2.59857e+07
2.81738e+07
2.87506e+07
3.73001e+07
3.22878e+07
2.796e+07
2.68195e+07
6.45639e+06
1.30207e+07
1.77894e+07
1.93194e+07
3.41338e+06
5.53673e+06
8.33646e+06
1.09172e+07
1.30628e+07
1.46349e+07
1.60381e+07
1.75963e+07
1.95089e+07
2.2166e+07
2.46335e+07
2.74669e+07
3.16415e+07
2.3994e+07
1.7126e+07
8.91408e+06
9.55976e+06
1.5031e+07
1.92751e+07
1.6576e+07
5.70065e+06
2.72547e+06
3.2599e+06
4.88148e+06
7.41327e+06
9.82289e+06
1.18939e+07
1.36385e+07
1.56412e+07
1.81645e+07
2.08032e+07
2.48973e+07
2.6742e+07
1.86001e+07
1.29094e+07
9.54173e+06
1.02407e+07
1.51497e+07
1.89124e+07
1.75402e+07
8.5554e+06
3.28631e+06
2.61039e+06
2.88669e+06
4.02721e+06
5.91907e+06
8.01298e+06
9.95102e+06
1.18679e+07
1.43766e+07
1.7037e+07
2.18752e+07
2.37204e+07
1.70007e+07
1.33546e+07
1.07515e+07
1.13558e+07
1.54583e+07
1.85775e+07
1.80893e+07
1.11658e+07
5.10617e+06
2.91909e+06
2.82187e+06
2.98351e+06
3.71217e+06
5.1912e+06
7.13338e+06
9.10258e+06
1.15016e+07
1.39158e+07
1.87115e+07
2.20961e+07
1.68744e+07
1.43185e+07
1.23071e+07
1.28247e+07
1.60786e+07
1.85851e+07
1.85445e+07
1.32655e+07
7.74031e+06
4.19899e+06
2.98564e+06
2.99214e+06
3.33293e+06
4.09753e+06
5.57192e+06
7.26541e+06
9.26631e+06
1.14107e+07
1.59442e+07
2.12913e+07
1.6967e+07
1.54814e+07
1.43379e+07
1.48343e+07
1.71302e+07
1.88923e+07
1.91639e+07
1.47761e+07
1.02018e+07
6.23834e+06
3.83612e+06
3.33138e+06
3.59304e+06
4.06268e+06
4.95822e+06
6.16999e+06
7.76687e+06
9.58531e+06
1.35404e+07
2.08647e+07
1.72671e+07
1.68933e+07
1.65977e+07
1.70225e+07
1.89671e+07
1.97018e+07
1.99513e+07
1.61972e+07
1.22582e+07
8.41376e+06
5.4421e+06
4.18041e+06
4.09474e+06
4.17175e+06
4.66051e+06
5.40958e+06
6.50753e+06
7.98007e+06
1.13899e+07
2.07313e+07
1.7514e+07
1.78607e+07
1.78585e+07
1.94019e+07
2.13193e+07
2.13825e+07
2.12898e+07
1.7756e+07
1.40341e+07
1.03813e+07
7.429e+06
5.74101e+06
5.08178e+06
4.71695e+06
4.83286e+06
5.15323e+06
5.76837e+06
6.803e+06
9.64713e+06
2.06838e+07
1.76506e+07
1.84413e+07
1.84871e+07
2.08213e+07
2.33019e+07
2.35839e+07
2.33501e+07
1.97358e+07
1.6082e+07
1.23448e+07
9.46855e+06
7.54499e+06
6.43141e+06
5.58014e+06
5.22364e+06
5.32594e+06
5.78174e+06
6.48032e+06
8.80858e+06
2.07059e+07
1.7712e+07
1.88367e+07
1.90107e+07
2.13626e+07
2.37577e+07
2.50525e+07
2.57661e+07
2.23934e+07
1.86572e+07
1.49355e+07
1.19846e+07
9.7356e+06
8.19777e+06
6.81203e+06
5.93744e+06
5.84874e+06
6.12e+06
6.55202e+06
8.55467e+06
2.07019e+07
1.77381e+07
1.90204e+07
1.93813e+07
2.16822e+07
2.38712e+07
2.56466e+07
2.77941e+07
2.47756e+07
2.1257e+07
1.76469e+07
1.4519e+07
1.20292e+07
1.01406e+07
8.44536e+06
7.1284e+06
6.63834e+06
6.64945e+06
6.96815e+06
8.62187e+06
2.06393e+07
1.76706e+07
1.90727e+07
1.97479e+07
2.16662e+07
2.35243e+07
2.55454e+07
2.81862e+07
2.74039e+07
2.51944e+07
2.24312e+07
1.94047e+07
1.67193e+07
1.42933e+07
1.20918e+07
1.02261e+07
9.2112e+06
8.885e+06
8.82296e+06
9.41042e+06
5.77609e+07
6.17051e+07
6.36982e+07
5.93633e+07
5.60579e+07
5.41795e+07
5.01448e+07
4.47868e+07
3.85207e+07
3.26104e+07
2.76127e+07
2.4621e+07
2.30576e+07
2.2282e+07
2.18656e+07
2.17671e+07
2.17391e+07
2.17729e+07
2.17871e+07
2.17332e+07
6.13688e+07
6.43562e+07
6.56303e+07
5.58987e+07
5.28663e+07
5.4682e+07
5.13201e+07
4.38169e+07
3.33421e+07
2.46887e+07
1.92062e+07
1.76794e+07
1.76456e+07
1.77835e+07
1.81402e+07
1.84164e+07
1.85593e+07
1.86201e+07
1.86578e+07
1.86046e+07
6.31581e+07
6.51552e+07
5.75158e+07
4.75438e+07
5.13897e+07
5.58173e+07
5.35397e+07
4.43602e+07
2.87373e+07
1.76528e+07
1.34404e+07
1.39734e+07
1.5022e+07
1.6286e+07
1.78389e+07
1.88413e+07
1.94179e+07
1.98012e+07
1.9979e+07
2.00379e+07
5.89266e+07
5.49639e+07
4.68523e+07
3.98822e+07
4.51825e+07
5.69809e+07
5.70186e+07
4.97056e+07
2.68331e+07
9.38249e+06
1.00462e+07
1.13066e+07
1.29196e+07
1.50668e+07
1.7446e+07
1.87938e+07
1.94504e+07
2.00043e+07
2.04019e+07
2.0784e+07
5.53107e+07
5.12201e+07
4.86937e+07
4.13425e+07
6.64503e+06
1.01247e+07
1.08045e+07
1.19366e+07
1.34393e+07
1.55453e+07
1.78777e+07
2.04166e+07
2.17647e+07
2.23026e+07
2.25976e+07
2.25678e+07
5.34754e+07
5.33949e+07
5.39399e+07
5.55632e+07
1.37329e+07
1.57999e+07
1.58612e+07
1.61402e+07
1.67789e+07
1.78896e+07
1.98353e+07
2.22452e+07
2.41527e+07
2.45277e+07
2.465e+07
2.43016e+07
4.93319e+07
5.01509e+07
5.22514e+07
5.57532e+07
1.89172e+07
2.01886e+07
1.97137e+07
1.92687e+07
1.92524e+07
1.95668e+07
2.04249e+07
2.22659e+07
2.4457e+07
2.59265e+07
2.64304e+07
2.63626e+07
4.41357e+07
4.29465e+07
4.35385e+07
4.87711e+07
2.08273e+07
1.75216e+07
1.83853e+07
1.88125e+07
1.92348e+07
1.98701e+07
2.07249e+07
2.21732e+07
2.44012e+07
2.66855e+07
2.88048e+07
2.91035e+07
3.80316e+07
3.28592e+07
2.84484e+07
2.65894e+07
6.38768e+06
1.33229e+07
1.85199e+07
2.04787e+07
3.58458e+06
5.91195e+06
8.7236e+06
1.13468e+07
1.34956e+07
1.50377e+07
1.65429e+07
1.82209e+07
2.03697e+07
2.30997e+07
2.55439e+07
2.81703e+07
3.22104e+07