/*--------------------------------*- C++ -*----------------------------------*\
  =========                 |
  \\      /  F ield         | OpenFOAM: The Open Source CFD Toolbox
   \\    /   O peration     | Website:  https://openfoam.org
    \\  /    A nd           | Version:  9
     \\/     M anipulation  |
\*---------------------------------------------------------------------------*/
FoamFile
{
    format      ascii;
    class       volVectorField;
    location    "0.004";
    object      rhoU;
}
// * * * * * * * * * * * * * * * * * * * * * * * * * * * * * * * * * * * * * //

dimensions      [1 -2 -1 0 0 0 0];

internalField   nonuniform List<vector> 
9720
(
(-19498.8 -19588.6 -2896.78)
(-16699.4 -22485.7 -2767.82)
(-14261.3 -24222.3 -2998.92)
(-11446.7 -25158.3 -3697.91)
(-7458.98 -26137.1 -3512.31)
(-2326.25 -25975.3 -3265.7)
(2914.9 -24435.3 -3212.48)
(7696.61 -21892.8 -2823.73)
(11347.7 -18112.1 -2428.29)
(12855.9 -13795 -1912.22)
(13049.1 -10225.7 -1808.63)
(12882.9 -7779.65 -1453.69)
(12789.1 -6191.8 -1383.58)
(12781.3 -5110.81 -1344.58)
(12829.3 -4239.32 -1241.82)
(12970.7 -3722.05 -1213.24)
(13099.1 -3328.19 -1281.43)
(13227.8 -3034.79 -1276.98)
(13333.6 -2756.91 -1251.79)
(13367.5 -2444.25 -1211.89)
(-22263.6 -16751 -2715.87)
(-19288.9 -19442.2 -2421.71)
(-16884.8 -21122.3 -2782.18)
(-14159.1 -21730.2 -3372.12)
(-9306.27 -23899.1 -3362.94)
(-3354.53 -24979.6 -3196.09)
(2794.46 -23744.3 -3123.32)
(8573.97 -20533.5 -2561.52)
(12269.7 -14335 -1982.03)
(12193.8 -8475.33 -1280.73)
(11172.2 -4984.02 -1204.27)
(10959.7 -3402.12 -989.185)
(10996.4 -2529.5 -998.648)
(11063.1 -2010.63 -1017.1)
(11205.6 -1735.59 -977.137)
(11347.5 -1577.35 -956.842)
(11457.9 -1468.27 -1035.02)
(11546.3 -1379.29 -1061.23)
(11624.7 -1292.26 -1070.6)
(11627 -1178.24 -1065.51)
(-23957.1 -14298.1 -2808.3)
(-20961.8 -16982.7 -2611.66)
(-18831.1 -18884.8 -2820.19)
(-16202.4 -18545.4 -2680.27)
(-10349.1 -22038.9 -3013.06)
(-4011.29 -24656.4 -3035.12)
(2602.41 -23865.1 -2917.85)
(9360.64 -19979.6 -2258.39)
(12344.7 -11332.1 -1557.4)
(9907.53 -4757.17 -882.134)
(8575.34 -2513.75 -764.157)
(9164.64 -1742.03 -750.179)
(9791.18 -1199.87 -865.951)
(10498.2 -792.999 -857.012)
(11166.6 -591.044 -792.276)
(11576.2 -474.37 -728.614)
(11875.1 -412.578 -772.489)
(12068.8 -393.212 -779.293)
(12167.3 -381.877 -815.428)
(12174 -376.006 -875.142)
(-24985 -11362.4 -3345.13)
(-21578.3 -13977.3 -2881.28)
(-18444.9 -16076.2 -2213.68)
(-16085.6 -16036.7 -2413.24)
(-12346.4 -18779.8 -2722.31)
(-6385.32 -24146 -3377.05)
(980.139 -24760.7 -3430.26)
(8306.64 -21832.9 -2970.47)
(12210 -11035.2 -1693.7)
(6218.41 -1605.92 -523.756)
(6821.89 -1163.39 -595.797)
(7578.85 -795.404 -638.024)
(8535.17 -380.587 -808.188)
(9638.41 -52.1129 -970.087)
(10618.1 134.448 -1015.43)
(11332.7 318.239 -977.906)
(11777.3 456.533 -985.031)
(12157.2 514.108 -979.858)
(12411.7 530.889 -925.611)
(12612.4 495.328 -934.542)
(-25811.9 -7344.62 -3322.6)
(-23478.5 -9208.26 -3119.28)
(-21601.4 -10231.8 -2691.62)
(-18692.6 -12081.2 -2259.49)
(5183.43 -1145.04 -571.299)
(6620.48 -618.962 -543.913)
(7071.65 -487.508 -638.606)
(7776.9 -329.841 -724.307)
(8808.81 -129.079 -897.565)
(9968.2 270.694 -1051.71)
(11212.3 764.092 -1071.98)
(12083.8 1057.15 -1083.96)
(12400.4 1220.48 -1127.03)
(12661 1285.68 -1102.68)
(12819.5 1306.18 -1052.28)
(12900.6 1247.81 -1082.07)
(-25625.4 -2226.3 -3201.19)
(-24579.7 -3237.05 -3103.98)
(-24295.7 -3899.09 -2936.56)
(-23982.7 -6248.89 -3144.24)
(8490.8 -162.744 -747.875)
(9193.23 145.584 -754.129)
(9262.62 121.704 -795.044)
(9499.96 162.272 -829.52)
(9997.67 307.705 -899.73)
(10906.1 531.694 -1022.24)
(11929.3 1029.89 -1094.33)
(12767.8 1596.86 -1130.65)
(13002.8 1895.36 -1187.58)
(13204 2035 -1169.55)
(13319.7 2100.62 -1151.14)
(13325.1 2019.25 -1197.36)
(-24015 3004 -3179.91)
(-23230.5 2898.83 -3109.49)
(-23326.7 2707.91 -2922.67)
(-24244.7 1064.99 -3411.78)
(10313.7 867.074 -884.85)
(10829.4 1209.66 -838.728)
(10657.3 1202.99 -861.405)
(10632.9 1221.27 -879.153)
(10731.8 1295.14 -907.264)
(11118.4 1500.78 -976.432)
(11939.3 1852.74 -1039.76)
(12851.7 2451.26 -1092.43)
(13609.7 2891.6 -1210.54)
(14011.5 3058.32 -1228.25)
(14185.4 3149.31 -1220.17)
(14207.6 2986 -1267)
(-21485.6 7708.66 -2858.75)
(-20073.8 8576.93 -2625.91)
(-19432.7 9362.71 -2363.06)
(-21206.4 8380.75 -2982.54)
(11260.6 1913.16 -950.611)
(9530.09 2327.9 -728.742)
(9973.1 2284.2 -750.925)
(10331.1 2247.2 -760.681)
(10751.1 2221.36 -811.261)
(11211.5 2282.61 -858.768)
(11912.9 2476.52 -936.322)
(12992.8 2827.39 -981.001)
(14014.6 3329.39 -1052.94)
(14858.9 3575.88 -1175.24)
(15387.9 3689.69 -1230.23)
(15462.3 3660.01 -1278.03)
(-17692.8 11252.8 -2522.15)
(-13880.1 12099.5 -2134.88)
(-10880.9 12096.7 -1772.41)
(-10074 11699.4 -1818.84)
(-1102.3 5067.03 -576.342)
(-184.275 8451.88 -807.114)
(868.166 10416.9 -942.928)
(1940.58 11076.1 -932.248)
(1619.17 1825.46 -174.118)
(3074.69 1772.99 -240.014)
(4699.58 2252.26 -324.808)
(6262.37 2685.4 -472.085)
(7402.53 2881.28 -589.074)
(8367.7 3004.93 -691.494)
(9393.02 3129.69 -740.409)
(10547.7 3410.12 -755.257)
(11908.3 3907.84 -814.286)
(13092.8 4313 -906.893)
(14296.7 4559.61 -1033.17)
(15023.3 4554.52 -1147.61)
(-13430.5 12673.8 -2046.8)
(-8192.3 11973.7 -1472.68)
(-4604.61 9735.12 -1079.17)
(-1582.27 6177.1 -629.262)
(-669.723 6573.21 -602.838)
(120.475 9111.95 -783.579)
(1180.44 10710.8 -866.34)
(2355.85 9465.11 -684.315)
(1819.95 3392.28 -258.167)
(1509.8 1577.43 -95.3284)
(2022.52 1518.86 -169.425)
(3077.67 1958.73 -270.332)
(4394.37 2500.29 -342.272)
(5660.16 2905.32 -376.923)
(6835.1 3212.77 -452.552)
(8139.81 3534.17 -554.057)
(9582.22 4011.29 -674.144)
(11038.5 4539.28 -759.166)
(12403.8 4944.86 -842.135)
(13980.6 5206.02 -985.511)
(-9935.53 12814.1 -1928.72)
(-4827.89 10973.5 -1364.23)
(-2460.61 8460.88 -927.081)
(-1156.79 6781.26 -717.815)
(-526.573 7066.94 -698.197)
(104.663 9181.43 -823.676)
(1181.1 10562.8 -889.054)
(2278.88 9896.73 -710.678)
(2396.85 5114.24 -312.309)
(1519.14 2147.1 -198.778)
(1548.28 1596.67 -189.695)
(1836.82 1510.98 -164.518)
(2518.52 1822.71 -169.209)
(3597.36 2377.98 -205.759)
(4741.48 2886.18 -333.603)
(5975.5 3327.85 -507.488)
(7355.28 3841.29 -635.214)
(8949.78 4461.04 -687.297)
(10390.2 4988.89 -675.622)
(12488.8 5539.5 -788.272)
(-7539.31 12607.1 -1561.58)
(-3288.74 10722.4 -1126.31)
(-1715.18 9002.56 -910.424)
(-812.481 7506.34 -769.223)
(-355.528 7774.81 -772.384)
(145.449 9423.75 -855.863)
(1200.61 10559.6 -898.474)
(2230.76 10259.9 -730.477)
(2785.77 6604.6 -436.562)
(2085.31 3353.83 -279.148)
(1521.28 1932.87 -191.475)
(1676.32 1717.67 -138.83)
(1953.98 1690.36 -97.037)
(2502.2 1963.86 -135.498)
(3342.12 2441.55 -256.844)
(4414.5 2975.2 -382.323)
(5610.81 3519.53 -458.789)
(7082.96 4182 -496.658)
(8463.1 4777.31 -458.669)
(10715.1 5567.67 -584.836)
(-5993.09 12491 -1480.84)
(-2441.32 10732 -1113.85)
(-1182.83 9585.73 -998.708)
(-428.307 8399.4 -929.897)
(-148.088 8759.47 -932.301)
(287.882 9925.12 -923.994)
(1274.15 10679.9 -917.538)
(2200.16 10695.4 -789.561)
(2937.24 7668.73 -554.396)
(2640.33 4719.31 -328.606)
(1946.7 2726.12 -188.738)
(1690.51 2021.14 -108.77)
(1878.8 1909.63 -104.237)
(2161.9 1940.32 -174.558)
(2642.09 2165.6 -224.822)
(3382.25 2622.34 -256.864)
(4337.26 3155.7 -301.715)
(5586.95 3830.67 -338.787)
(6865.61 4479.92 -313.744)
(9100.88 5431.8 -456.149)
(-4948.89 12478.5 -1434.6)
(-1942.18 10788.1 -1118.84)
(-778.814 10257.8 -971.205)
(-114.687 9418.87 -1051.92)
(239.454 9829.64 -1064.34)
(505.859 10809.9 -1044.64)
(1479.25 11078.7 -978.078)
(2261.08 11170.1 -843.965)
(3034.28 8594.54 -657.307)
(3020.21 5981.7 -345.857)
(2519.3 3865.37 -195.285)
(2055.86 2650.49 -143.525)
(1961.79 2236.16 -184.823)
(2123.4 2151.46 -213.019)
(2405.09 2179.24 -164.126)
(2850.14 2442.89 -138.192)
(3532.93 2900.61 -160.17)
(4529.76 3538.33 -178.312)
(5573.46 4154.12 -232.715)
(7587.63 5142.04 -414.29)
(-4112.14 12534.1 -1321.69)
(-1682.12 10936.2 -1065.34)
(-580.671 10921.5 -891.791)
(99.9215 10370 -1077.97)
(709.205 10996 -1099.38)
(986.72 11740.8 -1113.15)
(1815.73 11865.9 -1032.58)
(2451.42 11889.7 -919.104)
(3146.55 9603.09 -702.648)
(3306.8 7152.84 -409.835)
(3021.26 5039.09 -307.724)
(2577.8 3563.77 -258.357)
(2274.67 2793.7 -233.718)
(2218.76 2481.97 -168.077)
(2385.34 2394.16 -75.9307)
(2669.3 2529.38 -76.9287)
(3055.8 2742.99 -118.543)
(3696.12 3157.7 -183.189)
(4516.99 3706.31 -288.907)
(6337.11 4778.03 -433.751)
(-3619.92 12687.7 -1286.17)
(-1533.75 11088.8 -1036.72)
(-467.901 11330.6 -819.748)
(291.874 11109 -1039)
(996.53 11872 -1129.12)
(1517.65 12564.8 -1157.36)
(2387.18 12714.8 -1091.31)
(2785.86 12960.9 -955.929)
(3421.64 10739.6 -712.706)
(3619.03 8459.71 -508.798)
(3464.59 6313.08 -476.694)
(3133.36 4700.37 -372.788)
(2786.07 3616.17 -256.3)
(2579.04 3008.26 -139.183)
(2580.22 2722.83 -74.4547)
(2724.7 2723.7 -122.722)
(2951.21 2790.36 -184.234)
(3359.52 3030.99 -283.167)
(3955.98 3496.2 -339.502)
(5421.26 4489.45 -397.665)
(-3244.63 12834.4 -1342.13)
(-1431.95 11214.6 -1101.45)
(-405.206 11634.8 -853.67)
(435.598 11564.8 -1045.62)
(1149.29 12208.3 -1182.24)
(1816.51 12852.5 -1224.81)
(2788.39 13485.4 -1216.17)
(3255.63 13940 -1043.61)
(3890.23 12043.2 -768.805)
(4081.34 9880.15 -626.19)
(3977.61 7711.78 -594.127)
(3699.43 5950.48 -434.994)
(3350.71 4637.96 -284.999)
(3093.75 3771.64 -139.278)
(2897.75 3209.71 -98.6326)
(2853.16 3012.71 -171.217)
(2979.02 2980.17 -245.24)
(3321.3 3155.91 -328.874)
(3753.55 3501.34 -320.146)
(4869.81 4262.53 -287.786)
(-2964.25 12981.2 -1328.86)
(-1345.73 11318.1 -1117.35)
(-388.572 11839.6 -851.507)
(491.692 11969.7 -1039.06)
(1218.36 12494.6 -1159.47)
(1958.54 13071.3 -1203)
(2962.39 13924.6 -1237.62)
(3486.5 14821.6 -1153.79)
(4258.59 13197.1 -870.92)
(4568.49 11290.7 -706.15)
(4573.26 9293.81 -633.883)
(4362.69 7460.74 -455.188)
(4039.72 5939.12 -299.643)
(3764.17 4836.95 -134.783)
(3401.72 3966.13 -148.715)
(3170.32 3502.86 -259.418)
(3254.45 3418.86 -319.202)
(3472.26 3457.5 -338)
(3735.61 3629.29 -248.961)
(4538 4179.16 -172.6)
(-2696.64 13104.3 -1294.83)
(-1261.97 11413.6 -1115.64)
(-378.398 11957.7 -874.832)
(509.369 12249 -979.493)
(1244.36 12676.1 -1107.48)
(2030.16 13208.5 -1178.86)
(3051.41 14112.6 -1227.82)
(3604.74 15349.2 -1206.7)
(4498.18 14390 -997.204)
(4945.9 12635 -791.451)
(5068.83 10721.3 -619.185)
(4935.34 8848.61 -404.576)
(4677.28 7238.13 -252.254)
(4389.61 5923.56 -170.572)
(3977.38 4851.85 -242.513)
(3723.48 4205.78 -309.547)
(3660.16 3900.04 -301.154)
(3741.52 3787.27 -235.702)
(3887.64 3836.74 -103.667)
(4461.95 4244.34 -108.521)
(-2395.83 13170.6 -1246.04)
(-1153.55 11449.7 -1099.41)
(-373.393 12002.6 -918.512)
(479.288 12489.9 -980.099)
(1197.8 12792 -1128.58)
(1959.52 13249.1 -1223.63)
(2899.81 14162.4 -1272.85)
(3586.18 15432.8 -1252.38)
(4489.32 15105.3 -1108.67)
(5185.74 14187.6 -934.627)
(5588.34 12803.9 -732.952)
(5691.98 11097.6 -524.375)
(5605.19 9492.49 -386.241)
(5366.13 7986.22 -348.256)
(5051.66 6746.45 -380.659)
(4780.76 5794.92 -357.609)
(4500.83 5121.26 -247.183)
(4386.3 4704.24 -131.439)
(4369.84 4519.33 -84.7192)
(4608.05 4576.05 -157.669)
(-18581.7 -18678.6 -1791.34)
(-15947.9 -21502.6 -1565.73)
(-13654.1 -23252.3 -1593.69)
(-10892.2 -23895.5 -1851.09)
(-7102.28 -24701.8 -1805.62)
(-2266.43 -24677.9 -1791.73)
(2706.49 -23228.8 -1815.97)
(7215.09 -20800.8 -1579.86)
(10622.1 -17130.7 -1330.74)
(11995.5 -13021.1 -1005.67)
(12120.9 -9597.28 -985.268)
(11917.5 -7279.02 -732.604)
(11795.8 -5782.1 -712.124)
(11769.7 -4771.08 -719.069)
(11815.3 -3960.86 -677.865)
(11942.7 -3480.32 -685.688)
(12040 -3112.91 -754.096)
(12137.5 -2839.71 -762.866)
(12220 -2579.74 -755.258)
(12226 -2284.36 -738.977)
(-21266 -16037.1 -1561.24)
(-18345.9 -18580.4 -1118.69)
(-16114.5 -20157.6 -1140.38)
(-13745.9 -20714.8 -1276.77)
(-8768.05 -22757 -1645.12)
(-3246.84 -24174 -1803.3)
(2634.54 -22927.8 -1795.18)
(8106.73 -19709 -1437.63)
(11582.8 -13732.2 -1073.24)
(11436 -8107.55 -642.975)
(10363.4 -4742.18 -641.047)
(10111 -3226.67 -453.088)
(10139.1 -2398.51 -468.111)
(10198 -1893.67 -522.46)
(10358.2 -1638.33 -535.497)
(10504.7 -1493.52 -551.154)
(10597.7 -1397 -629.71)
(10657.9 -1315.63 -662.087)
(10710.9 -1234.17 -679.629)
(10681.2 -1124.34 -685.314)
(-22999.7 -13727.6 -1531.84)
(-19880.1 -16283.9 -1076.64)
(-17752 -17999.5 -769.789)
(-15511.6 -17660.2 -1055.81)
(-9644.73 -21696 -1759.22)
(-3769.81 -24245.1 -1919.86)
(2517.76 -23335.7 -1826.78)
(8983.32 -19437.9 -1365.45)
(11786.5 -11013.7 -858.637)
(9364.68 -4608.44 -441.18)
(7918.03 -2419.03 -415.765)
(8461.01 -1691.27 -374.225)
(8992.57 -1187.79 -400.617)
(9611.48 -786.023 -368.785)
(10321.1 -590.446 -339.404)
(10734.5 -480.777 -324.973)
(11041.5 -421.75 -401.749)
(11234.9 -401.049 -440.188)
(11328.9 -393.441 -500.843)
(11324.3 -392.932 -572.807)
(-23774.9 -10836.7 -1659.54)
(-20512 -13582.7 -997.92)
(-17368.3 -15500 -815.204)
(-15121.9 -15455.8 -1314.59)
(-11868.9 -18798.9 -1871.19)
(-6065.64 -24210.1 -2301.87)
(996.857 -24556.2 -2331.91)
(8022.06 -21504.6 -1903.05)
(11699.5 -10922.5 -819.369)
(5877.2 -1517.01 -204.13)
(6383.56 -1113.34 -285.028)
(7052.08 -765.853 -314.474)
(7860.17 -424.123 -401.392)
(8854.38 -97.2051 -530.047)
(9791.43 80.3083 -569.823)
(10544.6 241.263 -562.249)
(10961 371.94 -592.155)
(11333.2 430.025 -605.612)
(11591.5 446.284 -593.161)
(11793 412.72 -622.973)
(-24485.5 -7020.56 -1697.26)
(-22309.8 -8785.29 -1506.36)
(-20942.1 -9694.16 -1595.73)
(-17682.6 -11678.9 -1570.62)
(4764.62 -1110.06 -259.87)
(6332.39 -612.132 -380.811)
(6733.65 -485.777 -439.973)
(7353.11 -326.966 -476.213)
(8207.95 -147.994 -549.921)
(9268.2 158.537 -577.204)
(10349.5 639.654 -529.012)
(11369.7 938.076 -587.328)
(11697.1 1091.32 -683.375)
(11988.9 1159.92 -720.508)
(12160.2 1185.07 -744.338)
(12217.7 1129.95 -798.118)
(-24422.7 -2194.52 -1734.46)
(-23808.6 -3203.67 -1746.49)
(-23829.6 -3726.74 -1878.45)
(-23914.3 -6023.01 -2251.41)
(8392.69 -207.76 -603.842)
(9005.98 106.328 -589.383)
(9015.26 84.2072 -591.238)
(9157.49 118.017 -592.059)
(9521.08 248.089 -610.244)
(10232.1 431.404 -609.089)
(11185.2 818.084 -529.473)
(12015.6 1384.96 -586.433)
(12427.3 1687.33 -734.358)
(12617.4 1841.15 -777.192)
(12734.4 1922.26 -822.731)
(12703.4 1851.17 -894.497)
(-22837.5 2759.98 -1815.5)
(-22460.8 2665.56 -1839.36)
(-22900.8 2489.85 -1896.25)
(-24134 1020.27 -2356.2)
(10311 786.047 -707.907)
(10679.7 1137.38 -651.942)
(10402.7 1121.32 -633.067)
(10246.3 1115.43 -615.433)
(10273.4 1164.07 -605.285)
(10514.1 1326.15 -615.956)
(11162.9 1598.74 -569.704)
(12059.3 2121.38 -466.442)
(12753 2614.15 -623.228)
(13323.7 2791.94 -715.479)
(13495 2903.6 -770.553)
(13539.3 2783.4 -870.533)
(-20373.1 7174.75 -1632.21)
(-19250 8026.49 -1552.11)
(-18992.1 8887.11 -1554.86)
(-20956.9 7988.42 -2010.29)
(11182.8 1802.52 -745.278)
(9289.81 2206.33 -525.087)
(9651.73 2152.42 -516.552)
(9891.72 2093.58 -517.246)
(10187.1 2048.83 -522.324)
(10530.1 2070.83 -512.86)
(11076.2 2205.45 -521.941)
(12014 2489.16 -482.411)
(13033 2943.21 -419.561)
(13814.6 3250.45 -549.174)
(14510.5 3387.7 -668.142)
(14646.4 3353.96 -778.649)
(-16679.1 10454.7 -1426.9)
(-13291 11313.4 -1255.03)
(-10602 11448.3 -1137.82)
(-10285.6 11369.2 -1010.34)
(-1094.13 4642.12 -321.49)
(-266.262 8092.47 -587.387)
(721.953 10095 -704.147)
(1766.17 10642.9 -669.947)
(1509.33 1736.05 -91.993)
(2917.75 1644.09 -159.634)
(4439.43 2056.98 -206.227)
(5877.78 2448.11 -313.558)
(6935.88 2631.4 -359.7)
(7762.33 2719.39 -406.902)
(8647.06 2805.88 -422.219)
(9664.9 3018.58 -378.524)
(10912.1 3441.69 -335.972)
(12036.3 3854.36 -341.865)
(13187.7 4116.78 -452.343)
(14079.5 4184.94 -601.493)
(-12626.1 11736.5 -1126.02)
(-7806.94 11103.2 -828.648)
(-4428.44 9049.56 -646.545)
(-1482.89 5764.99 -302.889)
(-671.303 6229.3 -399.93)
(35.9842 8829.43 -559.404)
(1041.9 10492.2 -625.83)
(2192.22 9101.54 -461.728)
(1659.75 3172.4 -139.661)
(1329.24 1387.53 -49.4078)
(1820.99 1348.36 -100.404)
(2766.27 1725.01 -147.036)
(3987.01 2217.88 -173.702)
(5166.56 2593.4 -197.608)
(6222.87 2860.21 -256.669)
(7351.26 3120.53 -289.91)
(8622.28 3511.32 -286.639)
(9974.53 3998.17 -271.65)
(11265.1 4394.24 -299.295)
(12926.9 4730.16 -438.839)
(-9274.14 11806.4 -1079.39)
(-4549.74 10028.2 -751.657)
(-2342.4 7658.69 -518.095)
(-1104.43 6235.23 -352.449)
(-536.442 6617.09 -434.415)
(21.1162 8843.8 -557.419)
(1033.62 10231.9 -609.6)
(2115.63 9473.16 -464.252)
(2148.14 4744.99 -154.538)
(1327.5 1901.66 -117.223)
(1345.1 1386.09 -105.601)
(1587.46 1296.49 -64.7356)
(2191.06 1554.98 -71.1636)
(3176.27 2067.81 -99.4439)
(4218.77 2528.68 -172.108)
(5293.99 2902.73 -260.516)
(6488.66 3328.79 -298.561)
(7945.94 3878.29 -274.294)
(9327.43 4383.57 -218.96)
(11440.1 4988.57 -304.767)
(-7018.53 11580.8 -814.686)
(-3088.24 9771.84 -532.796)
(-1649.21 8164.7 -429.641)
(-794.711 6861.56 -331.963)
(-365.726 7218.77 -439.183)
(55.1907 9001.18 -551.787)
(1038.42 10141.8 -587.306)
(2045.39 9740.7 -470.733)
(2502.16 6115.06 -244.922)
(1808.39 2969.18 -129.278)
(1288.76 1648.49 -77.5531)
(1436.4 1470.04 -64.7836)
(1670.79 1434.97 -50.1069)
(2151.44 1669.82 -35.8299)
(2864.96 2063.8 -79.982)
(3784.96 2510.58 -142.362)
(4854.78 2990.23 -173.862)
(6227.95 3604.74 -178.732)
(7550.67 4179.24 -112.339)
(9745.19 4981.5 -185.331)
(-5577.37 11460 -790.772)
(-2301.76 9821.45 -545.823)
(-1172.19 8701.52 -446.108)
(-495.97 7649.49 -388.581)
(-185.495 8057.48 -483.362)
(183.253 9382.25 -556.304)
(1090.15 10186.3 -563.111)
(1999.19 10077.1 -470.336)
(2655.53 7117.27 -289.015)
(2323.07 4241.46 -127.401)
(1652.76 2357.7 -67.2752)
(1437.69 1727.15 -52.7312)
(1612.42 1638.13 -28.0341)
(1841.54 1642.32 -27.8133)
(2209.38 1776.89 -55.1233)
(2872.04 2179.22 -79.9131)
(3763.3 2689.92 -113.799)
(4928.56 3322.76 -146.46)
(6112.73 3924.61 -69.2323)
(8213.87 4827.82 -121.628)
(-4611.94 11448.3 -795.102)
(-1826.34 9901.47 -600.95)
(-779.581 9345.67 -433.57)
(-182.679 8600.92 -506.368)
(117.57 9082.92 -500.823)
(361.885 10115.2 -544.527)
(1263.76 10460.3 -554.881)
(2023.73 10473.6 -453.147)
(2731.47 7933.95 -333.411)
(2691.86 5444.6 -128.579)
(2204.68 3427.81 -65.3379)
(1761.55 2290.96 -33.8219)
(1663.1 1900.71 -35.5578)
(1782.71 1801.87 -45.6841)
(2055.9 1841.1 -29.4313)
(2481.18 2096.76 -24.5627)
(3105.26 2512.59 -40.1476)
(3995.82 3078.77 -32.3805)
(4949.92 3636.14 -1.05272)
(6789.67 4543.84 -90.4479)
(-3839.95 11511 -747.312)
(-1590.94 10084.9 -608.065)
(-588.925 10088.6 -417.391)
(40.8056 9533.52 -556.398)
(585.869 10158 -502.233)
(753.503 11024.5 -491.128)
(1542.53 11125.6 -496.369)
(2164.05 11076.2 -455.993)
(2817.5 8846.14 -344.467)
(2955.14 6529.12 -173.816)
(2678.68 4529.03 -123.069)
(2217.83 3097.71 -66.9306)
(1892.8 2357.4 -54.7728)
(1881.42 2120.69 -30.3526)
(2051.3 2057.41 21.9569)
(2315.94 2180.58 20.4727)
(2654.68 2365.2 4.31128)
(3209.33 2724.48 -14.3281)
(3929.5 3195.41 -52.7696)
(5595.96 4166.13 -134.303)
(-3384.44 11657.7 -748.047)
(-1456.28 10250.2 -617.671)
(-483.38 10510.7 -406.149)
(211.392 10341.4 -578.645)
(870.283 11159.3 -593.741)
(1300 11832.4 -576.211)
(2064.07 11985.7 -422.393)
(2446.48 12052.5 -408.393)
(3032.8 9890.9 -299.64)
(3221.11 7703.76 -212.755)
(3070.96 5673.05 -211.242)
(2704.93 4102.93 -115.81)
(2361.66 3109.55 -64.0007)
(2235.64 2631.82 -19.4373)
(2251.06 2379.58 20.6966)
(2359.31 2353.72 -14.148)
(2535.22 2387.56 -30.563)
(2867.01 2570.55 -83.2007)
(3366.11 2932.26 -109.067)
(4745.76 3869.39 -139.588)
(-3034.57 11776.5 -804.315)
(-1365.15 10357.9 -683.923)
(-419.914 10818.5 -474.984)
(348.792 10774.9 -624.853)
(1007.84 11491.9 -707.946)
(1619.32 12234.3 -729.144)
(2514.9 12672 -597.42)
(2883.97 13036.2 -364.452)
(3444.28 11131.9 -261.514)
(3608.29 9004.97 -217.527)
(3507.23 6924.41 -244.229)
(3213.47 5247.84 -135.719)
(2909.9 4080.73 -85.5135)
(2722.48 3353.34 -17.021)
(2544.93 2827.12 20.6271)
(2459.82 2591.13 -20.9367)
(2548.78 2541.14 -55.3311)
(2811.38 2654.99 -122.383)
(3218.56 2971.02 -115.708)
(4296.89 3731.48 -90.6734)
(-2772.91 11893.1 -804.777)
(-1284.66 10429.4 -706.929)
(-402.875 11013.1 -504.408)
(403.324 11170.9 -645.987)
(1078.23 11795 -750.817)
(1772.89 12441.9 -772.536)
(2706.18 13250.4 -692.812)
(3168.82 13835.8 -505.677)
(3830.09 12225.1 -283.504)
(4071.86 10341.5 -204.952)
(4043.29 8400.24 -213.557)
(3833.03 6677.96 -130.58)
(3569.3 5322.5 -105.816)
(3335.9 4335.36 7.48079)
(3004.79 3511.58 17.4164)
(2721.06 3007.83 -62.4197)
(2760.05 2903.57 -111.546)
(2945.94 2928.46 -140.628)
(3220.75 3117.74 -74.917)
(4024.15 3689.38 -10.2626)
(-2521.4 11993.5 -789.988)
(-1204.71 10498.4 -715.206)
(-395.633 11119.4 -551.435)
(420.736 11446.1 -634.167)
(1109.71 11978.2 -774.833)
(1854.47 12575.8 -814.535)
(2826.79 13433.2 -749.084)
(3304.28 14511.4 -622.341)
(4084.69 13371.3 -402.275)
(4444.94 11609.8 -241.327)
(4520.87 9768.69 -160.762)
(4390.49 8018.96 -58.4293)
(4175.05 6554.58 -16.6009)
(3914.74 5351.14 51.5976)
(3510.08 4300.26 -8.36597)
(3177.29 3614.85 -76.4708)
(3125.38 3352.05 -95.06)
(3232.31 3272.76 -64.3372)
(3399.49 3350.56 40.9834)
(3956.12 3751.12 40.6272)
(-2236.65 12032.8 -766.962)
(-1098.82 10502.6 -711.946)
(-391.886 11146.8 -606.722)
(396.732 11672 -656.491)
(1070.03 12061 -819.758)
(1788.6 12571.9 -888.727)
(2703.32 13483.9 -848.433)
(3287.88 14645.8 -729.706)
(4138.86 14217.7 -549.378)
(4745.62 13213 -381.809)
(5082.48 11841.6 -247.857)
(5157.86 10215.4 -128.503)
(5064.32 8700.51 -63.8859)
(4823.72 7255.21 -33.7932)
(4483.2 6034.37 -82.7714)
(4178.14 5113.61 -95.6257)
(3970.13 4537.09 -50.4069)
(3901.99 4193.18 27.7074)
(3883.47 4017.41 62.572)
(4094.21 4059.9 -0.123973)
(-18581.2 -18488.2 -1291.69)
(-16007.9 -21218.1 -1114.46)
(-13801.8 -23062.3 -1122.22)
(-11061.7 -23671.8 -1247.56)
(-6994.34 -24262.4 -1253.09)
(-2268.37 -24357 -1291.16)
(2590.8 -22880.1 -1275.98)
(7004.15 -20456.4 -1138.26)
(10301.1 -16818 -927.579)
(11603.8 -12784.1 -686.291)
(11709.4 -9420.17 -665.138)
(11506.5 -7165.42 -463.467)
(11401.1 -5718.98 -447.203)
(11394.6 -4752.07 -466.794)
(11445.1 -3974.37 -459.295)
(11559.3 -3493.49 -472.386)
(11649.4 -3126.48 -519.368)
(11733.5 -2864.08 -531.226)
(11797.3 -2604.5 -528.151)
(11773.7 -2306.48 -518.949)
(-21231 -15900.3 -1114.45)
(-18346.6 -18320.6 -771.604)
(-16325.9 -20015.5 -743.98)
(-14049.2 -20230.3 -697.626)
(-8460.52 -22132 -1060.24)
(-3164.77 -23793.8 -1225.73)
(2528.98 -22534.9 -1217.28)
(7902.83 -19303.9 -1025.81)
(11225.2 -13404.7 -699.061)
(11070.9 -7941.38 -385.073)
(9985.62 -4664.39 -404.003)
(9739.02 -3203.06 -239.486)
(9815.26 -2410.78 -247.323)
(9910.17 -1912.51 -306.875)
(10096.5 -1676.26 -342.415)
(10249 -1538.55 -368.794)
(10338.1 -1438.69 -427.611)
(10379.6 -1358.71 -455.323)
(10409.1 -1271.93 -471.082)
(10345 -1155.52 -478.196)
(-22917.5 -13707.9 -1116.75)
(-19826.4 -16268.2 -777.694)
(-17019.6 -17111.2 -354.108)
(-14987.3 -16769.1 -507.85)
(-9311.62 -21254.6 -1050.85)
(-3619.85 -23779.7 -1242.78)
(2476.04 -22875.9 -1190.61)
(8770.94 -18954 -937.868)
(11348 -10575.3 -502.476)
(9119.94 -4483.27 -226.932)
(7642.09 -2363.76 -246.182)
(8116.98 -1666.83 -170.574)
(8659.19 -1212.62 -172.514)
(9247.46 -838.49 -167.254)
(9986.32 -658.156 -164.692)
(10459.1 -565.064 -177.568)
(10775.1 -505.86 -251.535)
(10981.3 -480.047 -295.194)
(11074.7 -461.96 -350.72)
(11054.7 -453.985 -409.657)
(-23481.3 -10937.1 -1211.96)
(-19911.9 -13795.8 -789.683)
(-16544 -14937.3 -696.86)
(-14383.1 -14579.6 -888.053)
(-11457.3 -17998.3 -1046.39)
(-5855.39 -23957 -1462.91)
(966.768 -24111.1 -1473.46)
(7816.63 -20983.8 -1174.9)
(11063.8 -10313.9 -423.974)
(5730.35 -1452.76 -67.5878)
(6192.67 -1064.3 -120.896)
(6874.32 -730.668 -140.052)
(7662.94 -426.209 -167.081)
(8647.94 -57.8236 -270.889)
(9596.3 101.736 -342.58)
(10336.3 190.011 -358.739)
(10724.6 270.709 -403.739)
(11068.8 314.156 -423.731)
(11303.9 325.886 -436.248)
(11468.5 294.518 -473.215)
(-24102.6 -7042.73 -1198.4)
(-21752.1 -8532.92 -1066.32)
(-20648.7 -9240.03 -1193.28)
(-16950.7 -11310.2 -1138.78)
(4308.74 -1070.84 -154.653)
(5997.7 -637.507 -261.854)
(6421.63 -534.546 -290.493)
(7072.43 -383.683 -292.58)
(7919.49 -194.191 -333.24)
(9032.54 95.0702 -375.081)
(10112.5 555.728 -352.841)
(11261.8 883.864 -411.847)
(11699.9 1003.68 -504.212)
(11967.3 1060.45 -544.006)
(12119.7 1073.62 -587.961)
(12109.9 1007.85 -636.22)
(-24200.8 -2309.42 -1196.09)
(-23470.2 -3230.82 -1129.25)
(-23278.3 -3636.75 -1158.22)
(-23463.5 -5806.78 -1463.05)
(7880.64 -201.607 -446.207)
(8636.32 65.0663 -392.666)
(8676.93 45.4736 -377.364)
(8853.67 69.1871 -373.637)
(9243 172.375 -389.501)
(9939.15 355.852 -405.478)
(11039.3 651.709 -348.567)
(12044.9 1151.21 -402.024)
(12698 1493.14 -584.599)
(12843.5 1657.36 -640.631)
(12900.7 1757.2 -687.553)
(12746.8 1687.72 -728.202)
(-22585 2517.11 -1238.24)
(-22174.2 2402.61 -1179.55)
(-22530.1 2333.9 -1136.81)
(-23743.5 974.481 -1436.71)
(9999.75 767.571 -528.188)
(10416.9 1019.19 -443.08)
(10188.3 1006.56 -407.227)
(10066.5 1004.04 -381.622)
(10106.3 1034.39 -365.287)
(10349.6 1158.32 -376.569)
(10958 1394.98 -380.444)
(12010.9 1823.21 -290.856)
(12854.1 2319.72 -382.627)
(13495.1 2588.16 -563.337)
(13653 2705.56 -630.641)
(13625.3 2621.89 -688.433)
(-20049.9 6834.35 -1107.39)
(-18892.6 7666.42 -998.56)
(-18638 8525.78 -934.256)
(-20625.6 7675.8 -1264.59)
(10743.8 1724.34 -488.144)
(8949.43 2050.66 -287)
(9344.55 2016.79 -320.53)
(9611.75 1963.39 -319.355)
(9922.51 1930.09 -320.09)
(10294.8 1918.62 -309.371)
(10820.9 2017.92 -311.247)
(11691.4 2253.49 -311.96)
(12847.2 2657.49 -269.769)
(13757.4 3023.85 -323.095)
(14608.2 3198.94 -514.524)
(14713.7 3160.8 -611.515)
(-16427 10041.2 -985.717)
(-13124.2 10899.1 -817.594)
(-10469.4 11017.2 -702.015)
(-10179.8 10723.7 -761.43)
(-1088.58 4311.01 -228.717)
(-288.043 7882.06 -412.505)
(659.121 9969.86 -484.836)
(1673.32 10570.8 -467.775)
(1538.74 1442.17 -39.8428)
(2847.32 1521.85 -76.0156)
(4291.14 1904.21 -93.576)
(5628.61 2258.42 -172.577)
(6713.89 2459.83 -190.069)
(7518.65 2540.44 -193.035)
(8357.83 2631.21 -242.185)
(9304.22 2776.26 -250.938)
(10518.6 3124.9 -236.94)
(11787 3570.12 -220.107)
(12949.1 3879.99 -309.163)
(13998.5 4007.62 -443.858)
(-12445.3 11280.6 -785.383)
(-7716.44 10672.4 -520.896)
(-4365.82 8670.68 -354.849)
(-1485.3 5423.62 -143.552)
(-654.193 5854.61 -255.423)
(7.56851 8545.21 -374.461)
(976.533 10391.2 -399.885)
(2079.54 8879.46 -272.412)
(1521.61 2886.02 -77.7257)
(1193.6 1209.18 -46.1504)
(1664.85 1187.33 -74.8933)
(2553.96 1543.17 -55.7287)
(3770.76 2042.48 -60.3824)
(4948.34 2427.19 -97.7119)
(5983.93 2681.57 -146.887)
(6991.72 2900.11 -189.908)
(8202.19 3209.04 -188.778)
(9589.82 3666.37 -157.594)
(10898.8 4099.84 -174.479)
(12668.1 4501.07 -303.124)
(-9123.8 11328.5 -775.067)
(-4493.99 9540.29 -532.356)
(-2301.34 7175.16 -347.745)
(-1125.86 5821.6 -179.613)
(-554.137 6191.99 -280.478)
(-18.4858 8555.7 -369.475)
(971.112 10138.5 -369.006)
(2028.9 9317.05 -287.026)
(1972.68 4452.46 -67.1639)
(1177.95 1678.73 -68.3336)
(1197.07 1208.41 -66.7164)
(1433.58 1145.78 -6.90308)
(1998.51 1389.32 -27.5668)
(2941.74 1877.39 -80.4295)
(3969.19 2323.19 -107.369)
(4983 2682.14 -144.709)
(6082.66 3038.23 -178.805)
(7484.62 3511.78 -168.986)
(8853.31 4030.84 -141.523)
(11035 4692.64 -221.868)
(-6917.46 11099.6 -579.837)
(-3070.76 9278.78 -372.884)
(-1647.52 7673.86 -291.622)
(-826.215 6469.68 -220.273)
(-411.454 6771.36 -289.685)
(-2.7781 8694.48 -372.551)
(962.192 9982.24 -356.688)
(1950.78 9574.01 -277.635)
(2329.95 5819.2 -145.693)
(1621.08 2689.82 -46.5983)
(1155.33 1463.51 -6.80358)
(1282.49 1291.94 -27.0544)
(1475.76 1245.01 -61.2043)
(1898.67 1447.25 -30.258)
(2610.08 1836.51 -15.3569)
(3514.53 2295.8 -36.8197)
(4504.91 2725.44 -75.8614)
(5777.8 3244.92 -115.789)
(7045.95 3790.21 -81.5015)
(9271.1 4623.82 -140.351)
(-5526.61 11004.3 -557.177)
(-2330.32 9413.2 -372.312)
(-1228.91 8252.97 -301.442)
(-571.914 7256.5 -278.277)
(-245.989 7573.68 -352.448)
(87.3931 9051.04 -394.587)
(984.577 10019.9 -355.3)
(1904.86 9876.46 -290.528)
(2507.77 6887.14 -165.898)
(2152.54 3991.18 -42.5344)
(1482.99 2131.77 -26.8691)
(1253 1503.35 -59.0861)
(1403.45 1415.31 -40.6667)
(1642.97 1450.41 17.6907)
(2007.16 1597.17 13.4458)
(2648.98 1978.93 -15.1885)
(3468.26 2433.49 -72.0454)
(4515.56 2968.31 -141.456)
(5601.37 3515.61 -79.7576)
(7696.13 4421.36 -93.9448)
(-4605.46 11024.7 -564.877)
(-1866.02 9561.85 -412.071)
(-875.837 8912.83 -286.46)
(-235.271 8235.66 -356.485)
(-11.6087 8648.79 -404.251)
(246.887 9726.59 -417.078)
(1098.76 10261.7 -377.497)
(1882.65 10246.2 -297.529)
(2572.67 7688.13 -185.056)
(2533.81 5210.4 -72.4646)
(2009.23 3158.85 -63.3235)
(1525.64 2002.25 -33.4437)
(1467.5 1678.06 8.05363)
(1612.74 1619.38 16.5981)
(1874.34 1664.57 9.43217)
(2283.94 1890.68 -3.80036)
(2850.54 2253.75 -36.7773)
(3631.17 2730.37 -47.0266)
(4526.96 3250.16 10.4734)
(6346.59 4158.56 -34.7155)
(-3859.66 11100.3 -544.543)
(-1642.69 9785.6 -427.848)
(-687.324 9707.81 -271.519)
(-25.5064 9251.59 -394.44)
(419.225 9736.26 -371.807)
(511.271 10782.4 -382.426)
(1325.09 10864.9 -390.051)
(1975.74 10777.6 -306.169)
(2644.08 8527.68 -237.044)
(2774.29 6259.41 -130.929)
(2462.69 4235.41 -101.98)
(1968.54 2795.92 -23.3957)
(1685.56 2115.49 3.10397)
(1694.23 1914.94 7.57281)
(1840.78 1844.36 29.4277)
(2096.96 1946.84 26.27)
(2424.6 2128.77 19.0187)
(2932.18 2458.44 23.1625)
(3608.25 2896.71 0.652321)
(5200.04 3803.69 -61.7636)
(-3402.07 11243.3 -544.759)
(-1509.06 9969.78 -439.494)
(-585.912 10233.8 -275.473)
(97.7833 10122.7 -413.918)
(739.299 10925.1 -431.489)
(1011.33 11725.3 -436.959)
(1723.15 11861 -322.117)
(2197.12 11646.9 -308.107)
(2778.41 9479.38 -245.229)
(2977.71 7288.73 -191.335)
(2816.4 5288.27 -164.902)
(2440.48 3760.12 -47.9289)
(2117.68 2828.15 -9.68214)
(1997.71 2397.69 1.56883)
(1996.42 2142.59 24.4786)
(2118.5 2115.5 4.1037)
(2295.36 2151.62 15.8861)
(2594.49 2313.13 -10.0353)
(3039.71 2613.13 -42.0515)
(4353.71 3477.07 -69.8454)
(-3051.78 11361.4 -576.575)
(-1410.14 10081.2 -481.733)
(-514.571 10550.4 -329.219)
(213.102 10539.8 -448.624)
(879.476 11412.7 -523.734)
(1379.46 12315.8 -599.766)
(2201.17 12614.9 -424.704)
(2577.17 12761.7 -260.837)
(3109.03 10679.8 -228.656)
(3270.01 8504.81 -196.254)
(3166.74 6423.91 -198.6)
(2884.71 4809.06 -77.241)