/*--------------------------------*- C++ -*----------------------------------*\
  =========                 |
  \\      /  F ield         | OpenFOAM: The Open Source CFD Toolbox
   \\    /   O peration     | Website:  https://openfoam.org
    \\  /    A nd           | Version:  9
     \\/     M anipulation  |
\*---------------------------------------------------------------------------*/
FoamFile
{
    format      ascii;
    class       volScalarField;
    location    "0.004";
    object      T;
}
// * * * * * * * * * * * * * * * * * * * * * * * * * * * * * * * * * * * * * //

dimensions      [0 0 0 1 0 0 0];

internalField   nonuniform List<scalar> 
9720
(
1327.64
1342.89
1350.31
1344.3
1334.91
1326.33
1313.16
1292.23
1264.28
1241.13
1223.98
1213.13
1204.56
1198.13
1193.85
1189.14
1183.69
1177.57
1171.2
1160.76
1342.19
1357.69
1365.11
1344.52
1331.85
1329.47
1319.19
1289.91
1242.39
1203.41
1177.48
1170.4
1168.22
1165.65
1162.85
1159.06
1154.02
1147.71
1141.18
1130.48
1348.86
1363.94
1370.72
1328.2
1316.63
1330.06
1326.54
1292.59
1227.01
1177.74
1151.89
1155.59
1163.14
1170.76
1171.49
1169.56
1164.7
1157.79
1150.27
1138.16
1343.33
1343.65
1327.62
1299.03
1293.14
1334.05
1342.02
1321.01
1230.13
1097.2
1102.08
1117.47
1140.08
1158.46
1167.69
1167.65
1165.87
1162.18
1156.96
1146.72
1333.86
1330.04
1313.81
1292.08
1062.76
1078
1087.67
1102.19
1123.91
1149.02
1171.25
1177.61
1176.42
1172.84
1167.16
1155.74
1324.7
1326.7
1326.41
1330.83
1092.77
1100.89
1103.46
1108.55
1118.38
1137.61
1162.36
1175.21
1175.17
1172.88
1168.39
1158.34
1310.68
1315.48
1322.31
1337.96
1113.36
1114.64
1112.17
1112.25
1114.8
1122.78
1139.9
1159.6
1171.34
1172.94
1172
1165.14
1289.47
1286.27
1287.69
1315.85
1117.77
1090.51
1095.04
1098.29
1102.89
1109.7
1121.04
1139.57
1157.36
1168.42
1171.4
1168.74
1261.41
1238.42
1222.37
1221.21
1066.14
1095.48
1115.84
1116.74
1004.4
1016.64
1033.08
1046.9
1057.85
1068.24
1081.46
1099.16
1120.55
1138.7
1152.4
1157.43
1238.34
1199.96
1174.82
1098.24
1079.23
1102.65
1115.63
1091.07
1019.68
995.318
998.773
1011.81
1026.09
1037.94
1049.32
1064.77
1085.43
1106.64
1124.87
1141.26
1221.2
1174.96
1150.54
1103.72
1089.9
1105.03
1113.4
1096.21
1038.35
1002.52
985.114
988.475
1000.15
1014.95
1027.21
1040.16
1057.51
1078.3
1097.19
1121.71
1210.35
1168.13
1154.06
1118.67
1104.72
1110.07
1113.66
1099.75
1052.17
1018.21
992.63
984.898
988.458
999.71
1013.78
1026.74
1040.76
1057.91
1074.25
1101.67
1201.66
1165.83
1161.57
1139.77
1125.58
1119.92
1116.47
1104.59
1062.88
1032.64
1007.25
990.636
990.736
996.155
1007.37
1018.89
1030.24
1044.04
1057.68
1085
1195.39
1163.13
1168.84
1156.83
1149.16
1138.81
1124.65
1111.63
1073.21
1044.27
1021.86
1004.53
998.401
1000.01
1005.45
1013.47
1023.98
1037.37
1048.87
1073.43
1191.35
1160.38
1169.35
1165.92
1170.21
1161.96
1141.22
1123.15
1086.35
1055.54
1033.56
1019.4
1011.93
1007.85
1008.84
1012.28
1018.2
1029.06
1040.54
1065.12
1186.85
1156.74
1167.45
1166.05
1176.59
1174.39
1159.7
1141.28
1103.57
1070.87
1046.66
1032.82
1024.53
1018.41
1014.39
1014.21
1016.78
1025.01
1036.99
1059.29
1181.59
1151.75
1162.63
1164.65
1175.58
1174.47
1171.11
1158.15
1123.88
1090.93
1064.08
1047.37
1036.58
1029.7
1022.79
1018.51
1019.3
1026.55
1035.3
1052
1175.67
1145.61
1155.88
1161.24
1172.16
1172.47
1173.06
1169.13
1141.12
1111.13
1084.33
1064.65
1050.54
1043.03
1035.13
1029.05
1028.88
1032.31
1036.05
1046.52
1169.5
1139.3
1148.56
1156.13
1166.49
1168.28
1172.19
1172.02
1154.45
1128.75
1102.69
1080.75
1063.93
1054.38
1046.58
1042.39
1039.21
1037.19
1037.94
1043
1159.38
1129.03
1136.84
1146.05
1155.12
1158.65
1165.59
1169.4
1159.17
1144.48
1126.34
1107.28
1090.65
1078.93
1070.94
1065.4
1057.77
1050.88
1045.4
1045.85
1318.75
1334.39
1341.86
1332.08
1321.8
1314.33
1301.56
1280.87
1252.35
1228.99
1211.4
1200.63
1192.13
1185.62
1181.64
1177
1171.31
1164.99
1158.54
1147.84
1333.81
1349.51
1356.2
1330.17
1317.38
1319.05
1309.33
1279.73
1232.21
1193.42
1166.14
1158.46
1156.56
1154.4
1152.04
1148.44
1143.22
1136.57
1129.81
1118.77
1340.85
1355.35
1357.19
1311.76
1306.2
1322.04
1318.28
1284
1219.04
1169.8
1141.11
1143.69
1150.61
1158.85
1160.89
1159.5
1155.1
1148.34
1140.87
1128.71
1332.5
1330.76
1310.97
1283.58
1288.89
1327.56
1334.03
1312.49
1223.69
1091.77
1094.35
1106.75
1126.79
1146.19
1156.96
1157.53
1156.13
1152.85
1148.08
1138.17
1321.9
1316.34
1301.65
1279.26
1056.49
1071.64
1080.76
1093.66
1112.21
1135.67
1157.76
1168.09
1167.69
1165.04
1160.13
1148.87
1313.01
1316.4
1318.33
1324.33
1087.08
1094.16
1095.95
1099.92
1107.83
1123.48
1147.33
1164.17
1166.29
1164.97
1161.35
1151.41
1299.07
1305.83
1314.88
1330.99
1107.94
1107.69
1103.78
1101.77
1103.28
1108.95
1123.16
1143.39
1157.32
1162.88
1162.51
1156.7
1277.56
1275.58
1279.67
1308.28
1110.96
1081.61
1085.21
1087.17
1090.03
1095.15
1104.28
1120.85
1139.88
1152.68
1159.64
1157.78
1248.49
1227.29
1214.22
1218.14
1056.84
1086.55
1109.03
1107.53
1016.02
1015.04
1025.31
1035.25
1044.05
1052.67
1064.29
1080.43
1100.97
1119.88
1135.28
1143.97
1225.13
1188.26
1164.61
1089.77
1069.88
1094.45
1107.83
1079.4
1015.04
995.306
995.777
1002.83
1013.72
1023.98
1033.54
1046.53
1064.83
1085.71
1104.84
1124.99
1207.89
1161.68
1136.67
1092.12
1079.3
1096.16
1104.1
1084.58
1028.31
997.692
980.167
982.379
991.626
1003.41
1012.5
1022.18
1036.75
1056.86
1076.67
1104.28
1197.45
1154.86
1139.6
1104.1
1092.55
1100.21
1103.03
1087.46
1039.22
1007.6
985.177
976.208
978.821
987.829
998.294
1008.51
1021.53
1038.82
1055.45
1084.19
1188.99
1153.31
1147.35
1123.73
1111.32
1108.51
1104.84
1091.15
1048.46
1019.89
997.941
981.807
979.868
982.797
991.825
1003.75
1015.47
1028.83
1041.28
1067.81
1182.57
1151.22
1156.12
1142.46
1134.74
1124.89
1111.1
1097.13
1057.66
1030.97
1011.31
994.399
985.085
985.989
992.991
1002.73
1012.4
1023.67
1033.62
1056.78
1178.8
1149.02
1158.37
1154.12
1156.91
1148.27
1125.78
1107.13
1069.87
1041.11
1021.17
1006.65
997.284
996.013
998.517
1001.95
1006.54
1015.18
1025.14
1049.02
1174.39
1145.7
1157.14
1155.99
1167.41
1164.49
1145.53
1124.25
1086.26
1054.6
1031.72
1017.78
1010.9
1008.21
1005.17
1001.93
1002.45
1008.31
1019.12
1043.36
1168.95
1140.61
1152.94
1155.03
1167
1166.25
1159.16
1142.78
1106.39
1072.92
1046.68
1031.32
1023.71
1019.26
1012.54
1004.43
1003.91
1009.32
1018.33
1037.73
1162.91
1134.25
1146.47
1152.21
1164.36
1165.04
1164.27
1155.65
1124.66
1093.08
1066.23
1048.63
1037.76
1031.38
1023.44
1013.84
1012.12
1015.72
1020.49
1033.21
1156.72
1127.82
1139.3
1147.67
1159.4
1161.59
1163.95
1161.93
1139.65
1111.5
1085.15
1064.95
1050.46
1041.78
1033.69
1026.75
1022.93
1022.42
1023.56
1029.16
1146.41
1117.25
1127.51
1137.92
1148.2
1151.92
1158.16
1159.93
1147.51
1130.34
1111.19
1092.43
1076.49
1065.04
1057.09
1051.44
1044.72
1038.43
1032.54
1031.48
1316.41
1332.16
1339.4
1326.21
1314.04
1307.75
1295.48
1274.54
1246.06
1222.86
1205.52
1195.31
1187.54
1181.3
1177.5
1173.06
1167.5
1161.15
1154.6
1143.53
1331.94
1347.22
1352.58
1321.53
1307.08
1312.32
1303.35
1273.32
1226.25
1188.37
1160.96
1153.46
1152.71
1151.62
1149.8
1146.37
1141.05
1134.18
1127.15
1115.61
1339.01
1352.17
1345.61
1299.32
1298.47
1316.04
1312.42
1277.42
1213.57
1167.07
1137.95
1139.66
1146.21
1154.36
1157.86
1157.03
1153.33
1146.89
1139.48
1127.1
1326.61
1320.78
1296.51
1267.62
1282.53
1322.37
1328.39
1305.75
1214.62
1089.79
1092.53
1104.16
1123.62
1145
1156.63
1156.8
1155.24
1151.58
1146.59
1136.33
1314.44
1305.7
1293.66
1271.67
1045.67
1063.86
1074.32
1088.15
1106.45
1130.14
1152.28
1166.25
1166.61
1164.66
1160.09
1148.58
1307.02
1310.25
1312.95
1319.42
1078.74
1085.82
1087.66
1091.97
1099.9
1113.97
1137.76
1160.04
1166.01
1164.95
1161.56
1151.21
1293.76
1301
1310.11
1325.84
1100.48
1098.86
1095.11
1093.5
1094.93
1099.89
1111.95
1133.14
1151.03
1160.14
1160.24
1154.99
1271.78
1270.06
1274.88
1303.09
1101.17
1070.2
1074.74
1077.63
1080.65
1085.73
1093.85
1107.99
1127.92
1144.2
1154.91
1153.82
1242.43
1221.87
1209.18
1210.76
1045.76
1079.19
1101.29
1099.39
1024.81
1009.06
1017.86
1026.29
1034.87
1043.19
1053.58
1067.75
1087.01
1107.61
1125.11
1137.24
1218.98
1182.79
1159.65
1081.03
1060.4
1086.14
1100.36
1069.54
1009.32
1002.5
994.302
998.193
1007.3
1016.88
1025.68
1036.14
1051.91
1072.39
1092.09
1115.38
1201.81
1155.32
1129.72
1083.37
1069.44
1087.26
1096.35
1075.46
1020.07
996.137
979.931
982.192
989.848
999.686
1007.09
1014.05
1025.13
1043.31
1062.94
1092.93
1191.67
1148.08
1132.16
1094.73
1082.46
1090.95
1094.4
1078.65
1029.32
1002.07
984.577
974.794
976.914
984.253
994.275
1003.03
1012.99
1027.61
1043.16
1072.72
1183.86
1148.02
1140.28
1114.37
1100.47
1098.75
1095.77
1081.85
1038.23
1012.63
995.144
979.406
977.033
980.931
990.209
1001.55
1010.68
1020.62
1030.64
1056.6
1177.52
1147.34
1150.17
1136.55
1124.39
1113.05
1100.85
1086.98
1046.85
1022.78
1006.29
989.746
982.512
984.181
991.88
1002.26
1009.96
1017.44
1025.39
1047.61
1173.9
1145.9
1154.96
1152.08
1147.92
1136.87
1113.22
1095.37
1057.64
1031.67
1014.02
1000.96
993.926
994.291
997.686
1002.32
1006.63
1012.58
1019.97
1041.37
1169.76
1142.89
1154.35
1154.69
1164.02
1158.97
1134.26
1109.89
1072.19
1042.39
1021.41
1009.95
1006.28
1005.99
1004.64
1000.55
1000.29
1003.85
1012.47
1035.6
1164.56
1137.96
1151
1153.57
1165.09
1164.6
1151.55
1129.84
1091.42
1058.3
1032.82
1020.35
1016.45
1014.91
1010.68
1002.2
999.426
1002.83
1009.85
1029.53
1158.6
1131.56
1145.06
1150.74
1163.45
1163.65
1160.34
1145.91
1111.46
1078.5
1051.01
1035.68
1028.02
1024.01
1018.61
1009.17
1004.32
1006.97
1011.61
1025.49
1152.37
1124.91
1138.02
1146.32
1159.19
1160.56
1160.46
1156.26
1128.53
1097.71
1070.35
1051.7
1039.27
1033.02
1027.18
1019.83
1013.77
1013.29
1014.93
1021.78
1141.71
1113.78
1125.91
1136.37
1147.95
1150.85
1155.39
1155.09
1140.05
1119.96
1099.19
1080.46
1065.01
1055.47
1049.01
1043.72
1036.85
1030.76
1025.91
1023.51
1313.66
1329.79
1336.78
1320.92
1307.48
1301.91
1289.94
1268.47
1239.75
1216.9
1199.71
1190.02
1182.87
1177.02
1173.44
1169.18
1163.77
1157.43
1150.81
1139.45
1329.63
1345.05
1349.81
1314.44
1299.22
1306.39
1298.23
1267.61
1219.7
1182
1154.66
1147.61
1148.56
1148.56
1147.27
1143.95
1138.65
1131.75
1124.57
1112.6
1336.63
1349.9
1334.55
1290.61
1291.58
1310.64
1307.51
1271.94
1206.4
1159.43
1130.69
1133.36
1141.93
1151.36
1155.44
1154.79
1151.41
1145.08
1137.56
1124.79
1321.3
1313.54
1287.43
1258.38
1273.33
1316.67
1322.29
1299.15
1205.53
1080.39
1083.45
1095.51
1116.66
1142.77
1158
1157.77
1155.2
1150.35
1144.56
1133.55
1307.74
1297.94
1289.22
1271.48
1044.03
1056.2
1066.61
1080.53
1098.73
1123.62
1147.45
1164.42
1165.67
1164.04
1159.57
1147.63
1301.61
1305.21
1308.75
1314.39
1070.67
1079.65
1081.48
1085.5
1092.85
1105.15
1126.91
1153.67
1164.83
1164.17
1160.94
1150.32
1288.89
1296.65
1305.78
1320.24
1092.81
1093.67
1090.03
1087.5
1088.48
1092.35
1101.57
1120.91
1143.21
1155.72
1156.8
1152.14
1266.95
1265.67
1270.27
1297.21
1092.11
1063.72
1068.19
1070.89
1073.19
1077.35
1084.19
1095.8
1114.32
1134.25
1148.59
1148.92
1237.58
1217.32
1204.27
1204.64
1038.51
1070.09
1094.5
1093.54
1021.58
1004.49
1013.09
1020.54
1028.3
1036.21
1044.96
1056.7
1073.4
1094.46
1113.96
1129.39
1214.21
1179.09
1156.66
1076.66
1052.64
1078.31
1093.64
1061.51
1001.85
1001.38
991.868
994.695
1002.87
1011.53
1019.61
1028.13
1040.85
1059.58
1079.32
1105.33
1196.67
1150.93
1125.44
1078.66
1062.46
1079.95
1089.68
1067.25
1012.24
992.029
976.644
979.831
987.097
995.123
1002.32
1008.03
1015.9
1030.95
1049.46
1081.6
1186.34
1142.53
1126.93
1088.85
1075.79
1083.85
1087.02
1070.65
1021.12
995.901
981.237
970.126
971.35
978.006
988.705
997.883
1005.72
1017.01
1031.16
1062.01
1178.7
1142.66
1134.24
1107.68
1093.16
1091.19
1087.97
1073.36
1029.23
1004.54
989.798
973.487
969.688
973.882
984.621
996.847
1003.74
1011.02
1020.17
1046.75
1172.33
1142.33
1143.52
1131.51
1116.53
1103.31
1091.87
1077.6
1037.13
1013.6
999.053
982.416
974.444
977.332
986.323
997.357
1003.88
1009.51
1016.37
1038.45
1168.59
1141.13
1149.1
1149.06
1140.14
1124.6
1101.29
1084.46
1046.37
1022.05
1005.86
992.272
985.746
987.107
991.989
997.731
1002.19
1006.25
1011.99
1032.11
1164.5
1138.21
1148.9
1150.45
1158.21
1150.55
1120.57
1096.11
1058.74
1031.16
1011.11
999.546
997.545
998.539
998.97
995.817
994.921
997.496
1004.13
1025.52
1159.45
1133.48
1146.2
1149.17
1161.09
1160.99
1141.75
1114.67
1075.96
1044.53
1019.12
1006.99
1004.86
1005.65
1004.48
996.873
990.479
992.115
997.584
1018.03
1153.51
1127.18
1140.63
1145.9
1159.9
1160.43
1153.64
1133.94
1096.67
1063.45
1034.73
1019.75
1013.64
1012.47
1009.62
1000.88
993.297
994.691
998.848
1014.11
1147.25
1120.48
1133.74
1141.27
1156.06
1157.52
1154.87
1147.93
1115.74
1082.84
1053.57
1035.36
1024.39
1020.58
1016.33
1009.17
1000.71
1000.7
1002.73
1011.34
1136.41
1109.14
1121.66
1131.29
1144.8
1147.64
1150.53
1148.25
1130.73
1108.09
1085.42
1066.76
1051.97
1043.69
1037.7
1032.34
1024.99
1019.73
1015.58
1012.48
1311.77
1328.05
1335.01
1317.93
1303.8
1298.72
1286.88
1265.03
1235.56
1212.72
1195.54
1185.68
1178.87
1173.34
1170.12
1166.26
1161.22
1155.1
1148.53
1137.05
1327.5
1342.61
1347.4
1310.53
1295.25
1303.23
1295.44
1264.4
1214.79
1176.55
1149.2
1141.42
1143
1144.19
1143.64
1141.04
1136.32
1129.86
1122.83
1110.74
1334.12
1346.67
1326.99
1285.38
1289.37
1308.37
1305.04
1268.93
1200.67
1152.35
1123.57
1126.35
1135.31
1145.74
1151.64
1151.44
1149.01
1143.47
1136.2
1123.35
1317.4
1307.89
1281.41
1253.08
1270.73
1313.32
1318.26
1294.84
1199.65
1073.24
1075.77
1087.36
1108.3
1136.22
1156.49
1157.05
1154.78
1149.59
1143.25
1131.74
1303.16
1292.78
1285.12
1267
1034.16
1049.46
1059.27
1072.85
1091.03
1116.41
1141.82
1161.26
1164.01
1162.68
1158.72
1147.09
1297.9
1301.45
1305.63
1311.31
1065.16
1074.29
1076.45
1080.67
1088.05
1099.54
1119.48
1147.26
1162.56
1162.66
1160.15
1149.86
1285.65
1293.69
1303.12
1316.58
1088.86
1089.58
1086.15
1083.47
1084.19
1087.48
1095.36
1112.49
1136.05
1151.24
1153.92
1149.62
1263.77
1262.64
1267.29
1293.15
1090.21
1059.34
1064.04
1066.98
1068.91
1072.2
1077.98
1088.13
1105.15
1126.44
1143.26
1145.35
1234.49
1213.91
1200.53
1199.02
1031.58
1063.17
1087.33
1084
1016.16
1001.49
1009.91
1017.39
1024.39
1031.45
1039.21
1049.82
1065.25
1086.04
1106.51
1124.21
1211.66
1176.53
1153.92
1073.39
1047.57
1072.61
1086.91
1053.56
997.945
999.853
989.354
991.221
997.759
1005.97
1014.42
1022.81
1034.22
1051.74
1071.18
1098.82
1194.27
1148.85
1123.55
1075.56
1057.3
1074.6
1083.59
1060.11
1007.57
989.901
972.544
975.168
981.991
990.133
997.637
1003.17
1009.49
1022.58
1040.31
1074.23
1183.77
1139.94
1124.89
1086.31
1070.98
1078.78
1081.47
1064.23
1016.05
992.78
976.848
964.568
965.376
971.742
982.808
991.226
997.893
1008.75
1022.81
1055.24
1176.2
1140.2
1131.87
1105.87
1089.04
1086.16
1082.45
1067.05
1023.66
999.776
985.106
966.765
960.547
965.587
977.221
989.478
996.501
1003
1012.28
1040.21
1169.9
1140.08
1140.7
1131.08
1113.22
1097.82
1086.18
1071.17
1031.31
1007.95
992.907
974.608
965.558
969.035
978.432
989.99
996.996
1002.25
1008.9
1031.36
1166.08
1138.91
1146.07
1148.97
1136.84
1117.86
1094.66
1077.66
1040.09
1016.26
999.407
985.052
976.915
978.282
983.544
990.576
995.984
1000.14
1004.71
1024.13
1161.92
1135.92
1145.92
1149.61
1155.43
1144.95
1112.37
1088.38
1051.63
1024.94
1004.79
991.961
988.902
990.115
991.016
989.191
989.583
991.321
996.445
1017.38
1156.85
1131.19
1143.55
1147.93
1158.79
1158.77
1135.17
1105.83
1067.84
1037.21
1011.84
998.509
996.314
997.558
997.001
990.712
982.189
982.313
987.281
1009.25
1150.85
1124.88
1138.21
1143.78
1157.7
1158.72
1149.25
1126.52
1088.5
1055.35
1026.07
1010.5
1004.09
1003.9
1002
993.308
982.981
983.521
987.593
1004.95
1144.48
1118.11
1131.38
1138.5
1154.08
1156.16
1151.67
1142.57
1108.32
1074.56
1044.19
1025.87
1014.84
1011.67
1007.65
999.507
989.13
988.659
991.474
1003.07
1133.44
1106.56
1119.23
1128.15
1142.97
1146.22
1147.6
1144.22
1125.12
1101.18
1077.4
1058.59
1043.7
1035.13
1028.28
1022.18
1014.05
1009.25
1006.63
1003.79
1311.63
1328.06
1335.11
1317.91
1303.63
1298.8
1287.04
1265.12
1235.52
1212.51
1195.05
1185
1178.34
1172.92
1169.87
1166.15
1161.19
1155.13
1148.6
1137.15
1327.2
1342.47
1347.61
1310.31
1295.3
1303.49
1295.67
1264.58
1215.03
1176.91
1148.93
1140.25
1141.82
1143.35
1143.08
1140.78
1136.22
1129.84
1122.86
1110.82
1333.81
1346.3
1326.55
1284.05
1290.51
1309.08
1305.39
1269.12
1201.27
1153.79
1123.69
1125.41
1133.48
1144.18
1151.02
1151.04
1148.84
1143.48
1136.32
1123.54
1317.29
1307.78
1281.11
1250.39
1273.5
1313.29
1317.67
1294.28
1198.23
1074.53
1076.95
1087.62
1107.39
1134.76
1155.64
1156.51
1154.47
1149.58
1143.45
1132.06
1303
1292.23
1283.54
1261.35
1028.49
1049.39
1059.23
1072.63
1090.61
1115.59
1140.82
1160.54
1163.76
1162.52
1158.73
1147.28
1297.59
1300.92
1304.79
1309.88
1061.81
1074.78
1076.7
1080.73
1088.02
1099.38
1119.07
1146.96
1162.38
1162.5
1160.04
1149.85
1285.32
1293.19
1302.55
1315.16
1085.4
1090.18
1086.73
1083.87
1084.53
1087.72
1095.41
1112.32
1135.81
1150.85
1153.61
1149.39
1263.55
1262.34
1267.06
1292.15
1085.78
1058.76
1063.72
1066.88
1069.02
1072.38
1078.09
1088.07
1104.9
1126.04
1142.75
1145.04
1234.51
1214.11
1200.94
1199.28
1028.33
1058.81
1083.59
1081.08
1024.34
1003.47
1010.56
1017.27
1023.87
1030.87
1038.69
1049.36
1064.76
1085.49
1105.82
1123.71
1211.88
1176.79
1154.02
1072.03
1046.65
1072.41
1088.18
1055.14
1001.62
1001.6
989.943
991.375
997.51
1005.29
1013.49
1021.89
1033.31
1050.88
1070.29
1098.12
1194.68
1149.31
1124.12
1075.14
1057.08
1074.62
1084.95
1061.34
1009.77
990.622
972.059
974.98
981.798
989.281
996.222
1001.63
1008.06
1021.33
1039.19
1073.37
1184.39
1140.88
1125.85
1087.17
1071.32
1078.91
1082.67
1065.31
1017.76
993.165
976.516
964.401
965.417
971.553
981.791
989.641
996.32
1007.29
1021.52
1054.21
1176.95
1141.44
1133.25
1107.84
1090.01
1086.34
1083.5
1068.06
1025.15
1000.39
985.013
967.034
961.637
966.203
977.237
988.986
995.341
1001.45
1010.81
1039.17
1170.71
1141.45
1142.31
1133.7
1115
1098.23
1087.05
1072.02
1032.4
1008.78
993.838
975.44
966.5
969.799
978.853
989.927
996.301
1001.4
1008.02
1030.6
1166.86
1140.2
1147.43
1150.9
1138.8
1118.8
1095.44
1078.35
1040.74
1017.14
1000.99
985.916
977.878
979.177
984.172
990.777
995.76
999.722
1004.19
1023.45
1162.6
1137.01
1147.12
1151.1
1156.87
1146.31
1113.33
1089.03
1052.06
1025.65
1006.08
992.8
989.707
990.615
991.365
989.432
989.514
991.164
996.155
1016.95
1157.38
1132.03
1144.47
1149.07
1159.54
1159.62
1136.3
1106.5
1068.17
1037.64
1012.51
999.08
996.952
998.079
997.278
990.692
982.027
982.082
986.932
1008.91
1151.24
1125.49
1138.86
1144.48
1158.32
1159.43
1149.9
1127.44
1089.05
1055.68
1026.31
1010.87
1005.02
1004.57
1002.14
993.21
982.736
983.101
987.124
1004.69
1144.74
1118.53
1131.79
1138.9
1154.54
1156.7
1151.93
1142.84
1108.71
1074.85
1044.37
1026.16
1015.71
1012.16
1007.86
999.601
988.822
988.166
991.062
1002.89
1133.55
1106.77
1119.4
1128.24
1143.23
1146.53
1147.71
1144.1
1125.11
1101.3
1077.66
1059.1
1044.4
1035.67
1028.7
1022.34
1013.7
1008.9
1006.22
1003.39
1313.27
1329.7
1337.08
1321.07
1307.48
1302.12
1290.16
1268.37
1239.09
1216.14
1198.64
1188.72
1181.89
1176.32
1173.07
1169.09
1163.87
1157.64
1151.1
1139.78
1328.73
1344.36
1350.14
1314.68
1299.66
1306.98
1298.66
1267.61
1218.66
1180.89
1153
1145.02
1146.27
1146.93
1146.26
1143.44
1138.44
1131.74
1124.68
1112.82
1335.45
1348.42
1333.39
1289.77
1294.26
1312.23
1308.2
1272.01
1204.82
1157.97
1128.72
1130.72
1138.68
1148.63
1154.34
1154.08
1151.17
1145.15
1137.77
1125.1
1320.68
1312.11
1285.63
1252.94
1276.74
1316.19
1320.2
1296.83
1199.97
1078.9
1081.96
1093.74
1114.1
1140.07
1157.19
1157.35
1155.15
1150.52
1144.88
1134.02
1307.04
1296.42
1286.13
1261.93
1033.94
1055.18
1065.14
1078.9
1097.12
1121.86
1146
1163.72
1165.46
1163.96
1159.71
1147.96
1300.79
1303.96
1307.17
1311.62
1067.44
1080.15
1081.94
1085.96
1093.38
1105.37
1126.27
1153.17
1164.69
1164.05
1160.84
1150.32
1288.17
1295.69
1304.8
1316.84
1091.22
1094.59
1090.85
1087.98
1088.86
1092.54
1101.39
1120.17
1142.41
1155.13
1156.45
1151.9
1266.4
1264.81
1269.24
1294.12
1089.99
1063.15
1067.97
1070.76
1072.9
1076.83
1083.49
1094.86
1113.26
1133.42
1148.09
1148.63
1237.44
1216.75
1203.39
1199.2
1030.42
1065.07
1090.05
1089.6
1024.29
1006.01
1013.82
1020.67
1027.59
1034.89
1043.63
1055.64
1072.59
1093.71
1113.27
1129.01
1214.67
1179.26
1156.44
1077.44
1053.67
1079.34
1094.84
1062.69
1006.59
1004.62
993.154
995.157
1002.08
1010.04
1018.07
1026.87
1039.93
1058.84
1078.56
1104.8
1197.49
1151.92
1127.19
1080.29
1063.19
1080.84
1090.95
1068.23
1015.08
993.696
976.316
979.744
986.671
993.949
1000.5
1006.02
1014.21
1029.81
1048.56
1081
1187.52
1144.37
1129.27
1091.98
1076.91
1084.78
1088.13
1071.39
1022.62
996.76
980.556
968.982
970.418
977.016
986.768
995.478
1003.34
1015.28
1029.97
1061.39
1180.14
1144.79
1136.89
1112.39
1095.35
1092.22
1089.01
1073.97
1030.19
1005.29
989.08
971.591
968.886
973.37
984.514
996.077
1002.34
1009.62
1019.22
1046.38
1173.9
1144.55
1145.91
1137.57
1120.15
1104.6
1092.83
1078.17
1037.86
1014.23
998.289
980.24
973.861
977.193
986.637
997.592
1003.55
1008.99
1015.83
1038.09
1170.09
1143.15
1150.88
1153.25
1143.81
1126.34
1102.16
1085.04
1046.83
1022.48
1005.59
991.015
985.752
987.46
992.957
998.723
1002.67
1006.24
1011.79
1031.92
1165.8
1139.87
1150.45
1153.27
1160.99
1152.89
1121.55
1096.74
1059.05
1031.28
1011.27
999.666
998.407
999.415
1000.02
996.792
995.304
997.646
1004.25
1025.59
1160.45
1134.7
1147.34
1151.1
1162.51
1162.65
1143.26
1115.31
1076.16
1044.43
1019.33
1007.94
1006.14
1006.8
1005.4
997.439
990.438
991.923
997.156
1017.73
1154.23
1127.97
1141.28
1146.69
1160.97
1161.76
1154.73
1135.17
1097.04
1063.36
1034.89
1020.63
1014.73
1013.54
1010.32
1001.1
993.012
994.123
998.101
1013.46
1147.73
1120.96
1133.98
1141.27
1156.62
1158.4
1155.34
1148.49
1116.11
1082.99
1053.83
1035.99
1025.15
1021.34
1016.81
1009.21
1000.02
999.754
1001.82
1010.62
1136.61
1109.28
1121.52
1130.69
1144.77
1147.82
1150.57
1148.33
1130.76
1108.22
1085.69
1067.24
1052.44
1044.09
1038
1032.19
1024.02
1018.55
1014.45
1011.37
1316.3
1332.4
1339.87
1326.31
1314.07
1307.72
1295.24
1273.84
1244.94
1221.99
1204.78
1194.74
1187.25
1181.27
1177.7
1173.43
1167.93
1161.59
1155.03
1143.92
1331.41
1347.05
1353.09
1321.61
1307.3
1312.57
1303.23
1272.62
1224.29
1186.32
1159.13
1151.93
1151.86
1151.3
1149.91
1146.72
1141.43
1134.56
1127.53
1115.97
1338.12
1351.23
1345
1299.81
1299.79
1316.91
1312.54
1276.96
1210.77
1163.29
1135.08
1137.46
1144.93
1153.88
1158.14
1157.47
1153.85
1147.39
1139.92
1127.46
1326.06
1319.69
1295.09
1260.47
1281.18
1320.84
1325.24
1302
1207.45
1086.32
1089.18
1101.47
1121.78
1144.52
1157.67
1157.93
1156.26
1152.45
1147.34
1136.93
1313.81
1304.47
1292.11
1266.8
1040.75
1062.67
1072.73
1086.69
1105.37
1129.74
1152.63
1167.03
1167.47
1165.5
1160.77
1149.02
1306.34
1309.25
1311.79
1316.35
1072.48
1086.03
1088.17
1092.68
1100.77
1114.59
1138.08
1160.9
1166.73
1165.56
1162.05
1151.55
1293.08
1300
1309.08
1321.81
1095.38
1099.49
1095.8
1093.74
1095.17
1100.08
1111.89
1132.97
1151.07
1160.34
1160.53
1155.29
1271.37
1269.35
1273.84
1299.04
1094.31
1068.85
1074.09
1077.07
1079.87
1084.79
1092.86
1106.94
1127.12
1143.96
1155.13
1154.14
1242.4
1221.51
1208.55
1207.15
1039.31
1073.31
1096.83
1094.77
1021.96
1008.52
1017.33
1025.56
1033.8
1041.96
1052.48
1066.91
1086.38
1107.21
1124.95
1137.39
1219.38
1183.14
1159.81
1082.59
1061.62
1086.89
1101.17
1069.85
1008.56
1001.42
992.522
996.878
1006.44
1016.32
1025.23
1035.7
1051.43
1071.99
1091.83
1115.51
1202.33
1156.18
1131.3
1085.35
1071.55
1088.68
1097.32
1075.48
1019.66
994.88
978.162
980.711
988.929
999.001
1006.41
1013.42
1024.53
1042.96
1062.93
1093.31
1192.32
1149.39
1134.09
1097.59
1085.23
1092.78
1095.35
1078.73
1029.1
1000.57
982.194
972.976
975.317
982.878
992.8
1001.58
1011.98
1027.34
1043.47
1073.38
1184.6
1149.34
1142.25
1118.11
1103.95
1100.69
1096.74
1081.95
1038.12
1011.49
992.985
976.99
975.575
980.042
990.017
1001.53
1010.44
1020.69
1031.12
1057.21
1178.4
1148.66
1151.66
1140.94
1128.52
1114.82
1101.72
1087.15
1046.61
1022.03
1004.45
987.035
981.229
983.464
992.05
1002.89
1010.46
1017.84
1025.73
1047.95
1174.75
1147.15
1155.99
1155.18
1151.59
1138.72
1113.87
1095.49
1057.21
1030.95
1012.53
998.767
992.73
993.813
998.44
1003.32
1007.42
1012.92
1020.24
1041.67
1170.48
1143.92
1155.25
1155.9
1166.08
1161.34
1135.05
1109.93
1071.62
1041.43
1020
1008.26
1005.43
1006.01
1005.37
1001.28
1000.6
1004.1
1012.58
1035.76
1165.06
1138.62
1151.55
1154.38
1166.38
1166.27
1152.82
1130.02
1090.87
1057.19
1031.39
1018.96
1015.93
1015.01
1011.08
1002.6
999.417
1002.59
1009.33
1029.12
1158.88
1131.84
1145.12
1150.72
1164.29
1165.06
1161.18
1146.37
1111.11
1077.45
1049.66
1034.53
1027.48
1023.88
1018.69
1009.25
1003.86
1006.36
1010.81
1024.74
1152.47
1124.93
1137.69
1145.64
1159.48
1161.51
1161.05
1156.53
1128.33
1097
1069.33
1050.78
1038.72
1032.85
1027.24
1019.54
1012.82
1012.22
1013.8
1020.68
1141.62
1113.57
1125.3
1135.23
1147.58
1150.92
1155.41
1155.11
1139.78
1119.48
1098.58
1079.88
1064.63
1055.3
1048.73
1042.9
1035.4
1029.1
1024.21
1022.06
1318.75
1334.47
1342.1
1332.21
1321.64
1313.87
1300.93
1280.04
1251.64
1228.49
1211.09
1200.65
1192.41
1186.1
1182.19
1177.55
1171.8
1165.41
1158.89
1148.14
1333.69
1349.44
1356.31
1330.59
1317.65
1318.92
1308.69
1278.85
1231.44
1192.94
1165.89
1158.64
1157.11
1155.11
1152.74
1149.09
1143.71
1136.94
1130.12
1119.05
1340.58
1355
1356.81
1312.74
1307.23
1322.42
1317.68
1283.06
1218.4
1169.72
1141.47
1144.14
1151.3
1159.81
1161.74
1160.26
1155.66
1148.7
1141.12
1128.88
1331.97
1329.59
1309.11
1271.72
1286.48
1325.63
1330.38
1307.73
1217.96
1092.53
1095.47
1108.2
1128.13
1147.18
1157.87
1158.46
1157.01
1153.54
1148.57
1138.45
1321.45
1315.32
1300.34
1272.88
1049.43
1070.82
1080.18
1093.79
1112.86
1136.63
1159.2
1168.97
1168.38
1165.45
1160.26
1148.74
1312.48
1315.47
1317.18
1321.37
1081.12
1094.33
1095.89
1099.9
1108.16
1124.3
1148.36
1164.96
1166.69
1165.27
1161.5
1151.39
1298.4
1304.85
1313.86
1327.01
1102.93
1107.98
1103.84
1101.88
1103.49
1109.38
1123.89
1144.28
1158.03
1163.26
1162.82
1156.87
1276.98
1274.75
1278.86
1304.51
1102.14
1080.97
1084.91
1087.05
1090.01
1095.22
1104.47
1121.2
1140.43
1153.34
1160.2
1158.27
1248.04
1226.72
1213.73
1213.87
1048.84
1080.79
1104.62
1102.88
1020.29
1014.66
1025.28
1035.37
1044.23
1052.85
1064.56
1080.84
1101.6
1120.7
1136.1
1144.59
1224.76
1187.77
1163.98
1089.18
1070.46
1095.18
1108.97
1080.16
1015.86
995.731
996.049
1003.15
1014.24
1024.63
1034.17
1047.12
1065.5
1086.6
1105.84
1125.91
1207.44
1161.17
1136.26
1092
1080.01
1096.76
1104.93
1085.17
1028.67
998.206
980.712
983.114
992.246
1003.92
1013.06
1022.74
1037.38
1057.79
1077.84
1105.49
1197
1154.46
1139.41
1104.61
1093.61
1100.8
1103.43
1087.93
1039.37
1007.95
985.684
975.79
978.394
987.626
998.413
1008.87
1022.14
1039.81
1056.75
1085.62
1188.62
1153.2
1147.47
1124.55
1112.87
1109.17
1105.15
1091.37
1048.26
1019.62
997.518
980.62
979.27
982.37
991.9
1004.29
1016.24
1029.82
1042.51
1069.22
1182.43
1151.44
1156.61
1144.02
1136.69
1125.41
1111.22
1096.96
1057.04
1029.91
1009.78
992.438
984.135
985.407
993.133
1003.61
1013.46
1024.75
1034.86
1058.1
1178.8
1149.39
1158.93
1155.74
1158.78
1149.18
1125.73
1106.62
1068.86
1039.49
1018.93
1004.17
995.64
995.593
998.655
1002.9
1007.8
1016.49
1026.37
1050.1
1174.46
1146.08
1157.58
1156.59
1168.6
1165.82
1145.76
1123.59
1085.07
1052.71
1029.15
1015.05
1009.16
1007.64
1005.36
1002.22
1002.75
1008.57
1019.51
1043.93
1169.03
1140.92
1153.21
1155.37
1168.03
1167.28
1159.62
1142.36
1105.32
1071.04
1044.17
1028.73
1022.01
1018.48
1012.44
1004.39
1003.81
1009.17
1017.9
1037.58
1162.95
1134.45
1146.56
1152.16
1165.11
1165.89
1164.58
1155.28
1123.76
1091.45
1064.04
1046.42
1036.11
1030.36
1022.89
1013.21
1011.23
1014.83
1019.62
1032.59
1156.7
1127.92
1139.23
1147.33
1159.86
1162.07
1164.13
1161.73
1138.91
1110.16
1083.35
1063.05
1048.85
1040.64
1032.84
1025.61
1021.37
1020.97
1022.21
1028.06
1146.3
1117.21
1127.3
1137.34
1148.16
1151.81
1157.98
1159.67
1146.91
1129.39
1109.93
1091
1075.1
1063.81
1055.83
1049.85
1042.74
1036.45
1030.56
1030.13
1327.77
1343.02
1350.4
1343.84
1334.19
1325.63
1312.62
1291.85
1264.17
1240.93
1223.72
1213.11
1204.86
1198.61
1194.38
1189.65
1184.14
1177.94
1171.5
1161
1342.26
1357.77
1365.18
1344.08
1331.54
1329.23
1318.67
1289.6
1242.88
1204.16
1177.85
1170.8
1168.99
1166.55
1163.7
1159.78
1154.6
1148.12
1141.47
1130.71
1348.86
1363.87
1370.67
1328.91
1317.93
1330.47
1325.92
1291.98
1228.11
1180
1153.29
1156.48
1163.87
1171.56
1172.2
1170.2
1165.18
1158.06
1150.39
1138.2
1343.16
1343.15
1325.47
1288.37
1293.77
1330.38
1336.26
1314.46
1225.92
1100.69
1105.77
1120.77
1141.95
1158.9
1167.97
1167.99
1166.2
1162.4
1157.02
1146.64
1333.59
1329.03
1311.39
1281.01
1059.16
1077.85
1088.82
1104.28
1125.94
1150.49
1172.14
1177.37
1176.05
1172.31
1166.54
1155.09
1323.93
1325.38
1324.83
1326.14
1088.45
1100.51
1103.23
1108.67
1119.04
1138.75
1162.77
1174.81
1174.67
1172.29
1167.75
1157.68
1309.66
1314.08
1321.03
1332.5
1109.98
1113.79
1111.21
1111.41
1114.32
1122.87
1140.51
1159.99
1171.34
1172.65
1171.63
1164.61
1288.37
1284.83
1286.02
1310.3
1112.8
1089.59
1094.05
1097.35
1102.1
1109.16
1120.9
1139.84
1157.49
1168.45
1171.22
1168.5
1260.17
1236.42
1219.74
1215.07
1059.84
1089.93
1111.77
1111.04
1015.29
1016.67
1032.31
1046.12
1057.2
1067.75
1081.19
1099.18
1120.8
1139
1152.63
1157.41
1237.12
1197.88
1171.86
1097.05
1080.01
1103.43
1116.45
1092
1021.07
995.957
999.006
1011.49
1025.48
1037.32
1048.82
1064.49
1085.42
1106.86
1125.21
1141.49
1220
1173.08
1148.39
1102.7
1090.8
1105.82
1114.12
1097.03
1039.54
1003.28
985.44
988.597
999.743
1014.26
1026.58
1039.66
1057.18
1078.26
1097.41
1122.07
1209.3
1166.78
1152.35
1117.88
1105.59
1110.86
1114.36
1100.52
1053.06
1018.9
992.99
984.656
988.086
999.143
1013.2
1026.13
1040.24
1057.68
1074.29
1102.01
1200.76
1164.96
1160.6
1139.3
1126.3
1120.59
1117.1
1105.22
1063.43
1033.08
1007.53
990.423
990.46
995.781
1006.84
1018.37
1029.82
1043.74
1057.52
1085.15
1194.71
1162.66
1168.62
1157.27
1149.69
1138.98
1125.04
1112.02
1073.51
1044.48
1022.07
1004.52
998.153
999.626
1005
1013.17
1023.64
1036.94
1048.5
1073.37
1190.85
1160.11
1169.35