/*--------------------------------*- C++ -*----------------------------------*\
  =========                 |
  \\      /  F ield         | OpenFOAM: The Open Source CFD Toolbox
   \\    /   O peration     | Website:  https://openfoam.org
    \\  /    A nd           | Version:  9
     \\/     M anipulation  |
\*---------------------------------------------------------------------------*/
FoamFile
{
    format      ascii;
    class       volVectorField;
    location    "0.004";
    object      U;
}
// * * * * * * * * * * * * * * * * * * * * * * * * * * * * * * * * * * * * * //

dimensions      [0 1 -1 0 0 0 0];

internalField   nonuniform List<vector> 
9720
(
(-974.441 -978.931 -144.765)
(-758.35 -1021.12 -125.692)
(-621.005 -1054.76 -130.588)
(-512.716 -1126.88 -165.636)
(-348.479 -1221.11 -164.093)
(-112.907 -1260.74 -158.504)
(151.885 -1273.23 -167.391)
(450.462 -1281.33 -165.265)
(785.306 -1253.43 -168.047)
(1056.92 -1134.13 -157.209)
(1267.22 -993.036 -175.64)
(1416.22 -855.22 -159.805)
(1540.4 -745.778 -166.647)
(1647.29 -658.696 -173.293)
(1738.04 -574.322 -168.235)
(1835.7 -526.772 -171.707)
(1929.26 -490.182 -188.73)
(2026.21 -464.866 -195.606)
(2111.41 -436.564 -198.224)
(2269.58 -414.992 -205.758)
(-1014.24 -763.103 -123.724)
(-806.759 -813.174 -101.288)
(-681.869 -852.996 -112.354)
(-630.536 -967.695 -150.168)
(-438.276 -1125.52 -158.377)
(-159.594 -1188.42 -152.056)
(140.441 -1193.31 -156.968)
(505.726 -1211.15 -151.088)
(968.466 -1131.48 -156.444)
(1298.54 -902.552 -136.388)
(1499.86 -669.1 -161.673)
(1600.8 -496.921 -144.483)
(1673.7 -385 -151.998)
(1746.44 -317.401 -160.56)
(1821.77 -282.166 -158.859)
(1901.78 -264.354 -160.361)
(1982.57 -254.057 -179.091)
(2070.24 -247.305 -190.277)
(2150.46 -239.056 -198.052)
(2298.76 -232.95 -210.663)
(-1050.54 -626.988 -123.147)
(-851.325 -689.72 -106.068)
(-746.928 -749.058 -111.862)
(-798.423 -913.878 -132.078)
(-530.426 -1129.57 -154.43)
(-190.72 -1172.31 -144.307)
(126.065 -1156.06 -141.345)
(549.301 -1172.44 -132.527)
(1134.33 -1041.28 -143.106)
(1462.6 -702.276 -130.225)
(1629.46 -477.655 -145.203)
(1698.81 -322.913 -139.057)
(1724.84 -211.372 -152.549)
(1764.78 -133.306 -144.067)
(1825.52 -96.6237 -129.521)
(1899.39 -77.8334 -119.549)
(1981.9 -68.8572 -128.925)
(2074.48 -67.5883 -133.951)
(2159.04 -67.7626 -144.695)
(2311.77 -71.4015 -166.185)
(-1124.31 -511.3 -150.529)
(-964.372 -624.671 -128.769)
(-911.847 -794.744 -109.436)
(-933.064 -930.225 -139.982)
(-725.68 -1103.82 -160.009)
(-295.305 -1116.69 -156.18)
(43.3959 -1096.28 -151.875)
(417.063 -1096.19 -149.142)
(1104.48 -998.208 -153.207)
(1731.49 -447.164 -145.838)
(1835.37 -313 -160.294)
(1826.81 -191.724 -153.789)
(1763.55 -78.6374 -166.989)
(1770.41 -9.57222 -178.188)
(1819.25 23.0355 -173.978)
(1890.09 53.0762 -163.096)
(1972.69 76.4692 -164.992)
(2064.55 87.3063 -166.4)
(2149.66 91.9479 -160.312)
(2307.04 90.6047 -170.945)
(-1214.17 -345.484 -156.292)
(-1116.68 -437.96 -148.358)
(-1124.42 -532.595 -140.107)
(-1104.71 -713.985 -133.533)
(1701.15 -375.791 -187.495)
(2051.63 -191.811 -168.554)
(2041.11 -140.711 -184.323)
(2015 -85.462 -187.669)
(1955.41 -28.6533 -199.244)
(1868.94 50.7525 -197.185)
(1841.47 125.492 -176.058)
(1877.25 164.231 -168.396)
(1933.98 190.347 -175.773)
(2010.03 204.111 -175.058)
(2088.81 212.829 -171.459)
(2242.95 216.949 -188.133)
(-1257.01 -109.207 -157.029)
(-1188.5 -156.52 -150.086)
(-1178.76 -189.173 -142.473)
(-1130.05 -294.443 -148.154)
(2167.95 -41.5532 -190.954)
(2262.31 35.8259 -185.579)
(2256.15 29.6442 -193.653)
(2245.41 38.3547 -196.066)
(2215.38 68.1843 -199.371)
(2132.2 103.949 -199.853)
(2019.14 174.317 -185.225)
(1990.79 248.988 -176.295)
(2013.99 293.571 -183.944)
(2063.18 317.977 -182.746)
(2123.63 334.913 -183.533)
(2259.06 342.331 -202.993)
(-1269.53 158.803 -168.103)
(-1192.55 148.813 -159.627)
(-1158 134.427 -145.089)
(-1098.59 48.2572 -154.596)
(2287.24 192.289 -196.231)
(2389.32 266.89 -185.051)
(2390.31 269.818 -193.204)
(2383.43 273.755 -197.067)
(2367.65 285.733 -200.161)
(2328.53 314.31 -204.495)
(2247.49 348.765 -195.728)
(2153.29 410.706 -183.036)
(2131.32 452.833 -189.574)
(2150.7 469.436 -188.531)
(2186.12 485.344 -188.041)
(2290.19 481.326 -204.233)
(-1276.93 458.14 -169.901)
(-1209.85 516.936 -158.265)
(-1173.52 565.401 -142.702)
(-1097.1 433.571 -154.299)
(2410.79 409.589 -203.516)
(2511.98 613.597 -192.085)
(2527.52 578.894 -190.31)
(2545.02 553.585 -187.39)
(2554.83 527.872 -192.784)
(2545.53 518.259 -194.98)
(2517.03 523.255 -197.832)
(2455.1 534.26 -185.368)
(2376.99 564.69 -178.586)
(2356.54 567.116 -186.387)
(2363.68 566.758 -188.971)
(2413.43 571.272 -199.481)
(-1245.24 791.988 -177.512)
(-1122.02 978.074 -172.576)
(-1031.33 1146.56 -167.994)
(-975.647 1133.06 -176.151)
(-371.454 1707.5 -194.217)
(-46.8612 2149.32 -205.25)
(188.858 2266.05 -205.122)
(417.757 2384.4 -200.689)
(1855.72 2092.14 -199.555)
(2340.68 1349.73 -182.717)
(2431.34 1165.21 -168.04)
(2529.01 1084.48 -190.648)
(2558.68 995.915 -203.614)
(2591.18 930.521 -214.131)
(2609.72 869.541 -205.713)
(2584.84 835.689 -185.084)
(2539.54 833.377 -173.653)
(2492.35 821.025 -172.637)
(2484.63 792.417 -179.555)
(2523.26 764.961 -192.748)
(-1123.88 1060.56 -171.279)
(-891.604 1303.15 -160.278)
(-694.001 1467.27 -162.651)
(-441.812 1724.81 -175.706)
(-206.719 2028.91 -186.074)
(29.3642 2220.93 -190.988)
(258.931 2349.44 -190.033)
(614.928 2470.6 -178.621)
(1252.16 2333.94 -177.623)
(1927.4 2013.74 -121.696)
(2186.03 1641.65 -183.122)
(2333.68 1485.23 -204.983)
(2424.26 1379.35 -188.823)
(2499.44 1282.95 -166.443)
(2569.58 1207.8 -170.132)
(2625.99 1140.16 -178.744)
(2622.78 1097.94 -184.522)
(2598.62 1068.61 -178.719)
(2576.3 1027.06 -174.913)
(2613.12 973.059 -184.202)
(-983.141 1267.98 -190.851)
(-659.697 1499.45 -186.413)
(-473.561 1628.35 -178.423)
(-310.429 1819.77 -192.628)
(-150.256 2016.53 -199.229)
(25.2786 2217.53 -198.936)
(263.119 2353.11 -198.058)
(572.003 2484.09 -178.381)
(1139.96 2432.36 -148.536)
(1544.36 2182.75 -202.078)
(1928.31 1988.57 -236.256)
(2121.73 1745.34 -190.036)
(2260.08 1635.68 -151.845)
(2391.39 1580.79 -136.781)
(2481.19 1510.32 -174.573)
(2580.18 1436.94 -219.13)
(2616.52 1366.48 -225.967)
(2640.64 1316.24 -202.788)
(2630.65 1263.12 -171.058)
(2675.94 1186.93 -168.9)
(-845.594 1413.98 -175.144)
(-489.285 1595.23 -167.567)
(-322.772 1694.15 -171.328)
(-195.948 1810.32 -185.515)
(-91.0379 1990.85 -197.78)
(34.1038 2209.61 -200.676)
(267.007 2348.36 -199.813)
(544.391 2503.79 -178.264)
(1061.94 2517.69 -166.418)
(1454.71 2339.62 -194.734)
(1682.39 2137.58 -211.754)
(1924.86 1972.34 -159.413)
(2120.62 1834.51 -105.312)
(2268.45 1780.4 -122.841)
(2366.38 1728.74 -181.858)
(2484.73 1674.61 -215.193)
(2538.03 1592.04 -207.531)
(2600.68 1535.52 -182.36)
(2618.8 1478.28 -141.929)
(2684.83 1395.07 -146.54)
(-737.274 1536.65 -182.174)
(-379.289 1667.35 -173.05)
(-212.137 1719.18 -179.116)
(-89.5739 1756.61 -194.474)
(-32.6969 1934.04 -205.847)
(63.2841 2181.81 -203.119)
(278.494 2334.33 -200.548)
(517.821 2517.23 -185.828)
(974.491 2544.27 -183.933)
(1357.92 2427.14 -169.001)
(1622.32 2271.85 -157.288)
(1791.89 2142.34 -115.293)
(1983.02 2015.57 -110.02)
(2130.92 1912.52 -172.057)
(2232.09 1829.54 -189.934)
(2352.19 1823.7 -178.636)
(2442.93 1777.43 -169.939)
(2544.3 1744.49 -154.284)
(2602.44 1698.13 -118.926)
(2690.96 1606.08 -134.875)
(-651.49 1642.71 -188.857)
(-313.293 1740.23 -180.48)
(-133.548 1758.96 -166.538)
(-21.4978 1765.54 -197.178)
(45.1462 1853.26 -200.669)
(98.4065 2102.88 -203.217)
(306.741 2297.31 -202.817)
(507.998 2509.6 -189.614)
(908.332 2572.83 -196.769)
(1260.78 2497.04 -144.377)
(1562.79 2397.8 -121.141)
(1774.19 2287.34 -123.86)
(1894.1 2159 -178.446)
(2011.79 2038.38 -201.822)
(2127.49 1927.71 -145.182)
(2251.64 1929.91 -109.173)
(2357.7 1935.72 -106.89)
(2472.43 1931.29 -97.3264)
(2532.06 1887.24 -105.724)
(2636.6 1786.79 -143.96)
(-568.663 1733.33 -182.775)
(-279.265 1815.63 -176.869)
(-96.7739 1820.17 -148.625)
(17.4743 1813.52 -188.516)
(118.116 1831.35 -183.097)
(168.124 2000.48 -189.665)
(339.922 2221.41 -193.31)
(512.181 2484.15 -192.031)
(847.926 2587.82 -189.348)
(1185.03 2563.3 -146.869)
(1490.34 2485.7 -151.795)
(1725 2384.79 -172.886)
(1836.87 2256.01 -188.735)
(1921.72 2149.69 -145.576)
(2040.99 2048.54 -64.9692)
(2160.26 2047.03 -62.2584)
(2270.9 2038.44 -88.0949)
(2392.48 2043.96 -118.577)
(2467.38 2024.55 -157.814)
(2580.85 1945.9 -176.65)
(-522.407 1831.03 -185.613)
(-262.236 1895.94 -177.256)
(-78.2359 1894.55 -137.067)
(49.5218 1884.84 -176.286)
(156.877 1868.92 -177.749)
(239.018 1978.86 -182.276)
(401.221 2137.02 -183.419)
(521.915 2428.15 -179.088)
(816.649 2563.23 -170.103)
(1118.38 2614.29 -157.233)
(1415.53 2579.34 -194.764)
(1663.45 2495.35 -197.907)
(1828.68 2373.52 -168.226)
(1941.48 2264.6 -104.776)
(2052.41 2165.84 -59.2242)
(2155.61 2154.81 -97.0893)
(2251.1 2128.41 -140.529)
(2353.14 2123.02 -198.341)
(2404.07 2124.66 -206.317)
(2506.03 2075.29 -183.825)
(-486.661 1925.03 -201.306)
(-252.512 1977.59 -194.231)
(-68.8721 1977.55 -145.097)
(74.1153 1967.71 -177.908)
(181.457 1927.51 -186.659)
(283.271 2004.25 -191.001)
(438.882 2122.55 -191.421)
(551.174 2360.03 -176.682)
(814.233 2520.65 -160.912)
(1077.51 2608.44 -165.319)
(1345.54 2608.73 -200.981)
(1578.93 2539.69 -185.658)
(1770.76 2451.03 -150.614)
(1940.09 2365.2 -87.3414)
(2057.31 2278.79 -70.026)
(2137.14 2256.65 -128.248)
(2220.5 2221.35 -182.797)
(2313.95 2198.73 -229.127)
(2349.1 2191.26 -200.358)
(2477.28 2168.36 -146.397)
(-461.803 2022.35 -207.025)
(-245.63 2065.84 -203.945)
(-67.9491 2070.38 -148.902)
(84.6243 2060.09 -178.832)
(195.524 2005.15 -186.074)
(307.913 2055 -189.129)
(456.179 2144.25 -190.581)
(552.396 2348.32 -182.805)
(800.699 2481.31 -163.75)
(1046.37 2586.04 -161.737)
(1294.49 2630.68 -179.425)
(1518.76 2597.27 -158.463)
(1729.63 2542.88 -128.294)
(1927.07 2476.28 -69.002)
(2060.97 2402.92 -90.1005)
(2138.85 2363.19 -175.016)
(2209.29 2320.9 -216.691)
(2283.63 2273.92 -222.295)
(2323.44 2257.31 -154.846)
(2456.63 2262.37 -93.4363)
(-433.756 2107.84 -208.274)
(-237.324 2146.43 -209.805)
(-68.2048 2155.33 -157.685)
(89.2268 2145.68 -171.579)
(204.676 2085.01 -182.162)
(325.29 2116.39 -188.888)
(471.664 2181.42 -189.788)
(553.429 2356.53 -185.262)
(774.622 2478.06 -171.726)
(1005.22 2567.96 -160.856)
(1239.89 2622.54 -151.46)
(1457.37 2612.93 -119.468)
(1678.46 2597.42 -90.5222)
(1878.45 2534.88 -72.993)
(2029.31 2475.47 -123.733)
(2138.9 2415.95 -177.815)
(2209.76 2354.58 -181.817)
(2281.21 2309.11 -143.708)
(2343.2 2312.52 -62.483)
(2464.35 2344.16 -59.9365)
(-412.344 2266.77 -214.455)
(-231.279 2295.59 -220.426)
(-71.8324 2309.02 -176.701)
(88.4317 2304.46 -180.835)
(209.829 2240.9 -197.703)
(333.1 2252.23 -208.005)
(468.334 2287.3 -205.572)
(559.85 2409.28 -195.514)
(748.888 2519.8 -184.943)
(953.279 2608.06 -171.81)
(1165.58 2670.55 -152.874)
(1374.42 2679.69 -126.619)
(1586.78 2687.23 -109.341)
(1774.52 2640.96 -115.165)
(1941.15 2592.4 -146.272)
(2079.16 2520.23 -155.525)
(2181.05 2481.7 -119.782)
(2284.18 2449.74 -68.4474)
(2369.1 2450.14 -45.9303)
(2501.21 2483.84 -85.5814)
(-980.637 -985.751 -94.5364)
(-763.115 -1028.91 -74.9213)
(-625.741 -1065.61 -73.0359)
(-523.1 -1147.59 -88.899)
(-357.098 -1241.99 -90.7856)
(-117.892 -1283.67 -93.2)
(150.908 -1295.19 -101.255)
(451.844 -1302.64 -98.9382)
(789.608 -1273.43 -98.9218)
(1061.79 -1152.58 -89.0177)
(1275.1 -1009.61 -103.648)
(1422.77 -869.002 -87.4616)
(1546.32 -757.978 -93.3527)
(1652.06 -669.699 -100.933)
(1741.34 -583.751 -99.9035)
(1838.66 -535.821 -105.567)
(1932.59 -499.667 -121.043)
(2028.97 -474.699 -127.524)
(2113.17 -446.104 -130.604)
(2269.88 -424.114 -137.199)
(-1020.57 -769.631 -74.9248)
(-808.961 -819.302 -49.3284)
(-688.065 -860.702 -48.6928)
(-664.584 -1001.52 -61.7289)
(-448.466 -1163.97 -84.1439)
(-164.375 -1223.84 -91.2941)
(140.6 -1223.61 -95.8048)
(508.702 -1236.75 -90.2124)
(976.645 -1157.87 -90.4941)
(1305.17 -925.302 -73.3817)
(1512.65 -692.173 -93.5677)
(1614.45 -515.211 -72.3458)
(1683.46 -398.239 -77.7234)
(1752.18 -325.363 -89.7672)
(1825.75 -288.775 -94.388)
(1905.06 -270.854 -99.9531)
(1986.63 -261.879 -118.045)
(2074.38 -256.064 -128.864)
(2154.03 -248.199 -136.678)
(2300.78 -242.187 -147.62)
(-1059.16 -632.169 -70.5427)
(-852.895 -698.611 -46.1899)
(-766.865 -777.554 -33.2539)
(-842.84 -959.584 -57.3686)
(-526.826 -1185.11 -96.0944)
(-188.259 -1210.77 -95.8748)
(128.349 -1189.59 -93.1244)
(555.572 -1202.13 -84.4463)
(1146.25 -1071.1 -83.5032)
(1472.05 -724.407 -69.3497)
(1639.12 -500.766 -86.0679)
(1722.25 -344.26 -76.1738)
(1743.5 -230.292 -77.6727)
(1772.68 -144.969 -68.0163)
(1829.82 -104.68 -60.1727)
(1900.78 -85.1326 -57.5439)
(1982.1 -75.7103 -72.1198)
(2074.83 -74.0648 -81.2928)
(2159.64 -75.0021 -95.4764)
(2312.9 -80.2535 -116.991)
(-1139.31 -519.303 -79.5266)
(-988.113 -654.313 -48.0722)
(-947.135 -845.254 -44.455)
(-965.083 -986.391 -83.8975)
(-716.614 -1135.03 -112.978)
(-291.428 -1163.19 -110.595)
(46.2504 -1139.31 -108.192)
(423.562 -1135.43 -100.48)
(1113.5 -1039.55 -77.9831)
(1735.38 -447.931 -60.274)
(1844.17 -321.638 -82.343)
(1857.49 -201.723 -82.8314)
(1800.69 -97.1624 -91.955)
(1789.82 -19.649 -107.143)
(1830.3 15.0119 -106.516)
(1896.35 43.3891 -101.116)
(1975.18 67.0238 -106.707)
(2064.58 78.3383 -110.325)
(2148.11 82.7046 -109.924)
(2304.8 80.6607 -121.752)
(-1232.64 -353.426 -85.443)
(-1148.93 -452.432 -77.5755)
(-1174.33 -543.601 -89.4807)
(-1128.62 -745.423 -100.247)
(1723.88 -401.63 -94.0236)
(2100.71 -203.069 -126.33)
(2083.2 -150.286 -136.115)
(2060.73 -91.6329 -133.46)
(2008.5 -36.2145 -134.567)
(1925.5 32.9366 -119.916)
(1873.87 115.815 -95.7823)
(1898.69 156.655 -98.0812)
(1947.64 181.711 -113.786)
(2018.54 195.292 -121.31)
(2093.69 204.039 -128.156)
(2245.51 207.675 -146.687)
(-1281.47 -115.148 -91.0078)
(-1224.8 -164.808 -89.846)
(-1217.05 -190.335 -95.9375)
(-1170.66 -294.841 -110.212)
(2270.89 -56.2155 -163.387)
(2343.52 27.6686 -153.368)
(2333.44 21.7956 -153.032)
(2317.9 29.8718 -149.859)
(2288.48 59.6306 -146.678)
(2215.93 93.4282 -131.909)
(2095.49 153.264 -99.1942)
(2034.5 234.503 -99.2954)
(2048.18 278.095 -121.032)
(2089.5 304.902 -128.706)
(2143.93 323.627 -138.513)
(2273.5 331.301 -160.087)
(-1292.55 156.208 -102.753)
(-1223.74 145.229 -100.215)
(-1191.68 129.563 -98.6742)
(-1139.51 48.173 -111.25)
(2401.57 183.08 -164.88)
(2480.91 264.215 -151.447)
(2479.63 267.284 -150.901)
(2471.95 269.101 -148.475)
(2456.23 278.314 -144.716)
(2421.91 305.479 -141.885)
(2346.97 336.132 -119.779)
(2242.12 394.419 -86.7234)
(2186.92 448.283 -106.873)
(2197.19 460.413 -117.988)
(2223.89 478.496 -126.983)
(2317.53 476.437 -149.01)
(-1300.7 458.064 -104.206)
(-1238.75 516.508 -99.879)
(-1206.38 564.51 -98.765)
(-1134.66 432.514 -108.843)
(2527.3 407.367 -168.432)
(2607.26 619.225 -147.37)
(2618.84 584.024 -140.158)
(2631.07 556.865 -137.581)
(2642.11 531.378 -135.468)
(2634.97 518.191 -128.334)
(2610.18 519.73 -122.999)
(2553.12 528.977 -102.518)
(2467.73 557.279 -79.4413)
(2416.02 568.467 -96.0443)
(2418.13 564.55 -111.344)
(2462.62 563.929 -130.921)
(-1269.2 795.554 -108.58)
(-1156.2 984.164 -109.176)
(-1066.32 1151.43 -114.438)
(-1020.96 1128.51 -100.287)
(-405.052 1718.54 -119.017)
(-72.6306 2207.46 -160.227)
(167.618 2343.77 -163.484)
(412.379 2484.98 -156.424)
(1892.84 2177.16 -115.368)
(2440.15 1374.97 -133.504)
(2512.86 1164.32 -116.731)
(2610.92 1087.45 -139.283)
(2652.8 1006.45 -137.576)
(2678.63 938.41 -140.414)
(2696.2 874.89 -131.65)
(2674.95 835.452 -104.764)
(2630.83 829.767 -81.0004)
(2572.39 823.753 -73.0633)
(2548.06 795.422 -87.3993)
(2578.85 766.526 -110.171)
(-1146.71 1065.92 -102.266)
(-922.885 1312.55 -97.9573)
(-722.777 1477 -105.524)
(-444.796 1729.21 -90.852)
(-223.462 2073.6 -133.128)
(9.36681 2298.33 -145.615)
(243.431 2451.41 -146.22)
(623.094 2586.92 -131.237)
(1282.36 2451.07 -107.905)
(1988.24 2075.44 -73.903)
(2278.82 1687.36 -125.647)
(2416.72 1507.04 -128.456)
(2504.44 1393.16 -109.111)
(2571.49 1290.78 -98.353)
(2641.13 1213.94 -108.936)
(2700.54 1146.35 -106.501)
(2706.43 1102.16 -89.9727)
(2680.04 1074.26 -72.989)
(2643.93 1031.33 -70.2449)
(2670.44 977.157 -90.6555)
(-1001.94 1275.51 -116.612)
(-686.93 1514.09 -113.487)
(-501.997 1641.33 -111.032)
(-324.399 1831.45 -103.523)
(-166.625 2055.34 -134.934)
(5.46663 2289.51 -144.306)
(247.392 2448.95 -145.905)
(578.317 2589.53 -126.905)
(1143.12 2525.01 -82.2365)
(1590.89 2278.96 -140.481)
(2006.52 2067.66 -157.528)
(2195.22 1792.85 -89.5196)
(2313.94 1642.18 -75.1547)
(2443.35 1590.66 -76.4972)
(2548.66 1527.64 -103.974)
(2654.5 1455.48 -130.627)
(2692.2 1381.15 -123.875)
(2711.98 1323.68 -93.6177)
(2692.3 1265.29 -63.2011)
(2729.86 1190.39 -72.7242)
(-860.451 1419.77 -99.8782)
(-508.136 1607.85 -87.6656)
(-346.836 1717.07 -90.3555)
(-213.527 1843.6 -89.1937)
(-102.951 2032.07 -123.629)
(13.9556 2276.05 -139.526)
(249.917 2440.84 -141.347)
(545.717 2598.84 -125.593)
(1066.22 2605.74 -104.366)
(1480.05 2430.09 -105.806)
(1725.93 2207.68 -103.86)
(1967.11 2013.18 -88.7191)
(2163.58 1858.21 -64.8856)
(2334.05 1811.56 -38.8712)
(2433.83 1753.24 -67.9461)
(2548.99 1690.76 -95.8739)
(2595.44 1598.63 -92.9495)
(2653.63 1535.92 -76.155)
(2669.73 1477.68 -39.7203)
(2733.77 1397.43 -51.9898)
(-750.585 1542.26 -106.42)
(-392.756 1675.86 -93.1355)
(-233.619 1734.23 -88.9102)
(-116.215 1792.42 -91.0517)
(-45.5639 1979.19 -118.73)
(43.9061 2247.92 -133.286)
(259.422 2424.03 -134.003)
(517.885 2610.46 -121.84)
(984.425 2638.42 -107.14)
(1372.1 2505.19 -75.2484)
(1628.08 2322.49 -66.2706)
(1813.86 2179.06 -66.5282)
(2033.78 2066.22 -35.3601)
(2199.69 1961.72 -33.2225)
(2288.9 1840.84 -57.1072)
(2394.44 1816.83 -66.624)
(2478.72 1771.73 -74.9543)
(2581.32 1740.29 -76.7082)
(2647.79 1699.98 -29.9886)
(2740.26 1610.63 -40.5767)
(-663.746 1647.62 -114.43)
(-321.969 1745.55 -105.943)
(-147.208 1764.74 -81.871)
(-37.83 1781.11 -104.861)
(24.5451 1896.24 -104.557)
(77.808 2174.85 -117.077)
(288.492 2387.89 -126.669)
(503.03 2603.37 -112.637)
(915.114 2658.08 -111.701)
(1266.92 2562.48 -60.5151)
(1570.92 2442.44 -46.5557)
(1797.67 2337.93 -34.5154)
(1939.2 2216.26 -41.4608)
(2048.55 2070.57 -52.4966)
(2154.45 1929.36 -30.8421)
(2270.34 1918.58 -22.4754)
(2381.04 1926.59 -30.7842)
(2509.72 1933.74 -20.3378)
(2586.7 1900.16 -0.550125)
(2686.8 1798.08 -35.7919)
(-579.449 1737.01 -112.769)
(-287.099 1819.9 -109.731)
(-106.496 1824.33 -75.4771)
(7.7954 1821.26 -106.293)
(106.902 1853.5 -91.6411)
(140.817 2060.29 -91.7833)
(320.514 2311.73 -103.138)
(503.71 2578.12 -106.138)
(851.513 2673.51 -104.106)
(1188.71 2626.34 -69.9174)
(1501.83 2539.25 -68.9998)
(1742.42 2433.7 -52.5835)
(1845.32 2298.26 -53.3987)
(1925.71 2170.62 -31.0672)
(2042.45 2048.53 21.8621)
(2169.26 2042.47 19.1761)
(2293.13 2043.08 3.72412)
(2432.94 2065.39 -10.8619)
(2511.51 2042.32 -33.7273)
(2621.05 1951.34 -62.9051)
(-532.58 1834.46 -117.714)
(-269.924 1899.88 -114.486)
(-87.2165 1896.45 -73.2817)
(38.619 1889.25 -105.712)
(146.805 1882.42 -100.156)
(220.75 2009.22 -97.8446)
(380.78 2211.13 -77.9234)
(511.953 2522.11 -85.4606)
(813.025 2651.53 -80.3267)
(1121.87 2683.12 -74.0998)
(1429 2639.82 -98.2967)
(1676.44 2542.88 -71.7756)
(1825.01 2402.96 -49.4576)
(1932.62 2275.1 -16.8028)
(2051.62 2168.75 18.863)
(2170.89 2165.74 -13.0181)
(2281.83 2148.93 -27.5083)
(2386.43 2139.66 -69.2542)
(2434.76 2120.95 -78.8895)
(2533.48 2065.64 -74.518)
(-497 1928.74 -131.73)
(-261.275 1982.39 -130.895)
(-76.79 1978.39 -86.8608)
(63.7492 1969.33 -114.205)
(169.742 1935.49 -119.234)
(268.142 2025.88 -120.739)
(429.548 2164.39 -102.04)
(539.844 2440.21 -68.221)
(807.245 2609.01 -61.2918)
(1077.19 2688.27 -64.9389)
(1355.59 2676.38 -94.398)
(1584.44 2587.51 -66.9176)
(1767.4 2478.54 -51.9388)
(1932.73 2380.59 -12.0835)
(2063.25 2292.03 16.723)
(2161.72 2277.11 -18.3994)
(2244.16 2237.44 -48.7182)
(2329.25 2199.68 -101.395)
(2363.17 2181.42 -84.9569)
(2486.07 2158.94 -52.4614)
(-472.223 2025.39 -137.053)
(-255.042 2070.54 -140.346)
(-75.7637 2071.09 -94.8578)
(74.3793 2060.1 -119.13)
(183.724 2009.8 -127.935)
(295.033 2070.5 -128.56)
(444.815 2177.96 -113.877)
(549.008 2397.09 -87.6101)
(800.599 2555.4 -59.2604)
(1048.61 2663.2 -52.7806)
(1298.36 2697.44 -68.5762)
(1518.31 2645.22 -51.7242)
(1726.4 2574.38 -51.1809)
(1927.61 2505.13 4.32268)
(2082.37 2433.58 12.0698)
(2158.12 2385.56 -49.5061)
(2214.86 2330.03 -89.5124)
(2284.22 2270.66 -109.04)
(2323.51 2249.2 -54.0466)
(2459.76 2255.13 -6.27298)
(-443.529 2109.72 -138.963)
(-246.749 2150.28 -146.489)
(-76.7131 2156.04 -106.923)
(78.8304 2144.58 -118.82)
(193.372 2087.25 -135.018)
(313.69 2127.24 -137.782)
(464.551 2207.6 -123.104)
(546.823 2401.49 -102.991)
(774.404 2535.03 -76.2661)
(1007.1 2630.44 -54.6777)
(1240.42 2680.29 -44.1092)
(1455.75 2658.84 -19.3734)
(1679.11 2636.1 -6.67652)
(1886.31 2578.43 24.8622)
(2046.64 2507.38 -4.87799)
(2140.36 2435.11 -51.5139)
(2202.41 2362.13 -66.9873)
(2276.22 2304.7 -45.3067)
(2338.55 2304.89 28.193)
(2466.38 2338.57 25.3284)
(-421.412 2267.14 -144.505)
(-240.395 2297.7 -155.756)
(-81.2162 2310.11 -125.74)
(78.2793 2303 -129.532)
(198.921 2242.17 -152.395)
(321.52 2259.94 -159.758)
(462.082 2304.83 -145.024)
(549.626 2448.3 -121.983)
(747.441 2567.59 -99.2126)
(955.002 2658.97 -76.8347)
(1167.21 2719.46 -56.9213)
(1374.84 2722.94 -34.2528)
(1588.63 2729.27 -20.0404)
(1782.18 2680.52 -12.4853)
(1947.04 2620.7 -35.9473)
(2073.01 2537.15 -47.4453)
(2173.6 2484 -27.5972)
(2278.42 2448.45 16.1787)
(2365.99 2447.59 38.1217)
(2504.13 2483.14 -0.0758254)
(-1001.19 -996.179 -69.5988)
(-783.548 -1038.57 -54.55)
(-648.707 -1083.97 -52.7462)
(-552.752 -1182.87 -62.3403)
(-368.242 -1277.38 -65.9732)
(-122.94 -1320.08 -69.9774)
(150.243 -1326.84 -73.9952)
(457.208 -1335.33 -74.3018)
(798.929 -1304.36 -71.9406)
(1071.93 -1180.96 -63.3977)
(1287.55 -1035.83 -73.1379)
(1435.33 -893.817 -57.813)
(1558.6 -781.819 -61.1354)
(1664.25 -694.072 -68.1785)
(1751.63 -608.261 -70.2933)
(1846.38 -558.017 -75.4544)
(1938.71 -520.314 -86.4341)
(2034 -496.487 -92.0878)
(2116.71 -467.307 -94.7623)
(2270.91 -444.873 -100.095)
(-1040.36 -779.148 -54.6104)
(-827.969 -826.795 -34.822)
(-716.45 -878.366 -32.649)
(-719.035 -1035.38 -35.7044)
(-460.339 -1204.21 -57.688)
(-167.291 -1257.75 -64.7927)
(140.532 -1252.23 -67.6428)
(518.137 -1265.63 -67.2559)
(988.403 -1180.31 -61.5539)
(1315.91 -943.928 -45.7706)
(1526.22 -712.914 -61.7485)
(1629.85 -536.04 -40.0786)
(1698.68 -417.222 -42.8031)
(1764.07 -340.436 -54.6255)
(1835.66 -304.765 -62.2551)
(1912.74 -287.135 -68.827)
(1993.13 -277.373 -82.4413)
(2079.52 -272.213 -91.2224)
(2157.92 -263.686 -97.6605)
(2302.22 -257.156 -106.42)
(-1079.37 -645.618 -52.5967)
(-871.821 -715.356 -34.1973)
(-801.121 -805.436 -16.6681)
(-886.496 -991.889 -30.0393)
(-534.729 -1220.57 -60.3461)
(-188.044 -1235.31 -64.5597)
(131.404 -1214.03 -63.1862)
(567.64 -1226.67 -60.6971)
(1153.95 -1075.37 -51.0955)
(1474.8 -724.995 -36.6975)
(1638.02 -506.653 -52.7671)
(1723.4 -353.901 -36.2162)
(1757.62 -246.134 -35.0165)
(1789 -162.213 -32.3567)
(1844.29 -121.55 -30.4156)
(1911.12 -103.251 -32.4458)
(1988.65 -93.3612 -46.4231)
(2078.28 -90.8519 -55.8673)
(2161.43 -90.1602 -68.4497)
(2311.97 -94.9459 -85.6752)
(-1171.44 -545.63 -60.4627)
(-1023.01 -708.787 -40.5715)
(-989.113 -893.052 -41.663)
(-1017.21 -1031.11 -62.8059)
(-724.067 -1137.44 -66.1285)
(-291.901 -1194.3 -72.9287)
(46.6595 -1163.68 -71.1142)
(432.467 -1160.96 -65.0034)
(1123.68 -1047.52 -43.0603)
(1735.08 -439.876 -20.4647)
(1834.1 -315.215 -35.8059)
(1871.14 -198.883 -38.1211)
(1826.11 -101.567 -39.8161)
(1804.2 -12.0636 -56.5147)
(1839.16 19.4981 -65.6566)
(1900.89 34.9437 -65.9735)
(1976.46 49.8893 -74.4055)
(2063.42 58.5642 -78.9908)
(2144.54 61.8262 -82.7638)
(2296.57 58.9771 -94.761)
(-1269.65 -370.99 -63.128)
(-1196.29 -469.279 -58.6437)
(-1222.17 -546.903 -70.6282)
(-1141.08 -761.372 -76.6597)
(1738.25 -432.003 -62.391)
(2126.21 -225.999 -92.8285)
(2108.42 -175.508 -95.3776)
(2093.86 -113.593 -86.621)
(2055.64 -50.4056 -86.4981)
(1990.98 20.9556 -82.6763)
(1933.34 106.246 -67.4576)
(1946.35 152.756 -71.1783)
(1986.77 170.435 -85.6205)
(2047.91 181.469 -93.093)
(2115.61 187.409 -102.634)
(2256.49 187.797 -118.549)
(-1319.39 -125.906 -65.2087)
(-1257.75 -173.138 -60.5159)
(-1234.15 -192.811 -61.4056)
(-1190.58 -294.646 -74.2375)
(2288.93 -58.5567 -129.601)
(2389.12 17.9997 -108.626)
(2386.11 12.505 -103.773)
(2376.71 18.5729 -100.301)
(2357.58 43.9671 -99.3486)
(2310.15 82.7106 -94.2451)
(2212.52 130.616 -69.8604)
(2126.26 203.221 -70.9688)
(2122.38 249.567 -97.7114)
(2152.06 277.707 -107.344)
(2195.96 299.11 -117.035)
(2309.38 305.77 -131.931)
(-1324.27 147.591 -72.6042)
(-1250.48 135.491 -66.5186)
(-1212.77 125.631 -61.1934)
(-1162.57 47.714 -70.3463)
(2441.5 187.407 -128.96)
(2554.85 249.967 -108.67)
(2564.23 253.335 -102.492)
(2561.08 255.443 -97.0906)
(2549.79 260.973 -92.1608)
(2528.94 283.039 -92.0155)
(2476.41 315.253 -85.9771)
(2386.41 362.25 -57.7895)
(2303.02 415.615 -68.5539)
(2291.72 439.518 -95.6652)
(2307.56 457.28 -106.588)
(2378.83 457.753 -120.193)
(-1330.5 453.523 -73.4858)
(-1262.99 512.511 -66.7551)
(-1225.26 560.48 -61.4175)
(-1159.7 431.583 -71.1034)
(2584.54 414.811 -117.429)
(2686.68 615.621 -86.1593)
(2710.92 585.085 -92.988)
(2720.79 555.777 -90.3995)
(2734.73 531.95 -88.2195)
(2734.37 509.601 -82.1715)
(2720.66 507.36 -78.2558)
(2683.89 517.313 -71.6139)
(2616.36 541.205 -54.9391)
(2542.46 558.829 -59.7103)
(2527.64 553.508 -89.0272)
(2554.21 548.694 -106.155)
(-1302.95 796.449 -78.1848)
(-1188.06 986.642 -74.0125)
(-1092.95 1150.14 -73.2863)
(-1057.77 1114.28 -79.1188)
(-436.986 1730.55 -91.8131)
(-83.2422 2277.85 -119.211)
(160.768 2431.77 -118.257)
(409.834 2589.02 -114.569)
(2139.48 2005.21 -55.3977)
(2563.35 1370.07 -68.4343)
(2605.73 1156.31 -56.8227)
(2686.29 1077.85 -82.3635)
(2743.14 1005.03 -77.6579)
(2764.47 934.074 -70.9756)
(2795.26 880.004 -80.9985)
(2791.62 832.985 -75.2911)
(2762.32 820.64 -62.2235)
(2710.82 821.069 -50.621)
(2665.86 798.781 -63.648)
(2680.05 767.269 -84.9777)
(-1180.48 1070 -74.4959)
(-952.87 1317.89 -64.3232)
(-743.457 1476.53 -60.4273)
(-476.808 1741.08 -46.0827)
(-236.47 2116.26 -92.3276)
(2.09705 2367.67 -103.754)
(238.425 2537.07 -97.6336)
(627.118 2677.74 -82.1501)
(1330.51 2523.57 -67.9641)
(2077.96 2105.08 -80.3438)
(2375.52 1694.16 -106.863)
(2495.58 1507.89 -54.4548)
(2597.38 1406.9 -41.5926)
(2661.36 1305.41 -52.5523)
(2725.82 1221.52 -66.9106)
(2783.61 1154.62 -75.6078)
(2815.08 1101.38 -64.7906)
(2801.73 1071.16 -46.0422)
(2762.18 1039.05 -44.2197)
(2772.21 984.984 -66.3338)
(-1033.73 1283.52 -87.8153)
(-717.722 1523.65 -85.0209)
(-524.835 1636.34 -79.3054)
(-354.849 1834.85 -56.6105)
(-187.668 2097.03 -94.9888)
(-5.10912 2364.63 -102.115)
(243.684 2544.08 -92.5956)
(586.856 2694.94 -83.0219)
(1151.22 2598.37 -39.1956)
(1634.59 2329.49 -94.8232)
(2081.52 2101.24 -116.009)
(2288.2 1828.84 -11.0183)
(2395.45 1665.26 -33.0421)
(2513.01 1603.78 -68.7075)
(2612.42 1529.07 -70.6674)
(2716.42 1462.13 -78.8859)
(2781.22 1389.19 -81.7563)
(2824.91 1325.45 -63.7802)
(2804.73 1276.97 -44.8346)
(2826.56 1202 -56.8304)
(-890.877 1429.49 -74.6752)
(-537.054 1622.79 -65.2147)
(-370.818 1727.2 -65.637)
(-240.188 1880.79 -64.0351)
(-126.52 2082.16 -89.0767)
(-0.752852 2356.16 -100.959)
(244.919 2540.91 -90.7924)
(550.118 2699.86 -78.2929)
(1073.91 2682.17 -67.1527)
(1499.03 2487.3 -43.09)
(1783.68 2259.47 -10.5038)
(2042.16 2057.21 -43.0799)
(2227.23 1878.97 -92.3699)
(2383.52 1816.83 -37.9848)
(2494.5 1755.18 -14.6769)
(2615.08 1708.25 -27.3967)
(2678.87 1620.7 -45.1114)
(2755.17 1547.36 -55.2144)
(2766.11 1487.97 -31.996)
(2817 1404.94 -42.6452)
(-779.941 1552.98 -78.6314)
(-418.71 1691.35 -66.8965)
(-261.445 1755.78 -64.1306)
(-145.068 1840.64 -70.5861)
(-66.4161 2044.87 -95.1596)
(22.5624 2336.72 -101.871)
(248.613 2530.11 -89.7158)
(523.646 2715.04 -79.8662)
(995.997 2735.32 -65.8886)
(1398.38 2592.84 -27.6321)
(1658.23 2383.67 -30.0441)
(1851.78 2221.78 -87.3225)
(2073.81 2091.34 -60.0914)
(2263.45 1998.17 24.3717)
(2359.51 1877.55 15.8062)
(2467.32 1843.23 -14.1469)
(2551.55 1790.28 -53.0027)
(2658.4 1747.51 -83.2778)
(2721.3 1707.98 -38.7485)
(2811.18 1615 -34.3155)
(-693.18 1659.36 -85.0212)
(-343.048 1757.85 -75.7552)
(-175.199 1782.89 -57.3024)
(-51.5394 1804.13 -78.0929)
(-2.64926 1973.77 -92.2557)
(58.0209 2285.85 -98.0174)
(268.572 2508.27 -92.2721)
(499.006 2715.81 -78.8615)
(923.252 2759.03 -66.4109)
(1292.52 2657.87 -36.9647)
(1594.86 2507.39 -50.2641)
(1810.51 2376.12 -39.6884)
(1981.81 2266.16 10.8761)
(2124.01 2132.76 21.8599)
(2217.97 1969.75 11.1614)
(2328.31 1927.41 -3.8742)
(2433.47 1924 -31.3963)
(2564.32 1928.18 -33.21)
(2654.52 1905.83 6.14142)
(2754.23 1804.69 -15.0655)
(-607.457 1747.04 -85.7034)
(-307.27 1830.43 -80.0303)
(-130.202 1838.98 -51.4348)
(-5.05553 1833.72 -78.1806)
(82.3046 1911.47 -72.9951)
(103.52 2183.18 -77.432)
(299.128 2452.65 -88.0505)
(495.145 2701.01 -76.7296)
(864.097 2786.89 -77.4671)
(1207.13 2723.56 -56.9689)
(1518.91 2612.26 -62.8981)
(1755.83 2493.8 -20.8676)
(1882.06 2362.11 3.46583)
(1971.17 2227.96 8.81068)
(2070.14 2074.17 33.0944)
(2193.49 2036.46 27.4792)
(2314.5 2032.1 18.1551)
(2461.47 2063.78 19.4441)
(2566.44 2060.34 0.463977)
(2682.95 1962.5 -31.8668)
(-557.467 1842.34 -89.2649)
(-288.872 1908.46 -84.13)
(-109.218 1907.64 -51.3498)
(18.3202 1896.54 -77.5499)
(130.257 1924.9 -76.024)
(180.855 2096.82 -78.1407)
(342.722 2359.06 -64.0666)
(502.051 2661.36 -70.4037)
(814.594 2779.24 -71.898)
(1136.25 2781.26 -73.0103)
(1447.34 2717.63 -84.7429)
(1699.21 2618.03 -33.3711)
(1855.37 2477.85 -8.48287)
(1946.51 2336.23 1.52862)
(2046.43 2196.26 25.0918)
(2169.78 2166.7 4.20303)
(2294.28 2150.62 15.8787)
(2421.21 2158.64 -9.36511)
(2488.49 2139.26 -34.4259)
(2591.63 2069.79 -41.5768)
(-519.819 1935.22 -98.2099)
(-278.32 1989.73 -95.0795)
(-96.8548 1985.84 -61.9671)
(39.9129 1974.04 -84.0247)
(151.732 1968.98 -90.3577)
(234.5 2093.6 -101.956)
(397.152 2276.08 -76.6284)
(523.196 2590.77 -52.9529)
(799.634 2746.83 -58.8098)