/*--------------------------------*- C++ -*----------------------------------*\
  =========                 |
  \\      /  F ield         | OpenFOAM: The Open Source CFD Toolbox
   \\    /   O peration     | Website:  https://openfoam.org
    \\  /    A nd           | Version:  9
     \\/     M anipulation  |
\*---------------------------------------------------------------------------*/
FoamFile
{
    format      ascii;
    class       volScalarField;
    location    "0.0085";
    object      p;
}
// * * * * * * * * * * * * * * * * * * * * * * * * * * * * * * * * * * * * * //

dimensions      [1 -1 -2 0 0 0 0];

internalField   nonuniform List<scalar> 
9720
(
1.0136e+06
866407
598081
362869
342494
382267
381408
325099
251607
196322
156082
131931
125314
128880
136819
152132
177712
215587
257024
337378
861935
558120
233025
192724
301864
369647
368933
298353
188485
113243
79457.2
67138.5
68987.3
75202.6
85986.2
102500
126751
161766
202191
282983
607885
233120
166266
152906
295414
368408
367384
288446
145744
68238.7
50587.9
53133.8
57928.6
65931.5
76166.6
88938.8
106579
131637
164289
244693
365445
189928
151407
118257
217407
362467
388462
330429
134426
30298.6
32179.6
36813.9
42432.8
48074.7
53538.7
59465
66428.4
75820.1
88171.4
142084
333197
289323
283516
217249
24723.8
46333.7
49598.6
52373
54681.5
56568.5
58178.1
60067.5
62692.5
66838
71965.4
94370.4
367377
355477
354987
349189
65071.5
67911.7
66534
65425.5
64530.7
64399.5
64647.5
65294.9
66342.7
67824.5
69114.8
75635.2
365777
354528
354048
376251
72654
68266.2
67060.1
65990.2
65215.8
64652
64248
64251.6
64491.4
65179.8
65962.7
69298.9
310700
284906
275455
317322
59445.9
43410.1
45603.2
47152.4
48377
49305.9
50042.6
51034.2
52503.5
54176
55660.9
59212.8
239416
178036
136043
118793
23414.8
60561.3
67518.3
54510.5
5711.75
10040.6
16211.4
22163.9
26791.2
30537.8
33978
36989
39827.3
42619.3
44863.7
49535
186690
106732
63643.1
28206.8
43294.2
63480.5
63432.8
40440.1
10352.3
3813.61
5018.75
8068.03
12452.7
17046.9
21461.5
25649.4
28950.8
32280.7
35348.5
41016.9
147909
74767.1
48615.8
30560.8
46462.6
62038
62248.3
42782.3
16474.6
5155.43
2952.88
3484.09
5516.67
8840.85
12656.5
16303.4
19721.9
23658.5
27250.7
33507.8
125909
64094.1
50944.8
35381.1
49217.1
60883.2
61264.7
44524.6
22281.1
8377.7
3577.11
3293.21
3642.47
4796.67
6743.42
9584.15
13188.5
17275.6
20806.3
26853.8
120058
66303.6
55408.5
40582.9
51316.7
60197.5
60723.2
45870.4
26702.2
12814.1
5808.87
3752.43
3547.1
3628.48
4407.68
6333.21
9162.22
12526.8
15594.3
21227.5
123413
72601.4
63347.7
45851
53087.7
60292.3
60313
46919.4
30246.9
17468.4
9280.82
5115.49
3710.12
3713.24
4010.86
4944.58
6686.16
9123.35
11658.2
16920.7
130748
82747
73722.7
51252.9
54764.9
60729.1
60288.6
47805
33682.7
21945.6
13202.6
7280.07
4691.11
4126.74
4162.04
4373.27
5089.71
6627.25
8719.31
13551.1
145087
97858.2
85925.9
57242
56812.2
61554
60504
48977.8
36726.8
26006
16852.7
10294.9
6889.94
5386.91
4597.03
4463.72
4666.98
5434.54
6989.45
11111
169592
120037
101987
63990
59630.6
62799.8
60989.2
50632.6
39522
29176.5
20235.2
13980.2
9967.53
7481.7
5722.3
4874.24
4917.61
5508.77
6368.56
9258.3
206527
152607
124237
73042.6
63921.7
64503.9
61907.4
52408.1
42257.9
32434
24104.9
18064
13549.1
10232.6
7682.11
6076.96
5726.9
5970.64
6440.83
8246.13
247395
192093
154113
84741.2
69062.9
66042.1
62963.7
53992.4
44414.6
35417.9
27607.3
21558.5
16731.8
12930.9
9951.53
7953.73
7001.02
6684.29
6835.64
8358.01
326055
271355
231581
135785
91258.6
73201.8
67033.3
57896.6
49090.1
41024.4
33819.6
27606.1
22387.2
18240.2
14793.3
12269
10521.1
9165.29
8941.5
9936.64
1.00375e+06
857323
559757
343093
337547
383629
382431
325024
249186
192240
152496
128023
120944
124561
132319
146828
171191
207796
248823
330610
855375
499475
212220
186232
307491
373755
371498
299186
186895
109500
76030.9
63876.1
65726.9
71874.8
81966.5
97158.3
119814
152977
191840
272566
574112
210780
160434
149576
303571
373103
370167
288744
143531
65167.5
47117.7
49976.9
55038.1
62825
72027.1
83394.6
99372.5
122650
153357
231871
345819
181757
144479
113977
236670
363184
389512
330502
136033
29141.5
30603.8
34731.1
39956.1
45307.9
50404.8
55663
61875.4
70252.1
81187.2
130599
325977
288112
280168
207643
24876.2
44779.6
47927.6
50516.4
52645.9
54259.5
55563.7
57175.9
59437.8
63053.8
67535.6
87311.3
365492
355849
355793
348783
63647.2
65999.5
64689.3
63553.2
62647.9
62056.4
62163.9
62622.6
63449.4
64692
65822.6
71243.4
363985
354889
355107
375296
71086.7
66353.1
65127.9
64003.6
63175.2
62417.8
61620.9
61483.4
61636.4
62178.6
62882.4
65685.6
309291
285581
276407
317637
58183.4
41898.1
44162.2
45775
46765.1
47325.8
47762.8
48630.6
50148
51745.2
52889.4
55839.9
237130
177352
135015
122443
23453.8
60620.1
67600.4
54165.6
6038.88
9722.65
15700.5
21205.9
25410.8
28810.9
32351.6
35519
38014.4
40148
41947.1
46350.4
182358
103556
61276.9
27833.5
43159.8
63527.2
63471.4
40133.2
10221.2
3647.16
4715.75
7406.21
11523.6
16230.8
20642.2
24383.5
27077.8
29715.2
32657.3
38373.2
143742
71536.1
45146.1
29572.3
46334.5
62178.7
62308.9
42552.8
16245.9
4885.17
2619.08
3170.46
5231.18
8445.34
11956.7
15050.3
17897.9
21574.4
25241.9
31234.4
121287
60563.2
47850.9
33877.1
48912.3
61030.3
61265.9
44364.6
21770.2
7830.18
3253.8
2997.22
3362.19
4387.23
6017.07
8395.53
11708
15782.8
19189.6
24634.9
114767
62661.5
52756.2
38857.6
50851.2
60182.9
60594.1
45497.5
25870.8
12069.3
5480.88
3441.99
3055.84
3044.66
3633.51
5372.53
8130.99
11388.9
14128.5
19016.2
118257
68753.4
60559.8
43928.1
52363.1
59784.4
59974.5
46139
29125.3
16850.4
8885.14
4665.98
3118.32
3092.9
3456.4
4463.73
6092.69
8257.71
10354.1
14933.3
125772
78337.8
69781.3
48960.1
53691.7
59935.4
59384.6
46705.5
32641.2
21371.9
12557.2
6495.96
3882.66
3546.81
3717.89
4037.38
4692.69
5932.27
7601.86
11868
139700
92436.2
80489
54168.4
55368.7
60431.3
59401.1
47758
35862.3
25059.6
15704.5
9047.08
5852.05
4801.49
4218.54
4081.55
4182.13
4743.45
6059.28
9789.84
163071
113405
95014.9
60169.8
57659.9
61312.2
59653.9
49406.3
38359.1
27687.1
18605.2
12474.7
8860.82
6724.55
5158.78
4337.24
4321.96
4788.14
5573.81
8262.02
198492
144541
115910
68137.2
61225.4
62645.8
60285.5
51022.9
40535.2
30391.4
22355.2
16656.3
12356.2
9169.81
6721.67
5212.55
4948.42
5189.02
5624.73
7248.47
238319
182489
144306
78345.9
65560.2
63917.2
61104.2
52239.1
42395.5
33376.8
26039.3
20141.6
15231.5
11456.2
8604.17
6810.29
6077.91
5823.95
5923.11
7262.39
317233
260985
220233
125069
84863.2
69706.4
64363.4
55467.6
46838.2
39128.2
32118.2
25747.8
20325.6
16254.5
13084
10838.6
9299.85
8062.24
7706.08
8544.63
1.01844e+06
874449
530697
323275
334709
385830
382895
324893
248284
190152
151384
126714
118389
121903
129654
143855
168029
204886
246533
330289
875718
444469
194174
182105
310169
374601
371288
297863
185293
106769
74193.2
62206.4
63968.1
69920.5
79827.6
94341.9
116316
148996
188014
271019
541252
189174
155722
149387
302898
372709
369610
286138
140720
62750.6
44735.4
48279.6
54200.7
62051.2
70657
80742.4
95449.9
117292
146861
226838
319187
171395
139666
111259
240193
363306
390186
329878
130935
28220.5
29642.4
33336.4
38359.3
43726.5
48765.1
53721
59414.6
66901.9
76484.2
122165
317518
286966
277785
203748
22429.4
43111.5
46163.1
48349.1
50443.5
52326.2
53785.7
55297.2
57346.6
60700.5
64831.6
82606
363528
353040
352799
347297
61364.4
64029.1
62702.1
61676.5
60916.6
60397.1
60516.1
61024.4
61981.4
63412.6
64708.3
69408.3
363154
353474
352572
373433
68636.3
64379.4
63103.4
62059.8
61351
60785.4
60103.2
60055.9
60315.8
60980.9
61841
64506.8
308483
285142
275446
316230
55830.4
40468.1
42608.8
44314.5
45303.5
45840.1
46432.7
47457.6
49043.4
50756.5
51922.8
54723.1
235902
177759
136431
126439
21894.3
59912.5
66866.8
53800.2
5810.99
9491.18
15245.9
20252.2
24255.1
27522.8
31067.7
34494.2
36855.8
38877.4
40703.1
45146.5
179139
101637
60281
26720.5
42137.7
62669.4
62739.7
39289.1
9645.57
3411.85
4464.86
6955.96
10800.5
15439.6
19771.9
23207.8
25803.8
28406.5
31370.4
37244.4
140980
69198.5
41936.2
27932.8
45149.5
61388.7
61557.8
41659.1
15496.5
4579.54
2419.12
2929.18
4858
7890.88
11131.5
14092.4
16882
20515.8
24229.7
30095.1
118290
58283.1
45191.3
31560.4
47250
60337.5
60563.8
43517.2
20682.3
7315.41
2999.14
2598.76
2899.85
3861.01
5487.31
7724.96
10835.2
14859.7
18112.7
23386
110469
60037.3
51065.8
36468.6
49130.9
59559.1
59966
44622
24787.6
11368.1
5094.75
2960.77
2631.61
2677.75
3200.77
4755.51
7406.38
10487
13130
17935.3
114015
65542.4
58966.9
41697.9
50871.4
59033
59513
45265.5
28044.7
16163.7
8343.81
4071.51
2728.98
2718.25
3085.2
4061.09
5551.49
7576.29
9587.49
13983.3
121792
74966.8
67495.6
46763.1
52389.8
59153.4
58984.1
45970.7
31636.1
20677.7
11812.6
5917.92
3376.45
3142.51
3391.98
3749.73
4373.36
5531.48
6996.65
11029.3
135640
88830
77082.9
51744.6
53978.5
59641.9
58999.3
47146.8
35173.6
24248.1
14973.3
8351.45
5114.77
4294.84
3855.53
3822.7
3945.44
4396.8
5535.45
9052.5
159006
109842
90805.9
57406.5
56039.9
60612.5
59318.5
48852.8
37733.6
26945.7
17924
11652.2
8012.76
6034.17
4689.91
4068.68
4038.59
4395.71
5086.57
7669.33
194643
141152
111104
64638.8
59251.9
62086.8
60067.4
50638
39960.8
29749.1
21737.5
15876.4
11395.1
8332.92
6136.81
4795.59
4534.42
4719.09
5105.4
6690.42
234879
179266
139059
73597.1
63146.1
63487.6
61027.7
51933.3
41928.2
32838.9
25559
19350.9
14303.2
10606.5
7898.06
6233.95
5541.12
5282.13
5381.03
6637.87
315712
260200
216942
116916
80343.6
68414.7
63994
55057.9
46457.2
38807.2
31706.9
24993.8
19528.2
15452.6
12384.8
10193.7
8650.17
7461.23
7019.42
7775.36
1.03277e+06
881024
497598
307113
333007
386985
382927
323525
245591
186170
148429
124305
115053
118702
126973
141553
165833
202910
245144
330338
884029
392817
184438
180121
309868
374566
371327
296710
182883
103923
71150.3
60046.2
61625.6
67335.1
77395.2
91728.8
113479
146076
185096
269552
504146
177947
152842
148701
298686
372421
369975
285262
138407
61273.5
41655.2
45509.2
52724.5
61303.1
69916
78903.3
92227.7
112602
140874
221547
293481
167884
141612
112281
226275
364311
391158
329536
122260
26980
28316.6
31613.5
36618
42303.4
47534.1
52244.3
57366.9
63787.1
71808
113021
312114
289131
280415
213931
22935.7
42533.9
45802.5
47628.5
49466.1
51463.5
53166
54481.3
56014.6
58646.8
62062.3
77375.1
361578
351524
351355
344860
60387.7
63628.2
62342.7
61335.1
60583.9
59869.2
59876
60191.2
60935.1
62194.6
63407.1
67212.5
361585
351877
350463
371095
67782.7
64153.3
62945.4
61868.9
61117.6
60604
59964.4
59567.7
59682
60084.9
60746.9
62933.5
306922
283203
272650
313949
55115.8
39976.4
42074.3
43724
44713.9
45296.2
45968
46930.2
48221
49668.6
50806
53360.7
234611
176317
133909
120900
21915.7
59375.6
66379
53529.4
5498.32
9004.4
14654.6
19433.5
23453.9
26890.2
30218.7
33587.8
36040.1
38077.2
39901.3
43905.5
177233
99861.8
58982.8
26013.1
41759.3
62492.2
62790.6
39158.5
9554.15
3242
4185.33
6524.72
10254.4
14661.9
18911.5
22314.8
24922.7
27676.2
30513.2
36026.8
139913
67820.6
39888.1
27281.5
44941.1
61147.4
61622.6
41556.6
15493.2
4431.94
2302.96
2752.85
4481.67
7298.75
10337.5
13177.9
16222.9
19907.6
23360.2
28977.3
117517
57077.8
43380
30386.6
46628.1
60103.7
60631.5
43376
20498.1
7089.1
2829.34
2344.13
2590.51
3405.91
4945.28
7280.62
10352.7
14197.9
17232.2
22267.8
107782
58599.4
50213.9
35096.1
48266.4
59360
59995.4
44518.9
24487.8
11010.3
4744.13
2646.9
2262.74
2339.11
2929.19
4411.71
6865.09
9747.58
12158.7
16936.8
110742
63411.9
58256.2
40446.6
50121
58728.5
59614.1
45225.3
27713.1
15512
7835.44
3637.99
2371.23
2423.87
2809.71
3692.29
5076.3
6856.27
8737.04
13148.9
118200
72340.9
66445.6
45459.3
51779.2
58757.5
59166.1
45995.9
30931.6
19959.1
11227.6
5376.44
3035.31
2828.02
3081.16
3525.06
4113.3
5118.21
6541.45
10457.3
131704
85403.7
74570.1
50032.8
53170.4
59120.2
59001.2
47100.3
34408.2
23654.1
14285.7
7867.89
4613.8
3776.07
3567.68
3634.47
3799.85
4273.68
5325.27
8566.31
154460
105578
86531
54943.3
54764.2
59939.8
59170.7
48499.4
37180.9
26366.2
17373.7
11037.9
7189.41
5311.62
4274.3
3862.37
3897.3
4279.51
4894.69
7256.85
189589
135911
104846
61177.7
57321.4
61294.2
59717.4
50045.7
39437
29148.8
21011.8
14984.2
10334.7
7315.79
5476.8
4545.93
4378.07
4531.73
4827.68
6326.75
230172
173110
130450
68521.3
60524.5
62643.6
60497.8
51283.1
41382.1
31999.8
24540.9
18291.6
13101.4
9482.24
7163.07
5839.77
5231.69
4959.05
5027.17
6165.26
313657
256125
207346
105994
74950.9
66620.2
62922.2
54158.5
45536.3
37639.4
30494.7
23794.7
18334.9
14349.2
11552.4
9541.19
8079.56
6959.15
6483.94
7190.18
1.05448e+06
888470
477704
296970
332631
387381
383645
323277
243781
183124
145734
123156
113367
117072
125977
141428
165970
203192
245916
330995
894144
365815
180038
179238
313243
376036
372271
296912
181234
101647
68872.7
58722.3
60336.6
65495.1
75684.8
90674.6
112964
145739
185371
269792
484645
172434
150306
149033
302494
374470
371107
285693
136335
60083.4
39722
43538
51511.2
60549.1
69353.2
77554.4
89876.3
109389
137125
218259
282589
165213
138665
110660
229235
366020
392397
330950
123317
26053.1
27482.9
30633.3
35546.7
41418.6
46879.5
51525.2
56293.4
62203.4
69265.6
107194
309041
287350
277218
209657
21675.1
42131.5
45511.6
47188.4
48869
50958.1
52946.1
54454.3
55915.5
58232.6
61179.3
74670.2
360181
350813
350838
344307
60268.3
63624.9
62245.5
61232.5
60537.6
59822.2
59801.8
60103.8
60828.8
62040
63182.8
66301.5
360286
351283
350458
370242
67749.8
64395
63148.1
62062.5
61288.7
60740.2
60204.1
59757.3
59821.3
60139.6
60669.4
62412.1
305524
282040
271377
313320
55493.7
39925.2
42099
43731
44669.4
45245
45908.2
46873.2
48025.1
49344.4
50448.8
52754.8
232657
174235
130905
117773
22272.4
59555.5
66936.4
53829.4
5484.39
8866.69
14441.1
19353.8
23307.3
26735.6
29871.3
33034
35732.2
38038.2
39796.1
43295.1
175350
98439.5
57877.4
25449.7
41858.3
62802.6
63350.4
39411.8
9609.88
3195.52
4203.14
6536.44
10102.2
14302.9
18429.1
22148.7
25124.7
27728.3
30142.4
35125.1
138956
66841.5
38882.2
26946.6
45020.1
61340
62173.9
41684.9
15469.9
4448.02
2293.42
2661.05
4209.32
6928.57
10283.8
13472.3
16448.8
19722.4
22839.8
28377.1
117038
56488.4
42484.6
29955.7
46645.9
60322.5
61086
43311.8
20467.1
7069.66
2734.06
2203.96
2476.96
3472.3
5210.53
7530.62
10373.2
13834.8
17009.9
22242.7
106613
57994.7
49780.8
34587.6
48185.3
59617.1
60327.4
44518.9
24489.7
10896.1
4445.91
2525.09
2331.91
2432.32
2972.62
4336.21
6521.69
9503.89
12315.6
17086
109132
62562.1
57969.4
40002.8
50069.8
58886.2
59922.2
45512.7
27767.4
15166.5
7393.08
3636.9
2458.1
2441.81
2699.71
3420.26
4841.98
6985.98
8956.78
13152
116056
71219.9
66198.8
45023
51765.8
58787.7
59650.4
46359.5
30740.9
19352
10976
5543.23
3053.89
2711.15
2898.15
3462.48
4282.87
5439.29
6769.8
10408.8
128969
83724.3
73819.3
49460.1
53041.5
59015.4
59340.8
47243.4
33807.3
23252.2
14327.5
7979.18
4469.42
3456.08
3487.71
3733.23
4033.3
4498.27
5382.93
8371.79
151024
103023
84730
53968
54392.2
59675.3
59374.7
48287.3
36702.2
26355.5
17347.9
10884.6
6711.35
4962.01
4408.19
4088.78
4084.28
4325.61
4823.74
7113.66
185494
132157
101646
59672
56584.1
60857.3
59685.4
49677.7
39344.1
29045.1
20635.3
14420.3
9881.93
7266.79
5680.55
4693.99
4401.32
4505.22
4889.34
6572.57
226093
167695
125148
66117.9
59393.7
62112.5
60244.8
50994
41327.9
31553.2
23800
17751.7
12877.6
9399.04
7149.15
5765.69
5073.06
5010.65
5210.59
6274.06
311180
250402
198840
99327.9
72083.6
65545.2
62242.6
53680.8
45023.9
36687.1
29591.7
23298.9
17977.4
13900.9
11125.8
9136.79
7765.06
7062.35
6551.03
7034.54
1.05519e+06
887663
473071
293965
332992
388644
384247
323533
243827
183133
145914
123521
113202
116776
125900
141925
167003
204691
247532
332197
895664
364831
178862
178101
314762
378079
372971
297063
181056
101704
69175.9
59235.3
60668.9
65264.5
75153.6
90436.4
113277
146731
187124
271812
486975
171582
149842
148705
305311
376542
371644
285794
135968
60113.4
40163.9
43977.5
51998.4
60892.1
69473.2
77596.9
90000.6
109835
138296
220941
282795
164854
138092
109204
237899
367089
392411
331620
121893
25932.1
27494.4
30673
35667.4
41708.8
47255.8
51787.3
56434.6
62227.7
69370.5
108313
307792
285510
274537
199828
21979.8
42217.1
45421.5
47049.7
48730.1
50891.5
52882
54292.3
55657.9
57908.1
60836.9
74523.4
359615
349786
349525
345493
60464.1
63706.3
62187.2
61072.6
60367
59624.6
59530
59770.8
60428.2
61600.5
62748.8
65875.9
359538
350874
350216
369848
68115.3
64442.7
63123.5
61871.2
61062
60519.8
60003
59483
59504.1
59797
60351.8
62143.2
304717
281609
271256
312680
55608
40029.4
42118.9
43660
44667.6
45423.3
46081.8
46934.3
48064.9
49340.6
50465.6
52809.2
231968
174184
131589
121671
20575.2
59589.1
67115.1
54205.1
5698.4
9041.12
14628.4
19579.8
23526.2
26905.4
30084.1
33234.2
35949.9
38280
39952.8
43361.1
174705
98493.5
58265.7
25268.7
41571.5
62759.5
63296.4
39199.3
9353.42
3171.69
4249.07
6616.16
10199.4
14412
18618.6
22386
25342
27820.5
30187.3
35214.4
138629
66846.4
38932
26737
44894.6
61449.4
62117.6
41554.8
15164
4416.87
2293.8
2661.43
4209.6
6982.66
10402.9
13595.4
16481.2
19712.7
22847.5
28413.7
116972
56470
42350.6
29794.8
46553.3
60466
61055.5
43406.1
20280.2
7026.84
2730.9
2188.19
2475.69
3492.36
5243.46
7510.28
10305.2
13764
16975.6
22184.7
106625
58006.2
49573.6
34391.7
48117
59805.8
60391.1
44532.3
24253.9
10800.6
4422.01
2507.77
2316.2
2410.86
2922.16
4260.91
6469.82
9513.2
12254.8
16987.2
109198
62626.5
57996.7
39796.5
50004.7
59148.5
60028.3
45222.2
27494.3
15085.9
7336.47
3609.3
2431.03
2399.56
2656.43
3402.82
4862.49
6939.08
8884.31
13060.4
116240
71384.9
66436
44895.2
51824.5
59103.2
59628.5
45960
30618.6
19287.3
10857.4
5469.57
2999.64
2673.13
2879.87
3425.59
4179.89
5289.69
6640.52
10277.1
129151
83872.8
74130.8
49448.2
53295.2
59377.7
59312.1
47059.7
33888.3
23050.6
14123.1
7849.64
4402.65
3479.13
3471.42
3640.25
3879.07
4330.55
5225.98
8269.46
151166
102996
84873.9
54045.4
54775.2
60085.2
59418.8
48479.9
36671.1
26067.3
17170.5
10777
6737.28
5037.58
4325.08
3940.9
3940.44
4217.31
4769.18
7107.83
185615
131955
101513
59832
57019.9
61289.4
59827.7
49962.6
39120.4
28829.7
20590.4
14447.6
9938.37
7226.79
5567.81
4558.37
4295.95
4443.51
4875.66
6488.84
226147
167277
124653
66254.5
59833.2
62548.7
60451.6
51073.3
41091
31494.8
23912.5
17799.4
12838.9
9345.6
7095.95
5656.9
5016.5
4993.12
5163.04
6164.89
311301
249602
197046
98646.3
72336
65921.7
62440
53543.9
44942
36807.4
29663.6
23252.8
17913.9
13898.1
11105.4
9071.59
7764.22
6971.83
6431.2
6940.66
1.03482e+06
880335
489122
302245
335012
389392
384846
324486
245222
185667
148444
125037
115031
118588
127304
142897
168143
206044
248745
333411
887597
389751
182122
179297
316035
379255
373250
297550
181827
103109
71128.6
60621.3
61920.4
66927.2
76843.9
91862.7
114746
148728
189104
273830
506596
174506
150554
149650
307041
377883
371382
285815
136801
60787.7
41547.6
45665.6
53152.6
61633.1
69927.4
78774.7
92430.5
113751
143602
226817
292755
164244
136840
110111
239150
368177
392748
331966
122302
26399.9
27916.1
31424.1
36614.7
42553
47863.2
52521.1
57630.9
64074.2
72326.3
115280
308436
284310
274517
200516
22399.6
42030.8
45238.5
47104.4
49050.6
51220
53033.5
54358
55882.2
58564.6
62060.2
77685.3
359058
349584
349623
345617
60189.1
63271.3
61920.4
60913.3
60192
59437
59411.2
59704.5
60472.3
61826.6
63121.6
67034.5
359076
350623
350202
369879
67676.6
63833.9
62647.5
61589.6
60846.9
60343
59744.2
59367
59492.6
59936.2
60646.1
62928.7
304498
281456
271211
312755
55000.8
39774
41929.1
43657.1
44791.3
45418.9
46051
46945.4
48169.4
49647
50860.6
53521.9
232037
173782
130823
116415
22592.6
59477.9
66823.2
54011
5503.01
9192.08
14880.5
19762
23730
27069.1
30287.7
33667.8
36259.4
38287.8
40078.1
44084.7
175686
98876
58425.8
25813.9
42094.5
62825.4
63228.5
39270.5
9225.58
3177.62
4217.93
6628.84
10340.2
14724.5
19060.3
22576.3
25158.7
27810.3
30561.7
36068.1
138812
67458.8
39772.4
27326
45144.4
61417.6
62004.1
41539.3
15038.6
4294.78
2258.25
2695.4
4434.19
7311.67
10496.8
13387.1
16377.2
19907.5
23335.4
29021.6
116893
56760
43456.6
30649.9
46810.8
60317.3
60909
43274.6
20016.6
6842.42
2743.63
2284.67
2551.55
3426.15
5014.88
7318.84
10277.2
14079.4
17166.1
22226.5
107657
58440.4
50426
35422.7
48443.3
59577.7
60195.3
44392.9
24062.3
10702.6
4603.34
2588.62
2220.91
2289.98
2846.43
4259.35
6706.76
9684.47
12092.2
16835.3
110854
63580.8
58717.7
40825.8
50351.6
58959.9
59820.5
45129.3
27388.4
15214.4
7624.99
3570.34
2314.03
2347.02
2701.19
3586.58
5038.18
6825.58
8686.99
13056.5
118315
72621.4
67248.6
45933
52097.9
59005.8
59324.1
45908.9
30693
19596.5
10932.5
5260.34
2929.93
2729.7
2994.37
3465.29
4051.7
5039.2
6437.48
10319
131636
85513.9
75407.3
50591.7
53533.9
59379.5
59122.7
46978.6
34166.3
23199.6
13974.1
7675.79
4454.31
3724.2
3535.66
3570.37
3673.46
4104.49
5114.9
8438.18
154313
105357
86970.9
55509
55112
60195.2
59292.4
48395.3
36852.4
25959.3
17091.3
10811.6
7088.06
5341.78
4268.47
3761.02
3759.13
4109.75
4792.37
7236.43
189572
135495
104709
61618
57644.9
61540
59798
49997.3
39167.5
28808.9
20830.9
14852.5
10293
7343.92
5480.47
4394.81
4221.93
4434.2
4818.86
6273.61
230302
172612
129587
68662.2
60787.7
62879.2
60571.8
51257.1
41150.7
31741.4
24441
18185
13011.1
9479.99
7117.11
5664.46
5135.77
4944.38
5005.11
6062.04
314135
255673
205248
104497
74711
66703.6
62945.1
54024.4
45339.4
37459.4
30404
23686.5
18220.7
14290.3
11473.2
9463.74
8071.51
6903.29
6377.01
7049.44
1.01858e+06
871437
521548
321186
339231
390800
386174
326606
247853
189226
151101
126733
117991
121472
129539
144705
169929
207536
249391
332688
875020
438552
193305
183760
316622
380551
374633
299622
184239
105543
73583.1
62012.3
63645.5
69337.8
79317.5
94680.4
117853
151880
191774
274505
541269
186191
155061
150972
309084
378881
372593
287854
139542
61848.5
43996.8
47798.1
54088.6
62028.2
70535.2
80891
96352
119535
150932
232958
316408
168471
138140
111836
241095
367705
393295
332486
125026
27438.6
28871.9
32705.9
38020
43666.5
48838.8
53886.5
59662.2
67304.7
77392.8
125834
313504
284360
276269
201779
22472.4
42293.6
45388.1
47638.8
49901.1
51915.7
53437
54943.5
57017.5
60406
64618.8
82995.3
359991
351020
351280
345623
59783.2
63196.8
61974
60962.5
60199.1
59628.5
59727.7
60221.4
61187
62647.9
63938.9
68816.3
360038
351542
351406
370436
67190.1
63628.6
62484.1
61527
60880.3
60353.2
59644.3
59564.1
59794.9
60418.5
61234.5
63936.3
305883
283087
273425
313447
54504.9
39686.5
41971.8
43876.6
45027
45574.7
46128.5
47111.1
48679.7
50400.3
51560
54346.1
233700
175602
133578
123535
21322.3
60103.4
67238.5
54131.9
5879.76
9273.07
15022.3
20083
24026
27267.1
30810.8
34363.8
36836
38825
40584.8
44954.1
178095
101097
59645
26399.5
42418.6
63253.8
63363.1
39623.3
9601.17
3362.73
4405.88
6821.38
10586.6
15208.4
19687.1
23276.6
25845.8
28333.6
31205.9
37067.9
139754
68785.4
41743.9
27816
45390.3
61882.2
62119.8
41881.4
15482
4516.66
2339.32
2819.12
4716.62
7793.69
11140.9
14113.2
16844.3
20387.5
24108.1
30057.2
117710
57694
45083.3
31624.1
47483.6
60782.4
61068.8
43690.2
20647.8
7148.93
2878.34
2534.64
2855.57
3844.58
5455.93
7622.97
10663.1
14715.3
18069.8
23356.2
110181
59628.9
51035.7
36608.3
49398.3
59992.6
60432.2
44839.3
24654.5
11102.9
4922.59
2917.97
2564.08
2596.23
3063.96
4559.66
7238.72
10429.7
13093.7
17847.2
113698
65286
59131.2
41877.4
51214.2
59424.1
59971.6
45448.2
27846.8
15860.5
8193.62
4035.35
2645.04
2617.47
2988.96
4000.47
5546.38
7583.96
9557.56
13853.5
121402
74627.8
67831.2
46954.7
52784.2
59525.9
59355.5
46031.8
31378.2
20426.2
11701.4
5832.74
3235.67
3044.82
3329.39
3744.16
4390.53
5521.61
6912.41
10883.1
135330
88298.6
77066.3
51885.5
54319.4
59961
59298.8
47090.2
34956.5
24050
14799.4
8161.56
4896
4217.22
3859.06
3802.57
3891.59
4288.43
5378.72
8959.81
158937
109156
90158.5
57385.4
56259.7
60866.4
59551.2
48782.9
37528.6
26660.8
17633.4
11336.9
7792.45
6000.32
4701.42
4000.83
3934.83
4257.62
4999.56
7652.66
195176
140529
109658
64303.7
59277.4
62280.2
60200
50592.5
39661.6
29260.5
21302.4
15565.8
11258.3
8302.17
6089.79
4614.06
4372.53
4599
5045.75
6647.51
236082
179328
136933
72658.9
62946.4
63640.4
61092.3
51820.4
41517.1
32257
25147.2
19130.7
14137.8
10488.4
7725.17
5966.77
5379.39
5193.4
5299.74
6539.14
317733
261040
214551
113602
79157.7
68196.9
63876.7
54768.8
45990.9
38310.5
31400.9
24757.1
19241.4
15174.5
12121.4
10005.8
8549.27
7346.4
6881.01
7608.99
1.00203e+06
855549
551341
343732
343259
390155
386021
327460
249791
192103
152590
127954
120505
124029
132072
147389
172477
209472
250534
331657
854005
492215
212410
191392
315537
380777
375160
301181
187030
109130
76110.6
64049.9
65684.3
71518
81521.5
97199.1
120521
154432
193775
274129
572898
206656
160839
153543
310256
379449
373894
290383
143426
64856.2
47123.4
50083.3
55177.6
62813.8
71850.9
83501.2
100161
124590
156690
236262
342371
177340
141445
113773
244710
369023
394521
333550
133927
28732.7
30168.4
34407.9
39873.1
45359.5
50475.1
55786.4
62048.4
70710.3
82418.7
135043
322450
285494
278824
204182
22819.1
43866.9
46961.1
49556.8
51853.3
53551.4
54881.5
56518.7
58832.5
62532.1
67186.9
87994.8
361386
353384
354460
346974
60639
64934.4
63670
62525.8
61594.2
60972.1
61068.1
61507.4
62318.1
63532.7
64617.4
70408.7
361168
353494
354097
372908
67896
65189.4
64020.9
62954.1
62174.9
61451.6
60670.4
60501.5
60645.7
61161.4
61832.1
64706.7
307145
284905
276202
316056
55107.3
41159.2
43435.4
45117
46138.8
46645.6
47051.3
47943.6
49510.5
51077
52160.6
55041.7
235093
176950
135552
120986
23288.9
60275.2
67305.7
54142.2
5932.54
9736.84
15664.3
21012.4
25056.5
28409.2
31994
35231.1
37650
39637.5
41355.7
45708.6
180400
103134
61370
27241.2
42766.1
63435
63445.4
39890.6
9969.45
3577.39
4608.31
7244.63
11313.5
16061.1
20547.5
24203.3
26718.1
29225.4
32126.5
37839.4
141261
70593
44629.5
28975.6
45896
62130
62298
42363
15952.1
4726.57
2529.88
3084.97
5162.68
8399.05
11862.9
14807.2
17553.5
21182.8
24864
30819.3
119390
59615.3
47260.7
33285.8
48464.1
61007.4
61295.1
44270.2
21425.2
7549.31
3143.28
2969.16
3348.61
4335.94
5864.46
8152.06
11420.2
15519.4
18932.4
24268.4
113103
61658
52107.7
38231.5
50444
60189.3
60652.8
45439.2
25457.1
11713.8
5344.91
3418.1
2977.22
2947.56
3502.12
5203.93
7969.91
11245.1
13935.6
18689.4
116706
67459.8
59791.9
43258
52028.9
59699.5
60017.6
45993.9
28679.1
16495.8
8735.12
4596.57
3019.43
2993.16
3386.32
4426.56
6060.52
8190.76
10203.5
14649.8
124466
76856.1
68871.1
48246.2
53380.6
59808.4
59358.6
46470
32216.3
21066
12375
6340.79
3738.66
3460.76
3669.5
4026.67
4691.56
5878.17
7464.9
11632.9
138918
90996.2
79173.1
53375.7
55012.9
60263.2
59346.1
47498
35536.2
24772
15439.3
8793.02
5638.72
4701.86
4182.37
4036
4110.71
4638.72
5924.68
9636.88
163075
112205
93204.8
59223.4
57195.7
61133.8
59592.2
49212.7
38080.7
27320.1
18237.9
12124.9
8596.42
6601.75
5085.84
4227.68
4208.33
4665.27
5478.7
8209.23
199777
144016
113555
66794.5
60575
62474.9
60237.7
50899.3
40194.9
29883.6
21882.1
16273.8
12083.1
9002.53
6552.58
4995.74
4794.02
5060.95
5552.01
7206.08
240782
183511
141786
76244.8
64621.3
63750.7
61041.1
52057.6
41972.7
32821.6
25584.8
19784.6
14921.4
11203.4
8331.65
6523.36
5895.28
5713.12
5846.71
7168.67
320670
263330
218837
120689
82657.5
68989.2
63984.2
55046.3
46328.8
38614.4
31702
25342.1
19898.9
15866.7
12732.9
10555.6
9102.28
7897.51
7542.05
8352.47
1.01246e+06
865607
586483
361056
346516
389371
386254
327912
252686
196913
156573
131993
124925
128336
136390
152267
178364
216317
257754
337569
861377
550524
232288
196896
310886
377216
372809
299771
188342
113080
79867.6
67535.5
69138.1
75012.1
85620.7
102460
127142
162451
203095
283696
610397
228702
165955
156330
305277
375092
370355
288724
145029
67818.4
51026.8
53583.9
58160.5
65822
75818.6
88921.2
107284
133388
167202
248184
364305
184771
146773
115664
242062
367066
392772
331991
135644
29755
31723.2
36473.8
42319.4
48000.3
53396.4
59370.3
66376.4
76245.5
89745.8
147592
330148
284767
278495
206305
24725.9
45005
48025.7
50804.5
53286.5
55214
56803.4
58699.9
61456.1
65843.4
71343.8
95499.8
363049
353093
353612
349276
62933.5
66161.3
64672.9
63499.2
62548.4
62443.5
62710.8
63375.9
64454.9
65938.8
67211.5
74473.3
362572
353385
353686
375042
70239.9
66428.9
65108.8
63987.8
63185
62595
62244.2
62291.5
62569.8
63282.5
64092.9
67689.3
308259
284059
274949
318031
57341.1
42179.3
44288.2
45780.7
46935.3
47805.8
48528.4
49571.4
51087.4
52723.1
54176.8
57741
237022
176265
133923
121728
23117.8
60358.5
67342.9
54159
6167.4
9789.03
15791.8
21535.3
25990.7
29688.3
33128
36085.2
38808.3
41492.9
43680.7
48313.7
184086
105410
62846.3
28064.9
43317.7
63474
63475.7
40416.9
10298.4
3748.22
4894.81
7856.15
12142.4
16679.1
21028.2
25046.1
28184.8
31429
34449.3
40023
144929
73595.3
48090
30469
46612.3
62052.3
62335
42823.2
16431.3
5033.93
2891.23
3433.94
5443.09
8687.89
12373.6
15864.8
19175.9
23033.2
26556.5
32698.5
123271
62897.6
50411.1
35345.5
49399.3
60973.1
61424.8
44621.7
22182.3
8229.46
3524.47
3261.49
3600.41
4689.1
6545.93
9313.83
12847.4
16845.3
20321.2
26232
117632
64962.9
54819.2
40509.9
51462.2
60316.2
60899.4
45950
26547.6
12667
5746.95
3715.75
3474.87
3552.54
4314.84
6187.56
8959.7
12283.6
15284.1
20769.6
121172
70844.7
62458.8
45689.2
53187.9
60347.5
60428.1
46911
30099.2
17364.2
9211.23
5042.14
3644.15
3653.18
3965.2
4904.02
6626.27
9011.37
11478.3
16609.9
128787
80633.8
72351.5
50897.5
54750.9
60714
60370.2
47746.3
33573.7
21850.7
13091.1
7151.1
4606.7
4078.92
4132.59
4362.15
5084.97
6597.83
8625.44
13322.2
143651
95642.9
83833.5
56550.8
56632.6
61474
60541
48921.2
36649.9
25882
16684.4
10113.3
6754.23
5311.61
4566.13
4430.46
4614.99
5366.97
6909.3
10962.7
168999
117945
99120.2
62905.3
59220.7
62670.3
61009
50607.6
39429.9
28993.8
20024.8
13772.7
9790.8
7371.03
5635.55
4781.71
4826.15
5413.12
6267.08
9168.22
207376
151245
120622
71303.9
63199.2
64369.8
61940.7
52402.7
42124.1
32201.5
23877.4
17851.3
13350.5
10077.3
7503.24
5889.13
5581.22
5829.26
6308.66
8120.23
249788
192619
150380
82006.5
67955.6
65908.5
62987.9
53950.1
44276.9
35208.1
27408
21362.6
16512.5
12725.4
9712.66
7699.23
6790.59
6498.18
6662.01
8199.46
330238
273891
229701
130620
88639.9
72397.6
66712.4
57651.9
48884.6
40830.7
33641.5
27392.6
22116.1
17968
14510.5
11981
10233.5
8894.45
8692.53
9681.08
327838
176682
330588
231361
332239
205133
333422
387889
356606
388932