/*--------------------------------*- C++ -*----------------------------------*\
  =========                 |
  \\      /  F ield         | OpenFOAM: The Open Source CFD Toolbox
   \\    /   O peration     | Website:  https://openfoam.org
    \\  /    A nd           | Version:  9
     \\/     M anipulation  |
\*---------------------------------------------------------------------------*/
FoamFile
{
    format      ascii;
    class       surfaceScalarField;
    location    "0.0085";
    object      phi;
}
// * * * * * * * * * * * * * * * * * * * * * * * * * * * * * * * * * * * * * //

dimensions      [0 3 -1 0 0 0 0];

internalField   nonuniform List<scalar> 
28500
(
-99.1402
-99.6082
9.14498
-96.672
-131.271
10.1255
-134.79
-209.406
5.27548
-112.259
-271.654
-1.04046
-55.385
-285.44
-1.16408
-1.02013
-284.159
-2.14387
54.7153
-281.608
-1.84629
126.39
-286.646
-1.51985
192.22
-274.895
-0.274824
239.255
-237.104
-0.84279
272.13
-190.993
1.03534
293.521
-158.745
2.8567
308.057
-138.172
0.879978
319.674
-119.861
0.61561
331.346
-109.409
5.47189
339.881
-100.817
8.97215
342.169
-90.6085
8.58154
341.488
-82.328
6.07177
340.061
-72.6741
5.6873
-66.9038
4.89675
-130.135
-95.1099
10.6874
-190.349
-188.647
10.0608
-195.79
-230.007
0.204833
-141.196
-273.406
-4.70119
-59.2279
-281.081
-1.59271
-0.164649
-284.137
-2.33114
59.0357
-281.675
-1.16711
144.222
-285.958
-1.61031
234.09
-261.006
0.982039
291.885
-204.581
1.45323
324.805
-155.793
0.176931
348.394
-128.44
4.95061
368.035
-117.303
4.07657
384.644
-106.538
3.77939
400.78
-103.794
5.11103
412.228
-99.0571
6.27194
414.646
-87.3747
7.60841
410.46
-75.9973
6.72338
399.768
-57.5797
6.33017
-44.4269
5.30566
-207.642
-128.461
8.57507
-231.089
-194.265
3.17475
-222.224
-220.687
-1.6049
-149.832
-63.5077
-5.52338
-64.0688
-64.7549
-65.3011
-64.1015
-69.3951
-1.17498
-69.7233
-70.4563
-70.4314
-0.540448
-70.1827
-1.77255
-69.9646
-70.9262
-70.5648
64.6392
-69.49
-1.27506
-69.7847
-70.0512
-70.3511
155.214
-69.8664
-0.3365
-70.0849
-70.443
-70.8432
256.071
-63.4984
-0.712351
-52.0028
-64.6832
-53.2289
318.355
-176.47
4.21598
360.935
-164.528
-0.17089
401.593
-154.419
-4.91792
438.289
-152.19
1.67745
466.585
-148.92
3.86458
487.276
-145.22
4.98997
499.704
-138.386
-1.28231
503.828
-127.078
-2.64541
500.261
-110.017
-1.28473
490.488
-89.9756
0.581311
-47.4994
1.67278
-270.596
-110.199
2.7249
-272.667
-141.155
1.34105
-64.5758
-150.192
5.61201
-64.565
-64.2065
-65.034
-58.144
-56.7057
-1.03975
-26.8048
-1.22429
45.0039
-16.9425
-16.8609
-16.877
-16.8967
17.3214
-7.78174
-0.130036
-17.6579
-17.422
-17.4653
-17.6539
0.101503
7.65627
-0.491688
-17.4494
-17.1904
-17.2088
-17.4291
-17.1025
26.4699
-0.174957
-17.663
-17.2841
-17.3158
-17.6205
-47.9193
61.2755
-59.366
-0.589255
474.163
-127.446
-2.93716
-86.997
-112.295
-87.221
-112.435
511.461
-134.233
-2.12169
529.735
-131.683
-6.45661
541.731
-127.998
-3.30649
550.435
-122.653
-3.28086
556.515
-117.309
-1.6914
559.44
-110.049
-1.89997
560.484
-101.926
-2.4975
559.141
-92.8082
-1.98077
555.778
-82.0598
-1.01098
-50.644
0.637658
-285.287
-56.241
-0.96864
-280.717
-59.8674
-1.06507
-69.6804
-64.7472
-0.0605412
-69.8759
-70.0449
-70.3606
-26.5516
0.4645
45.5722
-17.2123
-17.5169
-17.7369
-17.2682
6.20936
30.9193
-7.59884
-0.423257
585.671
-67.5825
-3.3036
-142.932
-145.062
-144.248
-146.562
590.691
-66.1548
-2.83452
594.319
-64.6989
-2.58861
597.069
-62.6291
-2.55091
599.388
-59.7805
-2.5723
601.317
-56.9276
-4.31391
602.007
-54.364
-5.00882
600.975
-52.0042
-4.14798
598.517
-50.5742
-3.40951
594.664
-48.5497
-3.07909
-38.1442
-1.87083
-285.555
-1.04882
-1.60021
-285.433
-0.617762
-1.86932
-70.4421
-0.963746
-1.90169
-70.5576
-71.0438
-70.9578
17.3671
-7.84848
-0.412401
-17.5884
-17.6258
-17.6251
-17.5349
3.54722
36.3329
-2.53262
-0.210537
590.398
0.375268
-3.22913
-145.845
-147.298
-147.402
-148.815
590.74
0.356305
-3.24266
590.839
0.0623288
-3.36622
590.816
-0.346921
-3.77396
590.623
-0.823563
-3.82443
590.032
-0.837121
-3.53942
589.12
-0.931138
-3.38101
587.994
-0.944913
-3.41156
586.898
-0.354192
-3.45807
586.156
0.643393
-3.57793
4.26699
-3.1251
-282.632
55.1152
-2.69409
-282.432
59.1884
-2.10169
-69.675
64.9783
-1.93959
-69.8386
-70.1826
-70.4674
0.132753
7.58809
-0.856077
-17.5098
-17.2807
-17.2951
-17.4932
-0.0540921
36.5255
0.859626
-0.231437
592.293
65.4081
-2.52533
-146.979
-147.105
-148.466
-148.624
592.961
63.2748
-2.75499
593.761
61.4518
-3.56828
594.451
59.3592
-3.50084
595.049
57.2319
-3.00155
595.319
55.8286
-2.84756
595.739
54.3907
-3.26737
596.16
53.7701
-3.88251
596.299
52.7992
-3.9791
596.426
51.8089
-3.58249
50.9442
-3.13281
-287.919
127.246
-2.85896
-286.875
145.509
-2.81597
-69.9224
155.912
-1.53719
-70.0359
-70.6033
-70.8345
-17.1208
26.6541
-0.426919
-17.5801
-17.4239
-17.4219
-17.4477
-3.60461
36.7063
4.85193
-0.22204
597.146
169.479
-1.74333
-147.144
-147.192
-148.702
-148.434
599.536
162.428
-5.81431
600.894
155.979
-4.35884
602.298
148.441
-0.630582
602.335
141.667
-0.164371
602.437
135.399
-3.62541
603.085
127.988
-7.08372
602.667
121.81
-5.93168
602.12
116.483
-2.75207
601.78
111.657
-1.95619
104.409
-2.5997
-275.043
193.275
-2.67339
-260.306
235.98
-2.6284
-63.0676
258.501
-5.07553
-51.7299
-64.9564
-53.493
-47.7381
-59.123
63.0085
-1.54744
8.65118
-6.93834
34.2244
-0.757681
3.52187
-2.5139
35.4347
-0.278272
-0.0943273
0.90705
35.6504
-0.22867
-3.67583
4.90484
35.9077
-0.181129
-8.39733
-10.3917
120.804
125.854
-0.54911
-14.9684
-7.66046
-14.2066
-16.1549
-12.7644
-16.8913
558.575
325.905
-21.3594
-133.501
-118.188
-134.426
-118.797
575.766
282.932
1.33498
583.763
255.66
7.92987
591.413
237.703
1.55017
598.722
224.045
-8.04067
600.907
210.087
-10.7579
603.212
197.645
-4.29903
604.785
186.151
2.76838
604.778
175.927
2.82015
605.562
167.951
-2.9114
154.195
-4.47304
-236.031
239.903
-3.81308
-203.629
293.24
-3.63351
-177.703
319.213
-2.84563
-131.091
472.239
-6.90847
-88.2652
-113.663
-87.9931
-112.192
-67.422
574.154
-5.28293
-140.436
-141.907
-141.985
-143.667
1.23428
578.297
-4.77324
-142.574
-143.922
-144.529
-145.779
68.2442
580.538
-3.75362
-143.601
-144.07
-145.485
-145.985
176.291
585.593
-1.09465
-144.692
-145.312
-146.772
-147.627
309.35
555.439
-18.2859
-133.355
-122.525
-136.214
-124.394
451.261
462.485
6.74555
509.515
376.292
23.5392
536.761
332.161
-7.0633
551.849
305.952
-20.2879
565.095
287.806
-16.0246
577.864
275.264
-1.25981
585.868
257.252
9.5962
591.254
245.051
6.88369
595.237
230.241
-4.77742
597.893
218.422
-9.21466
200.798
-5.11704
-190.009
272.591
-2.69889
-152.914
325.9
-5.58557
-163.392
359.503
-6.0198
-135.075
504.784
-8.80973
-65.8824
578.986
-3.66827
1.4077
578.99
-4.6415
65.3901
581.277
-3.98799
165.855
586.187
-5.95156
274.115
568.785
-1.69109
363.515
517.43
23.8325
447.659
462.728
-13.4024
485.319
402.009
-45.2313
503.664
360.107
-24.6363
527.205
338.484
4.0629
544.926
328.598
15.6457
557.768
311.698
9.84491
571.715
296.505
-5.77883
578.314
276.721
-14.6621
584.405
266.098
-6.98077
244.387
-0.355043
-158.51
293.566
-0.811533
-126.908
348.458
-0.857453
-151.326
398.944
-8.22009
-130.837
521.602
-9.4121
-64.4948
582.737
-3.60263
1.03951
579.194
-4.90727
62.9749
582.329
-4.37417
155.687
586.668
-5.27448
251.286
573.602
8.27487
329.197
540.126
-1.95631
397.976
502.082
-41.2861
443.746
456.786
-31.3378
467.515
404.77
10.5168
485.557
369.315
19.9544
512.022
364.457
9.9239
529.847
352.494
-9.08235
540.777
336.686
-19.9054
550.593
319.289
-12.4125
563.244
308.651
2.9639
284.849
4.44697
-137.236
307.708
-2.85765
-117.776
366.918
-2.13021
-152.871
436.546
-1.71828
-127.88
533.852
-4.57188
-61.7857
585.719
-3.46999
0.527168
579.067
-5.39191
60.3324
583.327
-4.19666
147.22
587.87
-1.22704
233.17
578.188
2.97251
306.076
551.235
-17.3552
362.923
515.274
-23.1143
400.232
483.784
11.4346
425.549
437.932
30.2615
455.268
395.589
6.91101
481.773
385.406
-18.9238
493.508
375.554
-24.9174
507.778
367.536
-16.7001
527.495
354.942
4.43406
541.581
347.069
9.92955
321.715
3.52543
-119.125
319.493
-3.27888
-107.378
383.866
-2.56181
-149.395
463.401
0.314487
-122.048
541.455
-4.98105
-58.7286
588.097
-3.7634
0.0391408
578.641
-5.39987
57.9305
584.024
-4.23447
139.35
588.289
-0.348274
218.521
583.432
-7.83905
284.217
559.615
-16.1876
342.196
531.955
4.01824
373.655
499.693
24.9346
392.376
470.506
10.1229
418.364
426.156
-15.9372
443.741
405.124
-26.1002
460.222
394.637
-15.8279
477.841
392.141
3.50195
497.167
385.747
18.0388
512.171
378.427
9.9978
350.933
0.296383
-109.662
331.505
1.5396
-103.797
400.162
-0.257474
-144.197
481.638
3.00247
-115.658
546.038
-3.26571
-55.8275
589.976
-5.9305
-0.0273515
577.9
-5.25089
56.5657
584.47
-4.18441
132.611
589.332
-3.69015
203.015
584.84
-12.1178
268.683
567.291
-3.17813
326.467
543.992
16.3782
367.042
518.976
15.3269
386.672
491.947
-10.4784
404.736
452.873
-23.2099
428.465
433.169
-13.768
450.522
420.317
8.07488
466.622
415.371
21.6583
475.963
410.023
18.521
486.318
400.426
3.19126
376.959
-2.07903
-101.907
340.352
5.31064
-99.1945
411.744
2.06325
-135.973
493.241
-2.552
-107.918
548.735
-3.51867
-53.3188
590.449
-6.31866
-0.26157
576.903
-5.40084
54.9432
584.82
-4.46115
125.586
590.797
-7.21062
190.434
587.476
-6.19442
250.093
573.441
7.65391
307.876
552.426
11.2218
351.97
530.692
-3.55426
375.527
500.158
-17.558
394.484
465.276
-12.6066
417.022
453.626
8.92634
441.8
446.459
26.2242
460.047
439.428
25.3111
466.727
427.639
8.4135
468.481
417.595
-4.44107
401.248
-2.88568
-91.922
342.629
5.47809
-88.1061
414.542
4.80564
-123.928
497.637
-3.1947
-99.8029
550.139
-4.23547
-50.9571
589.26
-5.32087
-0.40792
575.782
-5.49087
53.6982
585.276
-4.66013
119.07
590.48
-6.68823
180.016
589.747
0.776733
238.036
578.069
5.51329
290.87
562.814
-4.47215
333.127
538.93
-16.533
364.421
511.114
-12.2454
389.906
480.203
6.04195
412.025
464.135
21.4367
432.656
458.99
23.3779
450.608
453.381
11.7194
455.85
438.67
-5.36936
458.64
431.739
-3.96135
419.507
4.9893
-83.2277
341.644
3.43108
-76.7436
410.367
4.45073
-107.009
494.678
-1.98168
-90.7124
549.148
-3.36769
-49.4674
586.773
-4.67968
0.0946827
574.773
-5.47023
52.5852
585.691
-4.76679
113.986
589.882
-4.04203
170.45
590.375
0.960569
223.485
581.711
-5.03273
270.387
568.295
-13.9209
314.184
546.775
-10.7993
349.576
526.641
5.9949
379.272
495.736
19.651
404.03
470.732
19.6994
422.744
460.198
8.63257
436.345
452.77
-5.0977
443.771
442.89
-7.64538
454.652
444.747
3.94109
436.785
14.3464
-72.7307
339.752
3.29531
-57.7268
398.588
4.2989
-87.8761
485.322
-0.408576
-80.1061
545.933
-2.34716
-47.2893
582.901
-4.48542
1.05522
573.949
-5.42177
51.2153
585.777
-4.93018
108.894
589.324
-3.00805
163.054
591.595
-3.56885
212.529
584.64
-9.25272
259.741
574.313
-7.48755
302.085
557.467
1.97413
339.476
537.697
10.1226
370.355
508.126
11.9518
392.85
481.302
5.21184
411.808
461.33
-3.37301
428.464
451.681
-4.99473
440.611
449.237
3.78087
453.24
453.662
15.5772
445.194
16.0845
-66.2037
3.12488
-43.171
3.67496
-46.6473
1.11522
-49.163
-0.298222
-36.781
-3.03573
4.68559
-4.77742
50.0248
-4.74081
101.857
-3.40942
150.234
-4.69082
195.899
-5.72247
238.896
-1.51118
278.49
3.55611
314.793
4.00064
343.962
1.89715
369.238
-0.168735
394.435
-1.87195
413.169
2.80537
428.749
11.8087
442.395
15.1441
13.157
-96.6379
-97.0857
9.8174
-97.9942
-134.529
12.1803
-141.388
-222.67
13.7655
-114.762
-280.762
3.92279
-54.5738
-290.338
-0.0856773
-0.628533
-289.901
-1.12235
55.2608
-286.745
-1.27139
127.457
-292.199
-1.17543
193.674
-279.435
1.31324
240.653
-241.087
2.17404
273.914
-194.476
2.807
295.582
-161.493
5.73205
309.525
-140.026
4.81377
320.75
-120.633
3.83205
332.469
-109.614
8.31908
341.358
-100.834
12.1788
343.668
-90.2999
12.3145
342.729
-81.9009
9.83167
340.8
-72.1086
9.11584
-66.0225
6.47761
-132.164
-96.6249
12.546
-204.293
-204.68
25.1716
-199.116
-237.64
5.80526
-139.906
-281.946
0.0314772
-58.4956
-287.689
-0.874646
0.344006
-290.972
-1.17805
59.9143
-287.742
-0.936544
145.108
-292.422
-1.3609
235.949
-266.397
1.97527
294.739
-210.086
5.65771
328.528
-161.864
3.72402
352.622
-130.558
8.7468
371.66
-118.241
8.53432
387.955
-107.415
7.43713
404.581
-104.914
10.124
416.509
-100.148
12.3332
418.962
-88.2287
13.8937
414.682
-76.7115
12.6714
403.559
-58.0029
13.2846
-43.2579
9.85427
-219.061
-135.518
15.796
-234.948
-200.571
7.01136
-224.529
-227.166
-1.77813
-148.186
-66.1935
6.9902
-66.7943
-66.6681
-67.5866
-62.8384
-72.0137
0.0511083
-72.0559
-72.9473
-72.935
-0.586205
-72.6379
-1.40025
-71.9407
-73.5504
-72.6836
65.1905
-71.4402
-1.28019
-71.6727
-72.1534
-72.4194
156.17
-71.834
-0.0159487
-72.2347
-72.5542
-72.8636
258.763
-65.8492
1.52743
-54.6085
-65.917
-54.5821
325.362
-179.31
6.35377
369.281
-168.35
9.3723
408.51
-157.781
2.47204
444.032
-153.85
7.24388
472.752
-150.702
7.48682
494.911
-147.221
10.4987
507.894
-140.928
5.89191
511.918
-130.717
5.45553
508.116
-114.048
6.11316
497.914
-94.2218
8.40689
-49.2773
8.52437
-277.823
-113.48
5.65135
-278.166
-142.878
-0.59177
-64.7643
-151.658
3.65281
-65.5337
-65.3815
-66.3664
0.217067
-57.7284
-58.7418
-0.153972
1.18434
-25.8856
-0.272387
45.149
-17.9112
-18.4396
-17.7804
-18.6023
0.148175
17.122
-7.8472
-0.209161
-18.1989
-18.1156
-18.0436
-18.235
0.517396
0.135614
7.66405
-0.512457
-17.9803
-17.64
-17.8694
-17.7368
0.128308
-17.1855
26.556
-0.181008
-18.2062
-17.7991
-18.1231
-17.8969
-48.1246
-0.499928
61.5251
-61.851
0.570578
485.54
-129.284
3.51461
-88.6628
-114.208
-90.1079
-118.236
522.911
-136.209
5.48213
540.199
-133.473
1.84325
551.531
-129.281
4.66916
560.042
-123.896
3.0925
566.045
-118.601
4.14787
568.775
-111.508
4.08721
569.393
-103.48
4.17532
567.604
-94.651
4.79708
563.881
-84.6442
6.62485
-53.3629
9.44928
-289.611
-56.1326
0.26104
-286.566
-60.4081
-1.22597
-70.8646
-64.9932
-0.156281
-71.5313
-71.5249
-72.1306
-0.704842
-26.7537
0.216387
44.766
-17.2871
-17.0393
-17.1754
-17.1014
-0.0428094
6.06695
30.9309
-7.65152
0.0942602
597.887
-67.9311
1.22417
-146.553
-148.598
-148.215
-149.535
601.985
-66.2048
1.1201
605.023
-64.7289
1.28421
607.309
-62.6669
1.49601
609.237
-59.9358
1.97671
610.82
-57.0961
0.813238
611.413
-54.4869
-0.32459
610.362
-52.0877
0.594784
607.731
-50.7552
1.75911
603.729
-48.9681
2.62272
-39.9024
5.06684
-290.225
-1.0732
-0.795507
-291.11
-0.443289
-1.27176
-72.4561
-0.759467
-1.57859
-72.0953
-73.3323
-72.6422
0.366715
17.429
-7.87628
-0.273543
-18.2854
-17.9959
-18.1934
-18.1478
0.117633
3.4791
37.2007
-2.48532
-0.0801745
602.155
0.720874
0.15904
-149.396
-150.815
-150.292
-151.753
601.658
0.660613
0.239174
601.206
0.184258
0.285168
600.836
-0.17782
0.141413
600.325
-0.405774
0.120593
599.452
-0.453218
0.616247
598.253
-0.617287
1.04287
596.85
-0.758232
1.49585
595.483
-0.457002
1.67846
594.496
0.372906
1.52852
3.71957
2.52602
-287.499
55.0955
-1.18992
-288.155
59.461
-0.670737
-71.4314
64.8818
-0.989323
-71.7216
-72.1132
-72.4209
0.737131
0.158848
7.54016
-0.578655
-17.9881
-17.69
-17.8894
-17.7638
0.131116
-0.0565564
37.3944
0.85083
-0.087205
604.447
66.0127
1.07119
-150.517
-150.707
-151.5
-151.735
604.486
63.7682
1.28294
604.753
61.6234
0.683681
604.9
59.6725
0.493822
605.049
57.7806
0.937738
605.345
56.6004
1.70116
605.459
54.8393
1.81078
605.496
53.8554
1.47712
605.478
53.1668
1.15501
605.417
51.8989
1.34297
50.9981
2.07081
-292.921
127.593
-1.73155
-292.825
145.674
-1.66649
-71.8978
156.011
-0.28604
-72.1431
-72.55
-72.8057
0.369252
-17.0499
26.4478
-0.31879
-18.0965
-17.863
-18.0383
-17.9612
0.126664
-3.53844
37.5382
4.75616
-0.0751594
609.747
170.647
3.68138
-150.819
-150.438
-151.916
-151.84
611.384
162.247
-0.99171
611.802
156.123
-1.28674
612.752
149.818
2.37968
613.018
142.402
5.10939
612.891
135.63
3.35263
612.971
128.373
-0.784457
612.418
122.074
-1.50729
611.477
117.219
1.35949
610.719
112.773
3.39352
105.259
3.37345
-279.723
194.226
-1.1378
-265.811
237.136
-1.72313
-65.0548
260.203
-1.86445
-53.7413
-65.8717
-54.3688
-47.3513
0.642629
-61.2732
62.5611
-0.431055
0.162942
7.81584
-6.94575
34.332
-0.0875674
0.274675
3.45136
-2.45816
36.6471
-0.276513
0.221117
-0.107448
0.90553
36.8375
-0.224542
0.16377
-3.62796
4.82504
37.1421
-0.169624
-7.71177
-11.6885
-0.696325
121.439
130.558
0.501837
-14.1455
-7.67985
-14.1071
-16.9537
-11.9291
-17.0439
568.704
330.457
-15.7007
-135.743
-120.019
-136.864
-121.852
586.04
285.377
0.666388
595.465
260.148
12.1128
601.953
239.429
10.5984
608.285
224.286
1.30836
610.079
209.65
-5.90918
611.968
197.748
-2.59048
614.441
187.746
5.25984
614.666
177.543
9.36879
614.806
169.677
5.29989
155.462
2.37411
-240.852
241.406
-0.481569
-209.617
295.665
0.765412
-178.592
325.581
-0.0483008
-130.812
484.425
-1.69236
-89.3535
-116.141
-89.9472
-117.618
-67.7855
591.571
-3.88355
-145.391
-146.758
-147.102
-148.458
1.71827
596.227
-3.98795
-147.755
-149.033
-149.389
-150.775
68.8426
598.793
-2.98084
-148.788
-149.289
-150.554
-151.081
178.466
604.565
0.538705
-150.134
-150.98
-151.942
-152.821
312.475
571.926
-15.7493
-138.928
-127.079
-141.383
-128.052
459.387
473.084
-4.35771
523.499
386.294
33.0595
548.745
337.925
13.1366
563.285
308.876
-9.38876
573.947
288.039
-13.6123
586.026
276.461
-3.53617
596.556
260.66
11.5481
601.86
247.223
15.5742
604.39
232.174
7.62854
606.504
219.708
-1.59006
201.859
0.279903
-194.623
274.736
-0.943847
-160.639
329.47
-1.83998
-166.149
367.652
2.99819
-136.005
518.724
-2.75473
-65.9321
594.963
-2.84821
1.83257
595.162
-3.90795
66.173
597.899
-2.71574
166.554
603.478
-4.3774
275.965
583.487
-3.60811
371.786
531.474
30.3495
454.402
468.965
18.5057
495.672
408.663
-30.3549
511.617
365.172
-25.8755
535.385
342.248
-0.338949
556.057
333.319
18.6702
567.667
314.955
22.6388
579.134
298.298
9.69026
586.343
276.925
-6.36416
592.357
267.045
-3.75253
246.614
4.361
-162.546
296.08
1.56631
-130.277
352.838
2.92398
-154.338
405.73
-0.687166
-132.354
535.081
-4.03763
-64.4003
597.676
-2.38162
1.36993
594.179
-4.07683
63.4547
597.737
-3.15903
156.721
602.655
-5.18095
254.799
589.876
9.4099
330.857
553.348
13.375
400.789
511.063
-28.9841
448.732
461.032
-37.9976
476.994
413.719
3.78436
496.507
378.427
31.6944
519.529
368.014
29.5218
536.366
353.443
10.8706
548.58
337.472
-10.2175
557.739
319.967
-9.7227
571.464
311.565
6.27088
287.921
12.4354
-140.694
309.274
1.57566
-119.719
370.988
2.27402
-153.709
441.808
2.66248
-128.95
546.265
1.27724
-61.9375
599.749
-2.17773
0.834076
593.255
-4.33215
60.9376
597.765
-3.33491
149.251
602.731
-1.37786
235.382
594.112
8.79086
307.897
564.374
-8.73593
365.985
522.996
-24.6572
408.751
491.108
6.43746
437.072
448.174
42.3111
463.898
404.237
36.721
490.175
387.641
6.6045
502.417
375.936
-13.8313
515.223
369.263
-12.6345
535.535
358.194
7.14955
550.013
350.151
21.6018
325.021
15.9985
-121.16
320.198
0.856706
-108.935
387.44
1.30603
-150.326
469.598
2.1805
-123.286
553.7
0.085972
-59.0943
601.422
-1.89994
0.476016
592.218
-4.23569
58.6085
597.533
-2.81604
141.151
602.918
1.74919
220.283
598.204
-0.802822
285.356
571.489
-14.8492
344.272
540.33
-0.909668
380.843
509.205
33.818
399.408
477.598
38.5639
423.768
434.262
10.882
449.336
408.263
-16.2713
465.104
396.335
-12.6904
485.163
395.039
7.01279
505.522
387.556
29.7945
519.384
380.397
26.111
353.521
12.7239
-110.299
332.065
4.63731
-105.276
403.809
4.98416
-145.68
490.016
7.52892
-117.294
558.376
1.49052
-56.2704
602.709
-3.23818
0.387633
590.952
-3.66101
57.3241
597.341
-2.09345
133.855
603.309
-0.0110358
204.598
598.666
-9.01328
270.676
578.858
-6.08015
330.297
555.591
18.4145
369.946
526.237
33.1375
388.739
499.955
12.3721
407.041
459.482
-13.6753
430.39
435.014
-12.8485
453.112
422.138
8.87283
470.844
418.025
31.4082
479.929
409.953
33.5582
492.034
401.204
16.2786
378.24
7.77028
-102.135
341.49
8.26612
-100.521
415.821
7.96523
-138.966
502.546
4.49834
-109.977
560.753
1.66181
-53.6282
602.983
-4.04071
0.17764
589.523
-3.38309
55.4617
597.272
-1.85784
126.585
603.971
-4.11465
192.111
600.103
-6.12138
253.954
586.711
8.56761
310.974
563.586
22.0509
353.999
537.934
13.8002
377.473
509.503
-8.26065
397.421
471.735
-9.31932
420.304
457.507
10.5845
444.385
449.151
34.1886
460.612
439.482
38.759
469.176
426.689
21.8347
472.586
417.995
3.60325
402.18
5.52177
-91.6859
344.085
9.4481
-89.0927
418.709
10.9034
-128.474
506.817
4.94825
-102.04
561.535
1.86781
-51.254
601.716
-2.73851
-0.165258
587.941
-2.85786
54.002
597.252
-1.8615
120.076
603.34
-4.77141
182.604
602.44
1.56754
240.978
591.125
12.4158
293.872
572.423
8.74369
335.56
547.749
-8.56148
367.533
519.617
-8.91375
393.446
488.693
10.5577
415.033
471.133
34.1014
432.46
461.698
39.283
450.824
455.015
25.1958
457.968
439.865
2.19059
461.237
432.786
2.4371
420.087
13.5717
-82.8577
343.009
7.84773
-77.6184
414.547
10.2334
-112.215
503.563
5.57687
-93.3093
559.895
2.80864
-49.8577
598.937
-1.43088
0.0589609
586.431
-2.5428
53.2596
597.221
-1.96798
115.404
602.067
-1.98588
172.905
602.867
5.57836
226.627
593.216
4.6738
272.325
578.414
-7.32287
316.34
555.294
-8.8898
353.533
535.369
8.98981
382.041
505.218
31.8689
404.759
477.412
36.375
421.801
464.896
23.1093
436.677
456.335
3.86733
445.72
445.469
-1.27889
457.553
446.242
13.289
437.459
26.3246
-72.3848
340.728
7.84271
-58.3961
402.623
11.0251
-93.3014
493.712
7.47293
-83.5945
556.121
4.90305
-48.0065
594.784
-0.358337
0.812337
585.193
-2.42862
51.7074
596.931
-1.8646
110.642
600.989
0.0818624
165.264
603.355
1.83673
214.669
595.365
-3.86527
261.604
583.826
-5.09533
305.426
566.133
5.30906
343.343
546.384
20.9323
374.103
516.192
27.5597
395.442
488.589
19.5043
413.314
467.525
6.32037
429.676
455.824
3.30558
441.981
452.222
13.5993
454.535
455.135
32.2681
447.184
30.8905
-65.7859
5.87592
-42.6508
8.41811
-49.1939
7.74552
-52.7663
8.31198
-38.9983
2.75141
4.10645
-0.953409
50.3416
-1.17259
102.944
0.408854
151.788
-0.338294
197.464
-2.16152
241.436
2.05171
281.853
10.0862
318.797
14.8719
347.948
13.5072
372.262
9.48499
396.541
7.07073
414.748
12.885
429.839
24.6184
443.648
29.7972
26.9414
-98.2073
-97.5638
7.3406
-104.511
-143.119
10.1876
-149.857
-238.286
11.5753
-118.386
-289.23
2.96149
-53.937
-294.721
-0.336559
0.278718
-296.077
-0.502558
56.7091
-292.871
-0.872443
128.868
-298.562
-1.34936
195.515
-284.605
0.730477
243.182
-245.788
1.77353
276.622
-199.439
1.30544
299.281
-164.946
4.90759
313.369
-143.515
5.12269
323.939
-122.93
4.09626
335.467
-110.567
7.67147
345.438
-102.304
11.3049
348.797
-91.4242
11.1457
348.118
-82.6491
8.74336
345.472
-73.0487
8.24261
-66.2529
5.58193
-140.955
-101.599
10.4298
-221.397
-218.628
24.4444
-204.025
-244.559
2.94089
-139.886
-285.403
0.371808
-58.6551
-293.624
-0.839167
1.15621
-297.148
-0.249455
61.3592
-293.627
-0.627033
146.734
-298.577
-1.6366
238.654
-271.525
0.23781
299.3
-212.925
4.34488
334.118
-168.335
1.52781
359.268
-134.547
7.61048
379.113
-118.975
7.95127
395.151
-107.206
6.62819
412.284
-104.765
9.83023
426.764
-102.37
12.4625
431.028
-91.0331
14.06
427.691
-79.6367
12.013
417.233
-60.9362
12.5427
-43.8805
9.58869
-238.642
-145.761
13.6919
-246.15
-205.382
3.42867
-229.539
-231.726
-3.52261
-149.35
-67.0195
7.88746
-68.2173
-67.0257
-68.4386
-63.0734
-73.8866
-0.323245
-73.8585
-73.9562
-74.0201
-0.0935284
-74.1876
-0.356258
-73.7012
-74.5402
-74.0951
66.1012
-72.895
-0.956504
-73.1782
-73.1794
-73.4244
157.685
-73.3791
-0.40148
-73.7042
-73.6315
-73.7534
261.198
-67.2945
-1.4522
-56.3833
-66.4941
-55.695
332.21
-178.886
3.29996
381.891
-168.788
8.73691
422.399
-165.175
2.96634
455.615
-156.913
7.30483
483.521
-151.175
6.42495
507.99
-148.569
10.3246
524.434
-143.313
7.27376
530.438
-134.709
7.37064
527.84
-119.83
7.60499
518.481
-101.953
9.24156
-54.7463
9.18342
-287.435
-117.545
4.65217
-283.922
-143.124
-0.401076
-65.7654
-152.864
3.79555
-67.1704
-66.3834
-67.5337
0.514763
-58.3484
-59.6981
-0.710308
-0.111316
-25.5657
0.630037
45.0369
-18.3442
-19.0173
-18.2956
-19.062
0.285218
16.8636
-7.73203
-0.296453
-18.4491
-18.6083
-18.4193
-18.6457
0.515888
0.0265573
7.80586
-0.526509
-18.3315
-18.0659
-18.2838
-18.1175
0.139991
-17.4459
26.9116
-0.0571141
-18.5713
-18.1793
-18.5171
-18.235
-48.6692
-0.553887
62.4811
-63.7786
0.943381
499.501
-130.742
0.241111
-90.7359
-116.856
-92.5874
-122.801
540.053
-136.817
5.24704
557.521
-136.921
3.76728
567.888
-131.123
6.78111
576.951
-124.891
4.79702
584.463
-120.134
5.2693
588.391
-113.763
5.09444
589.597
-106.028
5.16538
588.095
-97.5885
5.35788
584.577
-89.0396
7.04283
-58.7547
10.2528
-294.554
-55.6313
0.205627
-292.518
-60.457
-0.86906
-72.3132
-65.2299
-0.0768954
-72.9961
-72.9361
-73.58
-0.134976
-26.7524
-0.189767
45.2446
-17.645
-17.411
-17.5637
-17.4803
-0.318384
5.91626
32.0226
-7.58829
0.186071
614.79
-68.7232
3.6278
-149.92
-151.753
-153.713
-154.714
619.519
-67.0003
3.60575
623.468
-64.5844
3.78478
626.088
-62.9338
3.85713
628.122
-60.5133
4.35454
629.787
-57.8804
3.61411
630.784
-55.2458
1.90469
630.32
-52.6612
1.83079
628.113
-51.2656
2.44447
624.554
-49.9531
3.05749
-43.3625
5.46375
-295.978
-1.29063
-0.369547
-296.184
-0.00530442
-0.582851
-74.0561
-0.419566
-0.930782
-73.1484
-74.1681
-73.3225
0.233079
17.4086
-7.84793
-0.0987905
-18.5953
-18.5828
-18.5497
-18.6168
-0.0597121
3.46775
37.7528
-2.47998
0.0932501
619.543
0.729361
2.08896
-152.436
-153.936
-155.359
-156.763
619.683
0.579663
2.04822
619.686
0.535603
2.19418
619.611
-0.0384125
1.99073
619.321
-0.427823
1.71899
618.652
-0.401589
1.88741
617.629
-0.589577
2.0451
616.311
-0.736563
2.30795
614.833
-0.639427
2.48966
613.804
-0.0216415
2.35086
2.56461
3.30335
-292.926
55.1425
-0.287339
-293.551
59.9254
-0.0283173
-72.8783
65.2744
-0.122683
-73.1584
-73.1279
-73.4276
0.407985
0.0258978
7.76789
-0.263836
-18.3189
-18.0391
-18.2746
-18.0709
-0.0717882
-0.0743799
38.0508
0.867323
0.106091
622.233
66.5829
3.0434
-153.708
-153.945
-156.537
-156.808
622.925
64.7716
3.61942
623.542
62.2984
3.18934
624.116
60.2082
2.57602
624.576
57.9519
2.53741
625.096
57.056
3.14729
625.445
55.7704
3.52571
625.584
54.0296
3.22839
625.509
53.58
2.61523
625.427
52.3887
2.37169
51.0756
2.90538
-298.462
127.93
-0.567623
-298.313
145.564
-0.440022
-73.2717
156.645
0.648422
-73.6392
-73.595
-74.0654
0.214657
-17.3068
26.691
-0.0628523
-18.5681
-18.1571
-18.4913
-18.2024
-0.111214
-3.55585
38.2618
4.77088
0.14885
627.431
173.263
6.32918
-154.361
-154.11
-157.286
-157.245
630.213
163.677
2.46581
630.718
156.297
0.177302
631.599
150.739
2.38997
633.205
144.099
6.37018
633.805
136.689
6.47222
633.436
129.866
2.82116
632.518
123.117
-0.181904
631.698
118.125
1.29293
631.218
114.217
3.95142
106.89
4.61111
-285.137
194.92
0.510975
-272.105
236.794
0.272389
-67.1729
257.813
0.844699
-56.5189
-67.5834
-56.801
-48.3703
0.742634
-63.3906
61.9948
0.127899
0.0729781
5.94208
-7.6146
31.7399
-0.0451574
0.230025
3.42106
-2.42774
37.547
-0.205661
0.168713
-0.127289
0.922012
37.8158
-0.144243
0.122259
-3.6301
4.82454
38.1332
-0.099029
-10.2527
-8.66971
-0.0945948
130.827
127.975
-0.29238
-15.4639
-10.3482
-15.5252
-15.6363
-8.83025
-15.794
587.207
329.049
-9.58262
-141.727
-127.811
-142.68
-127.084
601.983
281.255
-2.2031
615.016
261.986
12.1258
622.321
243.072
15.5681
627.812
226.627
8.56275
628.779
211.526
-1.26781
629.618
198.323
-2.66673
633.483
189.941
3.43055
636.14
179.98
10.0899
636.603
172.671
7.95838
158.59
4.73652
-246.671
243.268
2.07131
-213.734
297.525
3.78402
-181.759
328.315
0.460066
-128.896
491.22
0.273
-89.8337
-115.461
-90.1894
-116.918
-67.0249
608.328
-1.82003
-148.442
-150.491
-150.508
-152.639
1.78869
613.69
-2.49447
-151.329
-152.847
-153.44
-154.968
68.5829
616.66
-1.72935
-152.631
-153.084
-154.74
-155.235
178.336
622.614
2.25238
-153.868
-154.694
-156.049
-156.495
325.064
583.248
-12.1196
-140.255
-125.913
-144.191
-130.301
473.325
473.693
-19.2046
543.93
388.777
32.4414
570.096
342.306
27.3016
584.35
313.418
3.16467
592.849
289.699
-9.2562
601.291
276.394
-6.07766
614.084
264.015
7.45775
623.495
251.123
17.3914
626.478
236.1
13.9457
627.127
223.659
3.17395
205.041
1.84189
-201.418
276.901
0.277015
-170.77
332.289
1.37177
-171.218
377.228
7.68753
-136.449
533.491
0.070438
-65.4506
613.393
-1.51243
1.94898
613.73
-2.59006
66.6975
616.905
-1.05107
167.08
623.666
-1.77719
276.989
596.65
-6.96112
381.979
540.818
29.1979
466.827
468.769
38.6657
513.775
410.118
-10.8161
527.5
366.933
-24.0299
547.997
342.445
-7.1085
573.389
336.796
13.6417
588.713
320.659
25.9747
599.035
303.223
19.7269
605.187
280.873
1.15545
610.022
268.948
-3.56717
250.59
3.39473
-167.497
299.409
2.28609
-137.748
357.108
3.47234
-167.054
417.936
2.6992
-136.843
552.094
-2.39369
-63.4763
617.455
-1.24966
1.76908
613.58
-2.55323
63.9926
617.434
-1.43016
157.773
623.339
-4.25136
259.586
608.944
6.38047
338.997
567.98
21.0449
406.891
516.475
-12.0987
452.844
457.213
-38.9572
488.016
415.019
-11.6334
516.035
387.661
29.6301
536.526
376.168
36.5627
553.657
358.803
24.4798
566.009
342.057
-0.907584
572.655
320.795
-9.59435
587.156
315.185
2.52702
293.334
11.8923
-145.91
312.826
3.42339
-122.445
377.322
4.04881
-160.854
452.338
2.97914
-131.81
562.748
2.05582
-61.56
620.073
-1.48331
1.2592
613.328
-2.74645
61.5961
618.027
-1.99534
151.312
623.785
-1.97116
241.127
615.997
10.0527
313.072
582.016
-0.61126
366.303
529.959
-24.7501
412.255
493.803
-10.4046
458.354
462.957
41.1317
484.242
421.151
49.4783
507.01
396.211
26.4072
521.233
378.994
-3.15121
529.805
370.53
-11.6374
548.204
360.661
2.0227
567.531
356.16
20.797
332.049
18.9037
-125.048
322.703
2.06254
-110.79
394.396
2.69273
-154.561
480.266
-0.0565647
-125.365
571.289
0.556532
-59.2571
621.952
-1.04741
0.891863
612.938
-2.88873
59.3164
618.082
-1.95071
144.169
625.386
2.07539
224.697
620.843
3.64648
288.7
588.619
-13.3045
343.585
548.398
-9.18782
390.539
522.267
31.7303
419.42
489.967
48.8507
444.251
450.861
30.5267
466.972
416.409
-6.33683
477.132
395.915
-12.2779
496.908
395.89
2.85213
522.531
391.28
28.9698
536.87
386.572
30.0578
360.87
15.9349
-112.567
334.175
4.32809
-108.025
411.7
5.35813
-150.456
504.061
5.64097
-119.949
578.119
0.993099
-56.6681
623.426
-1.89334
0.732658
612.192
-2.6591
58.0788
618.127
-1.34833
136.515
626.204
2.13375
208.909
620.517
-6.03958
272.982
594.862
-10.6363
334.611
571.33
11.1575
379.494
539.759
34.9374
401.029
513.02
27.6844
416.492
475.632
-5.01569
435.139