/*--------------------------------*- C++ -*----------------------------------*\
  =========                 |
  \\      /  F ield         | OpenFOAM: The Open Source CFD Toolbox
   \\    /   O peration     | Website:  https://openfoam.org
    \\  /    A nd           | Version:  9
     \\/     M anipulation  |
\*---------------------------------------------------------------------------*/
FoamFile
{
    format      ascii;
    class       volScalarField;
    location    "0.0085";
    object      rho;
}
// * * * * * * * * * * * * * * * * * * * * * * * * * * * * * * * * * * * * * //

dimensions      [1 -3 0 0 0 0 0];

internalField   nonuniform List<scalar> 
9720
(
2.83411
2.48663
1.83895
1.2789
1.24803
1.36298
1.36164
1.20163
0.978224
0.793832
0.651384
0.5537
0.522483
0.530159
0.553138
0.599686
0.677804
0.791584
0.915253
1.14582
2.47778
1.7586
0.900865
0.782733
1.12891
1.32568
1.32364
1.11951
0.773667
0.505737
0.364934
0.306998
0.311143
0.331371
0.36818
0.424091
0.504143
0.616007
0.741709
0.981356
1.86183
0.9016
0.690482
0.6466
1.10703
1.3203
1.31726
1.08726
0.621069
0.320224
0.234351
0.240174
0.256702
0.286645
0.324952
0.372036
0.434552
0.519723
0.624909
0.861209
1.28255
0.773815
0.641742
0.525737
0.868769
1.30444
1.37774
1.20969
0.58361
0.152983
0.163685
0.185933
0.212223
0.238261
0.262919
0.288854
0.317541
0.353358
0.398159
0.5686
1.22051
1.09133
1.07106
0.868536
0.128449
0.240403
0.255752
0.26852
0.2787
0.286828
0.293495
0.301014
0.311129
0.326936
0.346657
0.425275
1.32052
1.28527
1.28117
1.26612
0.319874
0.330547
0.325475
0.321583
0.318313
0.318351
0.319429
0.322001
0.325988
0.331665
0.336684
0.361084
1.31717
1.28291
1.27837
1.34284
0.349054
0.331888
0.327545
0.323767
0.321099
0.319147
0.317844
0.318017
0.319017
0.321821
0.324961
0.337858
1.15951
1.0796
1.04804
1.17166
0.297465
0.23064
0.2413
0.248799
0.254508
0.258714
0.261979
0.26622
0.272316
0.279111
0.285089
0.299231
0.94003
0.73832
0.585575
0.524627
0.128952
0.301975
0.329093
0.277544
0.0324101
0.0579715
0.0937244
0.127693
0.153819
0.174227
0.191739
0.206035
0.218866
0.231141
0.240888
0.260528
0.761493
0.481378
0.302372
0.145902
0.228153
0.313096
0.312846
0.219019
0.0613493
0.0220081
0.029842
0.0482986
0.0743869
0.101514
0.126777
0.149614
0.167061
0.183859
0.198906
0.224422
0.622414
0.347367
0.227738
0.158015
0.242991
0.307689
0.30849
0.229879
0.0973372
0.0309835
0.0180436
0.0213726
0.0335722
0.0533862
0.0763035
0.0982128
0.118377
0.140318
0.159263
0.189265
0.532806
0.296432
0.233306
0.181126
0.25554
0.303429
0.304988
0.237947
0.130464
0.0509169
0.0219394
0.0201486
0.022119
0.0292672
0.0414557
0.0588377
0.0803058
0.103831
0.123819
0.155467
0.504872
0.302157
0.249031
0.205783
0.264924
0.301195
0.303154
0.243986
0.155253
0.077669
0.0353237
0.0227309
0.0216714
0.0224671
0.0272054
0.0387396
0.0556192
0.0755211
0.0937178
0.125071
0.512299
0.323089
0.27905
0.230313
0.272611
0.301746
0.301768
0.248563
0.174343
0.105224
0.0562049
0.0310683
0.0228701
0.0229856
0.0247438
0.0302067
0.0405155
0.0550822
0.07029
0.10002
0.533712
0.358172
0.318143
0.254683
0.279579
0.303622
0.301911
0.25236
0.191516
0.13065
0.0800031
0.0445742
0.0288007
0.0253468
0.0256035
0.0268491
0.0310687
0.040189
0.0525452
0.0798956
0.577669
0.409934
0.363548
0.280829
0.287722
0.306905
0.302842
0.257291
0.205549
0.152692
0.102228
0.0629487
0.0418408
0.0325076
0.0279098
0.0273841
0.028619
0.0329773
0.0419116
0.0650435
0.653076
0.483972
0.421367
0.308496
0.298654
0.311698
0.304824
0.264149
0.217827
0.169412
0.122405
0.0848103
0.0600013
0.0445706
0.0342037
0.0296147
0.0299504
0.0332289
0.0379894
0.053974
0.764733
0.589208
0.498372
0.343086
0.315118
0.318249
0.308527
0.271411
0.229665
0.185793
0.144064
0.108426
0.080972
0.0607823
0.0454947
0.0361889
0.0341579
0.0355013
0.0382044
0.0480246
0.887542
0.713078
0.596347
0.385952
0.334996
0.324212
0.312737
0.277863
0.238978
0.200279
0.162414
0.12841
0.0997589
0.0768413
0.0588461
0.0467589
0.0410276
0.0392661
0.0401553
0.0483447
1.11547
0.950148
0.826539
0.549129
0.41338
0.351109
0.328524
0.293522
0.258562
0.225069
0.191743
0.160126
0.13136
0.106909
0.0864225
0.0710708
0.0604032
0.0525428
0.0511068
0.0557598
2.80606
2.45883
1.74116
1.22603
1.23401
1.36605
1.36365
1.20068
0.970197
0.779723
0.637921
0.538956
0.505846
0.513822
0.53649
0.580688
0.65527
0.76548
0.888123
1.12359
2.45473
1.61041
0.838044
0.761232
1.14515
1.33676
1.33013
1.12131
0.767193
0.490679
0.350557
0.293242
0.297624
0.317921
0.35264
0.404438
0.479723
0.586356
0.707899
0.948422
1.77314
0.833417
0.66995
0.634715
1.13084
1.33295
1.32422
1.08741
0.611156
0.30645
0.219529
0.226836
0.244631
0.274187
0.309256
0.351977
0.409319
0.489359
0.589426
0.821477
1.22945
0.746186
0.616749
0.508812
0.929384
1.30553
1.37985
1.2094
0.588069
0.147071
0.156583
0.176863
0.201741
0.226846
0.2503
0.273776
0.300018
0.332659
0.372989
0.530838
1.19966
1.08725
1.06022
0.83751
0.128134
0.234097
0.249074
0.261183
0.270705
0.277726
0.283196
0.289701
0.298491
0.312374
0.329752
0.400086
1.31443
1.28594
1.28295
1.26449
0.31425
0.323377
0.318515
0.314471
0.311186
0.309234
0.309746
0.311625
0.314804
0.319555
0.323962
0.344452
1.31118
1.2835
1.28076
1.3397
0.343024
0.324755
0.320291
0.316249
0.313312
0.310555
0.307543
0.307259
0.307898
0.310099
0.312939
0.323884
1.15459
1.08098
1.05025
1.17213
0.292347
0.22446
0.235372
0.243255
0.248039
0.250661
0.252623
0.256379
0.262736
0.269261
0.273895
0.285765
0.932541
0.735484
0.581086
0.537719
0.126726
0.302128
0.32931
0.275991
0.0326391
0.0556574
0.0905028
0.122815
0.147311
0.166475
0.184655
0.199588
0.21089
0.220466
0.228494
0.247373
0.747064
0.468962
0.291684
0.142499
0.227451
0.313437
0.313174
0.217733
0.0595796
0.02067
0.027817
0.0445584
0.0690204
0.0966064
0.122132
0.143223
0.158144
0.172152
0.187005
0.213149
0.607833
0.333721
0.212668
0.152801
0.242407
0.308354
0.308875
0.228911
0.095128
0.029043
0.0160417
0.0192941
0.0314405
0.0507267
0.0722287
0.0917357
0.109105
0.130008
0.149521
0.178774
0.515541
0.281258
0.219743
0.173855
0.254369
0.304193
0.305104
0.237341
0.127154
0.0474799
0.0198
0.018145
0.0202447
0.0267239
0.0373842
0.0522148
0.0719775
0.0955027
0.115138
0.144621
0.48474
0.286731
0.237276
0.197775
0.263074
0.301077
0.302761
0.242555
0.150812
0.0728601
0.0329782
0.0207043
0.0186296
0.0191163
0.0227794
0.0332032
0.0495555
0.0689836
0.0856923
0.113872
0.492682
0.307215
0.267161
0.221726
0.269709
0.299864
0.300496
0.245402
0.168927
0.10087
0.0534395
0.0282947
0.0194766
0.0194261
0.0215116
0.027211
0.0369532
0.0501577
0.0631363
0.0895316
0.515001
0.340703
0.302584
0.244843
0.275298
0.300546
0.298391
0.247849
0.186663
0.126795
0.0759633
0.0401591
0.024198
0.0219578
0.0228241
0.0246356
0.0286235
0.0362341
0.046351
0.0709002
0.558052
0.389482
0.343298
0.268048
0.282069
0.302561
0.298539
0.2523
0.201513
0.147454
0.0958975
0.0559928
0.0359191
0.0289262
0.0254779
0.0249944
0.0258066
0.0290754
0.0367299
0.0578664
0.630367
0.460108
0.396273
0.293404
0.29099
0.305952
0.299608
0.259166
0.21254
0.161981
0.113574
0.076385
0.0535287
0.0401931
0.0309358
0.0264796
0.0265738
0.0291738
0.0335349
0.04856
0.737831
0.561453
0.469467
0.324617
0.304711
0.311051
0.302167
0.26579
0.222124
0.176238
0.134805
0.100397
0.0741293
0.0548844
0.0402741
0.0314596
0.0298639
0.0311408
0.0336569
0.0426599
0.857766
0.681148
0.563668
0.362645
0.321571
0.315998
0.305455
0.27076
0.23033
0.191092
0.154298
0.120478
0.091578
0.0688431
0.051553
0.0405552
0.0359581
0.0345165
0.0352075
0.0425771
1.08726
0.916952
0.790385
0.51341
0.39055
0.337922
0.318197
0.283805
0.249232
0.216886
0.183643
0.150827
0.120739
0.0963956
0.0772451
0.0633203
0.0538341
0.046731
0.044673
0.0487507
2.82686
2.48283
1.6634
1.1713
1.22612
1.3718
1.36384
1.19912
0.966576
0.771263
0.632085
0.531972
0.4937
0.501021
0.52339
0.566331
0.639732
0.749696
0.872913
1.11317
2.48507
1.4692
0.781904
0.746953
1.15209
1.33768
1.32819
1.11646
0.760426
0.478315
0.341111
0.284493
0.288375
0.307807
0.341658
0.390804
0.463298
0.567705
0.688717
0.934142
1.68194
0.765153
0.653174
0.633051
1.128
1.3311
1.32178
1.07898
0.598523
0.294118
0.208133
0.217657
0.238188
0.267956
0.301005
0.339429
0.392657
0.468303
0.565114
0.799665
1.15656
0.711003
0.599229
0.497732
0.939197
1.3045
1.38023
1.20625
0.566598
0.141858
0.151247
0.170013
0.194312
0.219597
0.243045
0.265584
0.290185
0.319976
0.355838
0.502208
1.17489
1.08291
1.05223
0.824294
0.118056
0.227186
0.241738
0.252369
0.261957
0.270113
0.276206
0.282328
0.29035
0.303338
0.319425
0.38343
1.30792
1.27658
1.2731
1.25915
0.305718
0.315966
0.310918
0.307287
0.304571
0.302823
0.303357
0.305428
0.309152
0.314659
0.319708
0.337586
1.30773
1.27764
1.27227
1.3329
0.334149
0.317431
0.312676
0.308866
0.306381
0.30435
0.301819
0.301751
0.302831
0.305528
0.308996
0.319453
1.15096
1.07823
1.04615
1.1663
0.283409
0.218895
0.229082
0.237311
0.242203
0.244776
0.247408
0.25175
0.258364
0.265415
0.270191
0.281528
0.928098
0.73664
0.586621
0.552592
0.11581
0.299656
0.326928
0.274896
0.0303059
0.0539219
0.0878529
0.118124
0.141918
0.160591
0.178855
0.19497
0.205766
0.215022
0.223366
0.242663
0.736122
0.461036
0.286206
0.135649
0.222443
0.310218
0.310538
0.213949
0.0551855
0.0189304
0.0258106
0.0416993
0.0644895
0.0914144
0.116834
0.136839
0.151707
0.166037
0.18127
0.208392
0.597723
0.322826
0.197997
0.144244
0.237069
0.305354
0.306145
0.225023
0.0900027
0.0265992
0.0145594
0.0175874
0.0288103
0.0468332
0.0668683
0.0858305
0.102909
0.123592
0.143641
0.173019
0.503319
0.270086
0.206842
0.162675
0.247432
0.3016
0.302518
0.233793
0.121072
0.0439418
0.0180318
0.0155407
0.017273
0.0232127
0.0337523
0.0476879
0.066161
0.0892913
0.108244
0.137549
0.466746
0.273974
0.227377
0.186549
0.25619
0.298788
0.300475
0.239074
0.14511
0.0680037
0.0302768
0.0176444
0.0158773
0.0166199
0.0198865
0.0291068
0.044548
0.0628517
0.0789415
0.10674
0.474409
0.292179
0.257612
0.211347
0.26386
0.297051
0.298868
0.242028
0.163595
0.0958125
0.0495985
0.0244568
0.016879
0.0169118
0.0189163
0.0242143
0.0330239
0.0452572
0.0576358
0.0829577
0.497367
0.324991
0.290797
0.234911
0.270262
0.297613
0.29699
0.245073
0.18184
0.122036
0.0709369
0.0362563
0.0208963
0.0192218
0.0203115
0.0223176
0.0260837
0.0331083
0.0419228
0.0649553
0.540138
0.372857
0.327921
0.25753
0.276749
0.299643
0.297144
0.249998
0.198226
0.142593
0.0909543
0.0513266
0.0311829
0.0254442
0.0228014
0.0228427
0.0237758
0.0264016
0.0328947
0.0525567
0.612221
0.443343
0.378409
0.282133
0.284865
0.303467
0.298502
0.257091
0.2097
0.157831
0.108867
0.0708453
0.0479324
0.0355292
0.0276555
0.0242819
0.0243029
0.0262519
0.03
0.0441934
0.719727
0.544749
0.449885
0.311273
0.297336
0.309174
0.301547
0.264459
0.219697
0.17291
0.130381
0.0949382
0.0677235
0.0491746
0.0361531
0.0283833
0.0268269
0.0277884
0.0299807
0.0386123
0.839767
0.664049
0.542943
0.345267
0.312545
0.314649
0.305425
0.269803
0.228537
0.188452
0.150804
0.115093
0.0851186
0.0629042
0.0465182
0.0363389
0.0321102
0.0307063
0.0313849
0.0381869
1.0736
0.905016
0.773928
0.485623
0.374833
0.333432
0.31709
0.282481
0.247989
0.215516
0.18115
0.146304
0.114952
0.0904924
0.0718114
0.058216
0.0489754
0.0423388
0.0398811
0.0434974
2.845
2.47888
1.57667
1.12416
1.22121
1.37495
1.36314
1.19426
0.957996
0.758025
0.62159
0.522076
0.479719
0.486968
0.510547
0.554547
0.627811
0.737561
0.861116
1.10356
2.48601
1.33251
0.749866
0.73946
1.15051
1.33675
1.32758
1.11237
0.752856
0.46716
0.327736
0.274488
0.277316
0.29556
0.329719
0.377982
0.449201
0.552677
0.672724
0.920028
1.58491
0.728618
0.643087
0.629361
1.11485
1.32966
1.3221
1.07577
0.591194
0.286386
0.193913
0.204755
0.229143
0.261098
0.294236
0.329067
0.378007
0.449261
0.542441
0.777528
1.08238
0.698878
0.605722
0.499481
0.894722
1.3068
1.38234
1.20497
0.529045
0.133991
0.143307
0.16107
0.185512
0.212212
0.23663
0.258483
0.281288
0.307656
0.338339
0.471246
1.15939
1.0888
1.05972
0.855946
0.13395
0.224318
0.239636
0.248994
0.25776
0.26651
0.27359
0.278926
0.284941
0.295182
0.308559
0.364568
1.30222
1.27127
1.26815
1.25056
0.301954
0.314274
0.309374
0.305813
0.303196
0.300694
0.300788
0.30207
0.304971
0.309834
0.314551
0.329168
1.30239
1.27179
1.26552
1.32511
0.330989
0.316501
0.312063
0.308089
0.305419
0.303677
0.301305
0.29986
0.300334
0.301954
0.304633
0.313348
1.14534
1.07164
1.03718
1.15884
0.280655
0.216357
0.22664
0.234655
0.239636
0.242549
0.245633
0.249734
0.255047
0.260978
0.265697
0.276192
0.923671
0.731729
0.577419
0.530644
0.11755
0.297323
0.32487
0.273643
0.0279738
0.0499943
0.0830558
0.112798
0.137236
0.156965
0.174532
0.190644
0.202021
0.211502
0.22001
0.237695
0.729734
0.453709
0.279079
0.130618
0.220389
0.309238
0.310519
0.213303
0.0540677
0.0174603
0.023539
0.038566
0.0605879
0.0862635
0.111222
0.13153
0.146877
0.162376
0.177209
0.202985
0.593148
0.315894
0.187897
0.139405
0.235524
0.30411
0.306215
0.224497
0.0890805
0.0250763
0.0134185
0.0162599
0.0262759
0.0428317
0.061592
0.0799865
0.0984038
0.119358
0.138325
0.16726
0.499648
0.26364
0.197404
0.1561
0.244442
0.300418
0.302588
0.233027
0.119651
0.0421211
0.0168024
0.013789
0.0152443
0.0202234
0.0300749
0.0443827
0.0626107
0.0846294
0.102663
0.13136
0.45521
0.266353
0.220628
0.179368
0.252484
0.297853
0.300411
0.238539
0.143331
0.0654272
0.0279481
0.0155971
0.0135081
0.0143081
0.0179066
0.0266482
0.0408384
0.0578767
0.0726398
0.100229
0.460587
0.281793
0.251192
0.204824
0.260776
0.295747
0.299206
0.241895
0.161775
0.0916709
0.0461389
0.0216017
0.0144901
0.014853
0.016988
0.0216931
0.0296661
0.0403791
0.0519726
0.0772957
0.481938
0.3126
0.283349
0.228375
0.267766
0.296035
0.297642
0.245282
0.178505
0.117484
0.0668738
0.0326606
0.018552
0.0171058
0.0181735
0.0204645
0.023967
0.030028
0.0384613
0.0606971
0.523364
0.357469
0.315656
0.249652
0.273481
0.297576
0.297207
0.249904
0.194754
0.138909
0.0864905
0.0479629
0.0279126
0.0222171
0.020669
0.0211325
0.0222842
0.0249911
0.0308624
0.0488767
0.593154
0.42475
0.360695
0.271675
0.279835
0.300857
0.297921
0.255673
0.207217
0.154539
0.105173
0.0667842
0.0428669
0.0309961
0.0247954
0.0225349
0.022828
0.0248563
0.0281708
0.0410317
0.698653
0.522696
0.426164
0.297737
0.289837
0.306146
0.30017
0.262071
0.217392
0.169816
0.125899
0.0893434
0.0612989
0.042933
0.0318445
0.0263133
0.0252492
0.0260443
0.0277248
0.0357329
0.818793
0.63876
0.512551
0.326442
0.302428
0.311418
0.303358
0.267227
0.226241
0.184423
0.145099
0.108778
0.0778665
0.0559714
0.0416379
0.033329
0.0296912
0.0282573
0.0287387
0.0346895
1.05848
0.883934
0.740585
0.449549
0.355651
0.326745
0.313045
0.279015
0.244322
0.210335
0.175231
0.139777
0.107833
0.0836638
0.0661953
0.0535276
0.0448302
0.0386483
0.036021
0.0392498
2.88587
2.48506
1.52473
1.09406
1.22007
1.37612
1.36479
1.1931
0.952377
0.748293
0.613009
0.517515
0.472734
0.479951
0.505337
0.55201
0.625852
0.735628
0.859928
1.10116
2.49681
1.25754
0.735435
0.736418
1.16016
1.34063
1.32991
1.11261
0.748162
0.459175
0.318497
0.268848
0.271512
0.287657
0.322118
0.37242
0.444982
0.548552
0.669761
0.915936
1.53341
0.70994
0.634096
0.63025
1.126
1.33491
1.32482
1.07661
0.585841
0.281618
0.185661
0.196527
0.223066
0.256279
0.29006
0.322347
0.368263
0.436905
0.528585
0.764217
1.05007
0.689393
0.59451
0.492702
0.903792
1.31095
1.38508
1.20828
0.541307
0.129228
0.138862
0.156174
0.18028
0.207622
0.232902
0.254648
0.276257
0.301127
0.328596
0.451371
1.15067
1.08356
1.05017
0.841946
0.115295
0.222092
0.237814
0.246742
0.255019
0.264268
0.272489
0.278604
0.284369
0.293379
0.304929
0.354639
1.29842
1.26926
1.26672
1.24899
0.30101
0.313975
0.308737
0.305188
0.302833
0.300361
0.30041
0.301619
0.304451
0.309122
0.313554
0.325588
1.2984
1.27013
1.26542
1.32251
0.330367
0.317177
0.312714
0.308752
0.305988
0.304153
0.302236
0.300565
0.30083
0.302115
0.304268
0.311284
1.14088
1.06808
1.03331
1.15687
0.28173
0.215852
0.226618
0.234579
0.239326
0.242258
0.245377
0.249567
0.254299
0.259682
0.264271
0.2738
0.917499
0.724957
0.566891
0.520375
0.116996
0.29782
0.326746
0.274638
0.0277414
0.0486102
0.0808782
0.111353
0.136019
0.155793
0.172701
0.188157
0.200717
0.211377
0.219561
0.235161
0.723497
0.447902
0.273312
0.126948
0.220824
0.310449
0.312709
0.21441
0.0539145
0.0168647
0.0231698
0.0380105
0.0593198
0.0838887
0.108077
0.13008
0.147482
0.162293
0.175301
0.199094
0.589575
0.311079
0.182678
0.136738
0.235699
0.304881
0.30845
0.225202
0.0882526
0.0247289
0.0130176
0.0156086
0.0246305
0.0404583
0.0604372
0.0805593
0.0987559
0.117885
0.135461
0.164347
0.497469
0.260479
0.192689
0.15354
0.244438
0.301321
0.30445
0.232844
0.118893
0.0416004
0.0161472
0.0129743
0.0144769
0.0202918
0.0308575
0.0451396
0.0621315
0.0822052
0.100786
0.130607
0.450203
0.263013
0.217258
0.176543
0.252159
0.298954
0.301768
0.238563
0.143047
0.0644935
0.0261961
0.0147881
0.013687
0.0144028
0.0177415
0.0258383
0.0386451
0.0559161
0.072677
0.100222
0.453981
0.27743
0.248167
0.2023
0.260658
0.296351
0.300528
0.243208
0.161845
0.0896225
0.043429
0.021331
0.0145736
0.0146069
0.0161025
0.0200755
0.0280098
0.0403834
0.0523418
0.0765741
0.473269
0.307075
0.28041
0.225951
0.267799
0.296343
0.299692
0.246966
0.177626
0.114053
0.0648497
0.0329893
0.0182871
0.0161924
0.0170817
0.0198266
0.0243422
0.0310184
0.0390518
0.059763
0.512665
0.349815
0.310969
0.246823
0.273012
0.297302
0.29868
0.250675
0.192214
0.136507
0.085966
0.0480628
0.0267531
0.020365
0.0199751
0.021142
0.0229697
0.0256668
0.0307028
0.0473369
0.580088
0.413892
0.352659
0.267391
0.278416
0.299917
0.298843
0.254936
0.20523
0.154206
0.104438
0.0654862
0.0400022
0.0288176
0.0249883
0.0232016
0.0233656
0.0247072
0.0274215
0.0398039
0.683565
0.50791
0.413835
0.291731
0.286995
0.304505
0.300132
0.260636
0.217048
0.169066
0.123644
0.0860623
0.058363
0.042107
0.0322931
0.0266122
0.0250456
0.0256039
0.0276555
0.036438
0.803547
0.619048
0.494004
0.317365
0.298052
0.309394
0.302415
0.266112
0.22606
0.182213
0.14136
0.105443
0.0761364
0.0549065
0.041024
0.0325523
0.0285524
0.0281652
0.0292026
0.0346016
1.04724
0.863295
0.713391
0.427726
0.345313
0.322679
0.31044
0.277187
0.242262
0.206175
0.171076
0.136772
0.105441
0.0807918
0.0634679
0.0509784
0.042757
0.0385426
0.0357037
0.037862
2.88706
2.48266
1.51263
1.08516
1.22118
1.3798
1.36656
1.19374
0.952453
0.74829
0.613546
0.518885
0.472126
0.478899
0.504867
0.553338
0.628838
0.739967
0.864556
1.10465
2.49823
1.25381
0.731485
0.732541
1.16481
1.34663
1.33194
1.11297
0.747395
0.459301
0.319536
0.270748
0.272748
0.286861
0.320203
0.371452
0.445763
0.551399
0.674747
0.92155
1.5379
0.706914
0.632327
0.62893
1.13463
1.34094
1.32651
1.0769
0.584236
0.281654
0.18739
0.198035
0.224664
0.257368
0.29037
0.322284
0.368346
0.437982
0.531793
0.771131
1.0508
0.688061
0.592268
0.487293
0.930585
1.31379
1.38506
1.21018
0.535298
0.128834
0.139001
0.156374
0.180804
0.20875
0.234289
0.255576
0.276708
0.301071
0.32879
0.454442
1.14702
1.07813
1.04218
0.81112
0.115677
0.222387
0.237427
0.246112
0.254377
0.263912
0.272103
0.2778
0.283171
0.291938
0.30345
0.353894
1.2969
1.26643
1.26295
1.25267
0.301719
0.314294
0.308497
0.304542
0.302148
0.299524
0.299332
0.300263
0.302784
0.307288
0.311757
0.32386
1.29641
1.26916
1.26462
1.32145
0.331679
0.317344
0.312593
0.307986
0.305099
0.303292
0.301471
0.299478
0.299554
0.300721
0.302975
0.310205
1.13867
1.06684
1.03284
1.1548
0.28207
0.216468
0.226874
0.234406
0.239405
0.243107
0.246151
0.249835
0.254489
0.259701
0.264377
0.274057
0.915426
0.725024
0.569698
0.53666
0.106727
0.298142
0.327653
0.276324
0.0275722
0.0498012
0.0822977
0.11274
0.137254
0.156786
0.173908
0.189252
0.201816
0.212523
0.220302
0.235507
0.721308
0.448041
0.274697
0.125901
0.21962
0.310507
0.312745
0.213631
0.0521611
0.0167247
0.0234246
0.0384794
0.0599497
0.0845884
0.109166
0.131332
0.148616
0.162805
0.175645
0.1997
0.588816
0.31088
0.182621
0.135621
0.235201
0.305523
0.308477
0.224755
0.086154
0.0244562
0.0129797
0.0156131
0.0246539
0.0407692
0.0610878
0.0812634
0.0991149
0.11802
0.135677
0.164705
0.497095
0.260239
0.192003
0.1527
0.24413
0.302076
0.304569
0.233386
0.117417
0.0411272
0.0160694
0.0128578
0.0144521
0.0203843
0.0310151
0.0451115
0.0618624
0.0819299
0.100727
0.130436
0.450141
0.262884
0.21632
0.175621
0.251987
0.299864
0.302249
0.238804
0.141678
0.0637335
0.0259735
0.0146611
0.0135616
0.0142342
0.0174635
0.0254484
0.0383918
0.0560051
0.0724182
0.099787
0.454047
0.277485
0.248009
0.201429
0.260528
0.297591
0.301126
0.242129
0.160334
0.0888823
0.0430099
0.0211275
0.0143742
0.0143634
0.0158609
0.0199753
0.0281068
0.0401332
0.051977
0.0761272
0.473619
0.307436
0.280958
0.225429
0.268186
0.29766
0.29975
0.245434
0.176904
0.113507
0.064106
0.0325232
0.0179526
0.0159589
0.016928
0.0195972
0.023825
0.0302493
0.0383674
0.0590562
0.512894
0.350034
0.311773
0.246766
0.274182
0.29879
0.298664
0.250079
0.192512
0.135431
0.0847585
0.047245
0.0263223
0.0204024
0.0198046
0.0206828
0.0221936
0.0247977
0.0298792
0.0467732
0.580001
0.413369
0.352864
0.267671
0.280074
0.301596
0.299118
0.255881
0.205114
0.15279
0.103287
0.0647469
0.0399972
0.029109
0.0245578
0.0224408
0.0226348
0.0241555
0.0271244
0.0397075
0.683199
0.506632
0.413098
0.292355
0.288815
0.306267
0.300774
0.261919
0.216124
0.16808
0.123134
0.0859487
0.0585113
0.0417888
0.0316663
0.0259096
0.0244943
0.0252492
0.0275269
0.0359624
0.802844
0.616944
0.492103
0.317909
0.299841
0.311153
0.303292
0.266521
0.225102
0.18199
0.141646
0.105474
0.07576
0.0545144
0.040638
0.0319597
0.0282278
0.0280106
0.0289083
0.0340337
1.04676
0.860104
0.707922
0.425701
0.346361
0.324175
0.311255
0.276696
0.241993
0.206741
0.171303
0.13635
0.104918
0.0805984
0.0632061
0.0505814
0.042684
0.0380681
0.0351017
0.0373943
2.84866
2.47667
1.55563
1.10926
1.22722
1.38209
1.3686
1.19677
0.956765
0.756547
0.621823
0.524695
0.479426
0.486286
0.511148
0.558319
0.634582
0.746792
0.871701
1.11255
2.49018
1.32224
0.742146
0.736677
1.16886
1.35039
1.33283
1.11454
0.749784
0.464702
0.327588
0.276548
0.27818
0.293812
0.327334
0.377743
0.452476
0.560051
0.683901
0.931718
1.58783
0.71649
0.634672
0.632358
1.13999
1.34502
1.3262
1.07726
0.586921
0.28493
0.193574
0.204844
0.229875
0.261425
0.29347
0.327709
0.377643
0.451714
0.549302
0.790298
1.08018
0.686036
0.588
0.490392
0.934658
1.31706
1.3861
1.21119
0.536283
0.13169
0.141653
0.160016
0.185212
0.21278
0.237457
0.25914
0.281902
0.308288
0.339682
0.477065
1.14867
1.07469
1.04208
0.813476
0.116995
0.221766
0.236978
0.246552
0.255805
0.265241
0.272711
0.278081
0.28407
0.294552
0.308285
0.36531
1.29508
1.26619
1.26332
1.25313
0.300751
0.31273
0.30758
0.304032
0.30154
0.298863
0.298863
0.300018
0.302988
0.308223
0.31329
0.328361
1.29537
1.26884
1.26472
1.3218
0.330107
0.315086
0.310778
0.306922
0.304317
0.302628
0.30046
0.299055
0.29956
0.301333
0.304214
0.313328
1.13836
1.06667
1.03295
1.15553
0.27977
0.215873
0.226254
0.2345
0.240055
0.243142
0.246032
0.249872
0.254954
0.261036
0.266064
0.276968
0.915688
0.723525
0.56667
0.51613
0.118472
0.29784
0.326665
0.275649
0.0272012
0.051344
0.0847305
0.114703
0.138818
0.158039
0.175164
0.191385
0.203297
0.212636
0.220934
0.238625
0.724246
0.449646
0.276166
0.129469
0.222029
0.310708
0.312395
0.213614
0.0516419
0.01703
0.0236311
0.0391056
0.0611059
0.0866794
0.11203
0.132919
0.148151
0.163147
0.177644
0.203568
0.590166
0.313968
0.186908
0.139288
0.236525
0.30533
0.30792
0.224486
0.0858611
0.0241254
0.0130545
0.0159143
0.0259934
0.0428573
0.0622858
0.081064
0.0992605
0.119542
0.138426
0.16779
0.496773
0.262037
0.197034
0.156957
0.245281
0.30141
0.303901
0.232736
0.116395
0.0404554
0.0162209
0.013415
0.0149842
0.0202372
0.030327
0.0445607
0.0622214
0.0840426
0.102375
0.131265
0.454247
0.265279
0.220656
0.180549
0.253277
0.298862
0.301408
0.238145
0.140706
0.0633102
0.0270084
0.0152054
0.0131694
0.0139091
0.0173471
0.0257564
0.0399472
0.0574625
0.0721986
0.0996902
0.460289
0.281771
0.251906
0.206237
0.26179
0.296796
0.300214
0.241632
0.159801
0.0895714
0.0447366
0.0210868
0.0140459
0.014331
0.0163241
0.0210907
0.0293571
0.0400809
0.0516019
0.0767181
0.481433
0.312788
0.285126
0.230147
0.269115
0.297063
0.298437
0.245085
0.177161
0.115188
0.0649361
0.031802
0.0178339
0.0164693
0.0176249
0.0200414
0.0235302
0.0294752
0.0377829
0.0597749
0.522015
0.356804
0.317463
0.251754
0.274966
0.298612
0.297794
0.249608
0.193603
0.136299
0.0844076
0.0466282
0.0268547
0.0217909
0.0203614
0.0206677
0.0215255
0.0240039
0.029643
0.0479793
0.591152
0.422549
0.361097
0.27379
0.281198
0.301831
0.298492
0.255456
0.205762
0.152292
0.103217
0.0652061
0.0420176
0.0309301
0.024628
0.0218804
0.0220365
0.023906
0.0275051
0.0406631
0.696643
0.519425
0.424676
0.299337
0.291061
0.307053
0.300528
0.262024
0.216219
0.168052
0.124437
0.0881871
0.0607095
0.0428043
0.0316874
0.0254273
0.0243833
0.025409
0.0275123
0.0352687
0.816916
0.634905
0.50872
0.32689
0.30338
0.312264
0.303642
0.267217
0.225272
0.18317
0.14415
0.107717
0.0769807
0.0556814
0.0411978
0.0323099
0.0290573
0.028012
0.0284509
0.0340168
1.05758
0.880036
0.733172
0.444849
0.354817
0.327
0.313096
0.278525
0.24357
0.209584
0.174529
0.138696
0.106772
0.0829509
0.0654372
0.0528441
0.0445433
0.0381848
0.0353631
0.0384769
2.8267
2.47629
1.64243
1.16538
1.2394
1.38603
1.37305
1.20392
0.965281
0.768596
0.63137
0.532021
0.492075
0.499275
0.522646
0.568772
0.645596
0.758001
0.882073
1.12103
2.48159
1.45297
0.778793
0.75219
1.17114
1.35457
1.33746
1.12149
0.757729
0.474526
0.338566
0.283442
0.2867
0.305175
0.339262
0.391179
0.467488
0.575904
0.699441
0.943998
1.67945
0.755085
0.650384
0.637829
1.14655
1.34859
1.33031
1.084
0.596198
0.29082
0.204869
0.214879
0.2365
0.266556
0.299319
0.338537
0.394095
0.473531
0.575118
0.814039
1.14794
0.700827
0.593223
0.497704
0.94104
1.31623
1.38823
1.2134
0.545677
0.137906
0.147272
0.166669
0.192175
0.218569
0.242598
0.265576
0.290432
0.320643
0.358051
0.511555
1.16313
1.07529
1.04768
0.817803
0.118634
0.223251
0.238122
0.249061
0.259344
0.26797
0.274286
0.280391
0.28854
0.301694
0.318139
0.383958
1.29768
1.2711
1.26869
1.25345
0.299334
0.312545
0.307913
0.304303
0.301554
0.29956
0.299992
0.301969
0.305719
0.31136
0.316416
0.334974
1.29878
1.27246
1.26873
1.32359
0.328465
0.314388
0.310196
0.306724
0.30446
0.302576
0.299906
0.29969
0.300637
0.303162
0.306461
0.317072
1.14328
1.07223
1.04004
1.15749
0.277999
0.215498
0.226417
0.235464
0.24102
0.243639
0.246143
0.250371
0.256958
0.264035
0.268762
0.280015
0.921239
0.729526
0.576196
0.542036
0.111261
0.300092
0.32803
0.275968
0.0298424
0.052368
0.0862392
0.116857
0.140691
0.159338
0.177838
0.194629
0.205854
0.214904
0.222932
0.241967
0.732328
0.458482
0.282564
0.133471
0.223467
0.312247
0.312729
0.215189
0.0546532
0.0184404
0.025203
0.0407684
0.0631178
0.0899409
0.1161
0.137018
0.15187
0.165732
0.180666
0.207953
0.594463
0.320397
0.196059
0.142841
0.237894
0.307079
0.308152
0.225839
0.0892982
0.0259653
0.01395
0.01685
0.0278943
0.0460574
0.0665415
0.0857162
0.102564
0.122852
0.143049
0.173008
0.500358
0.26701
0.204981
0.162182
0.24821
0.303167
0.304334
0.234368
0.120265
0.0427508
0.0172091
0.0150779
0.0169167
0.0229322
0.0333611
0.0469617
0.0650561
0.0882889
0.107787
0.137394
0.464804
0.271518
0.225756
0.186528
0.257139
0.300375
0.302171
0.239842
0.144045
0.0661696
0.0291044
0.017267
0.0153324
0.0160057
0.0189823
0.0278895
0.0434395
0.0622361
0.0784554
0.106057
0.472303
0.290188
0.256639
0.211569
0.265127
0.298491
0.300589
0.242681
0.162306
0.0936675
0.0483768
0.0240327
0.0162482
0.0162275
0.0182892
0.023768
0.0327898
0.0450385
0.0572448
0.0820128
0.494752
0.322532
0.290455
0.235208
0.271722
0.298968
0.298351
0.245265
0.180506
0.12017
0.06977
0.035507
0.0199478
0.0185687
0.0198222
0.0221182
0.0260081
0.0328708
0.0412641
0.0638793
0.53742
0.369415
0.326384
0.257637
0.277962
0.300762
0.298266
0.249774
0.197159
0.141099
0.0895881
0.0500006
0.0297775
0.0248771
0.0226674
0.0225505
0.0233397
0.0256799
0.031874
0.0517294
0.609723
0.438863
0.374798
0.281649
0.285572
0.304308
0.299315
0.256843
0.208645
0.156028
0.106902
0.0688023
0.0464334
0.0351281
0.0275903
0.0237795
0.0236315
0.0253842
0.029354
0.0438266
0.718513
0.53994
0.443705
0.309718
0.297252
0.309757
0.301941
0.264264
0.218211
0.170296
0.127719
0.0928505
0.0665745
0.0487529
0.0357814
0.027309
0.0258823
0.0270092
0.0294778
0.0381722
0.840084
0.660788
0.534691
0.341596
0.311551
0.315047
0.305525
0.269276
0.226592
0.185622
0.148399
0.11338
0.0838859
0.0620837
0.0454709
0.0348376
0.0311373
0.0300932
0.0307838
0.0374887
1.07608
0.90361
0.764642
0.474637
0.3705
0.332443
0.316485
0.281225
0.245962
0.213343
0.179431
0.144618
0.113154
0.0887742
0.0701821
0.0569503
0.048219
0.0415732
0.0390296
0.0425563
2.80249
2.45657
1.72408
1.23023
1.25085
1.38449
1.37358
1.2076
0.972049
0.77904
0.637927
0.538698
0.504261
0.512108
0.535778
0.582704
0.659709
0.771274
0.894268
1.12793
2.45084
1.59372
0.839367
0.778244
1.16898
1.35649
1.34049
1.12727
0.767546
0.488986
0.350489
0.293663
0.297332
0.316625
0.35114
0.404615
0.482118
0.591042
0.714047
0.953461
1.76734
0.820631
0.671088
0.647954
1.1511
1.35147
1.33513
1.09249
0.610438
0.304842
0.219156
0.226704
0.24465
0.273682
0.308199
0.351709
0.411064
0.494269
0.597779
0.831873
1.21808
0.731378
0.605912
0.506391
0.953364
1.32137
1.39299
1.21741
0.578128
0.145129
0.154565
0.175295
0.201065
0.226642
0.250148
0.273835
0.300057
0.33342
0.376138
0.542629
1.18911
1.07935
1.05613
0.826111
0.118267
0.230131
0.244897
0.25699
0.267112
0.274359
0.279885
0.286463
0.295467
0.309695
0.327767
0.401172
1.30233
1.27911
1.27911
1.25834
0.302703
0.319209
0.314422
0.310249
0.3068
0.304616
0.305038
0.306777
0.309871
0.314535
0.318762
0.340577
1.30299
1.27967
1.27775
1.33178
0.331187
0.320253
0.315911
0.312021
0.309223
0.306554
0.303587
0.303076
0.303662
0.305746
0.308432
0.319617
1.14827
1.07886
1.0494
1.16651
0.280366
0.221607
0.232384
0.240436
0.245309
0.247692
0.249551
0.253432
0.259987
0.266349
0.270712
0.282284
0.926199
0.734105
0.58309
0.531933
0.124296
0.300907
0.328379
0.276059
0.0307987
0.0558942
0.0904833
0.122058
0.145817
0.16477
0.183149
0.198313
0.209224
0.21815
0.225849
0.244582
0.740571
0.467012
0.291406
0.139415
0.225644
0.31315
0.313171
0.216699
0.0577711
0.0201951
0.0272675
0.0437244
0.0678917
0.0956025
0.121535
0.142291
0.15642