/*--------------------------------*- C++ -*----------------------------------*\
  =========                 |
  \\      /  F ield         | OpenFOAM: The Open Source CFD Toolbox
   \\    /   O peration     | Website:  https://openfoam.org
    \\  /    A nd           | Version:  9
     \\/     M anipulation  |
\*---------------------------------------------------------------------------*/
FoamFile
{
    format      ascii;
    class       volScalarField;
    location    "0.0085";
    object      rho.Air;
}
// * * * * * * * * * * * * * * * * * * * * * * * * * * * * * * * * * * * * * //

dimensions      [1 -3 0 0 0 0 0];

internalField   nonuniform List<scalar> 
9720
(
0.00273052
0.00236324
0.00175874
0.00123528
0.00120327
0.00132374
0.00132482
0.0011715
0.000976384
0.000746207
0.000528151
0.000372054
0.00027902
0.0002121
0.000152213
0.000139487
0.000144575
0.000161535
0.000194063
0.000305788
0.00234892
0.00171398
0.000945237
0.000822659
0.00113115
0.00132141
0.00131697
0.00112475
0.000777217
0.000384164
0.00018251
0.0001047
7.39071e-05
5.63929e-05
4.20077e-05
4.0333e-05
4.22592e-05
4.83026e-05
6.00324e-05
9.71808e-05
0.00177069
0.000940263
0.000740836
0.000701957
0.00113801
0.00134075
0.00132674
0.00110495
0.00055976
0.000124336
4.34771e-05
2.51531e-05
1.91845e-05
1.63638e-05
1.36676e-05
1.28191e-05
1.31466e-05
1.43417e-05
1.69456e-05
2.70807e-05
0.00124247
0.000809905
0.000682687
0.000437901
0.000735848
0.00111492
0.00118092
0.0010344
0.000446877
1.30265e-05
6.96221e-06
5.59737e-06
5.13355e-06
4.88126e-06
4.64333e-06
4.61986e-06
4.7065e-06
5.02045e-06
5.60873e-06
8.61668e-06
0.00119103
0.00111348
0.00112899
0.000735428
1.59536e-05
3.99646e-06
3.82536e-06
3.73036e-06
3.67805e-06
3.62331e-06
3.61904e-06
3.65515e-06
3.76114e-06
3.96618e-06
4.23466e-06
5.34936e-06
0.00129416
0.00129418
0.00133546
0.00106899
7.50139e-06
4.92475e-06
4.56664e-06
4.27452e-06
4.0609e-06
3.91874e-06
3.82497e-06
3.82941e-06
3.86441e-06
3.93191e-06
4.00331e-06
4.36888e-06
0.00129511
0.00129296
0.00133874
0.00113436
7.78553e-06
4.80184e-06
4.48419e-06
4.22338e-06
4.02411e-06
3.87849e-06
3.7804e-06
3.71228e-06
3.71253e-06
3.73499e-06
3.77472e-06
3.97873e-06
0.00114234
0.00110956
0.00110688
0.00098339
6.25181e-06
3.22645e-06
3.1862e-06
3.14673e-06
3.11532e-06
3.07796e-06
3.04806e-06
3.05286e-06
3.09074e-06
3.15922e-06
3.23378e-06
3.44083e-06
0.000950356
0.000757939
0.000537061
0.000385362
1.27222e-05
8.12213e-06
8.52932e-06
6.76122e-06
6.44671e-07
8.28179e-07
1.23078e-06
1.60421e-06
1.8625e-06
2.0345e-06
2.18062e-06
2.31482e-06
2.45067e-06
2.58779e-06
2.69543e-06
2.93947e-06
0.000723803
0.000372972
0.00011894
1.06081e-05
3.88437e-06
4.89645e-06
4.76971e-06
3.25057e-06
8.71845e-07
2.90031e-07
3.92782e-07
6.06302e-07
8.84582e-07
1.16185e-06
1.42465e-06
1.67357e-06
1.86447e-06
2.04167e-06
2.19455e-06
2.49073e-06
0.000512758
0.000179971
4.27471e-05
6.0538e-06
3.67301e-06
4.43252e-06
4.35435e-06
3.15741e-06
1.27914e-06
3.97107e-07
2.09457e-07
2.49108e-07
3.8831e-07
6.11971e-07
8.67943e-07
1.10676e-06
1.31586e-06
1.53783e-06
1.73021e-06
2.0793e-06
0.00036059
0.00010293
2.44082e-05
5.09363e-06
3.55744e-06
4.0737e-06
4.03185e-06
3.07599e-06
1.65034e-06
6.21926e-07
2.48351e-07
2.22073e-07
2.50282e-07
3.37535e-07
4.74985e-07
6.58947e-07
8.77233e-07
1.11971e-06
1.33283e-06
1.70696e-06
0.000268157
7.09244e-05
1.79175e-05
4.69598e-06
3.47914e-06
3.83036e-06
3.79673e-06
3.00734e-06
1.88572e-06
9.03082e-07
3.89056e-07
2.51904e-07
2.35161e-07
2.4411e-07
2.95419e-07
4.16506e-07
5.9329e-07
8.09476e-07
1.0112e-06
1.3817e-06
0.000203001
5.36845e-05
1.51677e-05
4.47319e-06
3.39605e-06
3.6729e-06
3.63631e-06
2.94404e-06
2.02088e-06
1.17424e-06
6.14232e-07
3.42617e-07
2.46228e-07
2.46447e-07
2.63093e-07
3.20672e-07
4.33426e-07
5.97412e-07
7.66713e-07
1.11266e-06
0.000144051
3.9363e-05
1.27905e-05
4.28671e-06
3.38486e-06
3.56849e-06
3.51686e-06
2.88097e-06
2.13735e-06
1.42829e-06
8.73777e-07
4.8516e-07
3.03018e-07
2.65461e-07
2.70862e-07
2.89699e-07
3.39844e-07
4.4343e-07
5.77688e-07
8.91398e-07
0.000129215
3.65798e-05
1.17229e-05
4.2883e-06
3.42315e-06
3.57266e-06
3.4544e-06
2.88145e-06
2.25145e-06
1.66012e-06
1.11014e-06
6.69967e-07
4.27817e-07
3.31681e-07
2.95435e-07
2.98165e-07
3.15242e-07
3.65317e-07
4.60116e-07
7.26193e-07
0.000133377
3.81017e-05
1.19474e-05
4.38348e-06
3.53124e-06
3.61025e-06
3.46088e-06
2.91855e-06
2.37135e-06
1.83394e-06
1.30906e-06
8.79607e-07
6.03926e-07
4.51665e-07
3.60251e-07
3.24213e-07
3.29506e-07
3.67704e-07
4.2109e-07
6.04088e-07
0.000148119
4.32237e-05
1.29189e-05
4.69824e-06
3.73647e-06
3.68444e-06
3.49308e-06
2.98929e-06
2.49655e-06
1.99511e-06
1.51406e-06
1.10977e-06
8.19345e-07
6.22457e-07
4.76154e-07
3.87852e-07
3.76207e-07
3.92782e-07
4.2465e-07
5.55304e-07
0.000177654
5.3894e-05
1.51986e-05
5.25222e-06
4.00068e-06
3.7673e-06
3.54522e-06
3.06785e-06
2.59474e-06
2.13377e-06
1.69223e-06
1.31716e-06
1.02236e-06
7.9412e-07
6.10092e-07
4.87061e-07
4.40799e-07
4.35296e-07
4.48088e-07
5.63712e-07
0.000282341
8.8492e-05
2.44802e-05
8.05046e-06
5.09765e-06
4.16294e-06
3.78124e-06
3.29048e-06
2.83586e-06
2.42113e-06
2.03572e-06
1.69433e-06
1.39225e-06
1.13108e-06
9.04817e-07
7.37334e-07
6.28203e-07
5.7974e-07
5.81704e-07
6.69405e-07
0.00288027
0.00268572
0.00201447
0.00139694
0.00129764
0.00141766
0.00143504
0.00128211
0.00103929
0.000688516
0.000404132
0.000247939
0.000172819
0.000126616
9.17114e-05
8.75604e-05
9.15816e-05
0.000103569
0.000126354
0.000206936
0.00266991
0.00218361
0.00132284
0.00123904
0.00144385
0.00180958
0.0018021
0.00149952
0.000852568
0.000261614
9.10131e-05
5.12712e-05
3.79728e-05
2.97108e-05
2.36164e-05
2.35781e-05
2.52057e-05
2.94916e-05
3.73929e-05
6.29622e-05
0.0020302
0.00129294
0.0015017
0.00264156
0.00401951
0.00367434
0.00329152
0.00259424
0.000557052
4.82778e-05
1.43888e-05
9.67829e-06
8.56058e-06
7.98519e-06
7.2444e-06
7.17002e-06
7.46995e-06
8.38771e-06
1.01778e-05
1.69636e-05
0.00139158
0.00116149
0.00239148
0.0028809
0.00759829
0.00783658
0.00723402
0.00675281
0.000819924
1.88617e-06
2.06248e-06
2.20151e-06
2.36822e-06
2.53272e-06
2.67576e-06
2.82141e-06
3.00949e-06
3.32101e-06
3.76259e-06
5.79873e-06
0.00128914
0.00136414
0.00365407
0.00717517
1.10256e-05
1.48703e-06
1.66606e-06
1.85006e-06
2.02274e-06
2.17511e-06
2.31065e-06
2.4579e-06
2.6346e-06
2.86492e-06
3.11445e-06
3.981e-06
0.00138845
0.00178119
0.00361285
0.00923269
1.71053e-06
1.89424e-06
2.08468e-06
2.24502e-06
2.38204e-06
2.50208e-06
2.61238e-06
2.72443e-06
2.84374e-06
2.98012e-06
3.09712e-06
3.44688e-06
0.00140859
0.00180769
0.00321512
0.00848128
2.00054e-06
2.01486e-06
2.19242e-06
2.34322e-06
2.47509e-06
2.58438e-06
2.67195e-06
2.74993e-06
2.83035e-06
2.92951e-06
3.02306e-06
3.26169e-06
0.00126096
0.00152529
0.00252409
0.00785022
1.7927e-06
1.45267e-06
1.64077e-06
1.81438e-06
1.96545e-06
2.08809e-06
2.18945e-06
2.29802e-06
2.42637e-06
2.55821e-06
2.66115e-06
2.88667e-06
0.00101813
0.000840942
0.000517538
0.000748608
3.22548e-06
1.3379e-06
1.57075e-06
1.37433e-06
1.98651e-07
3.7826e-07
6.592e-07
9.48804e-07
1.19213e-06
1.39371e-06
1.59285e-06
1.78114e-06
1.94843e-06
2.10129e-06
2.2251e-06
2.49889e-06
0.000664048
0.000244312
4.27714e-05
9.16407e-07
1.10697e-06
1.52867e-06
1.60986e-06
1.16966e-06
3.47662e-07
1.52978e-07
2.13465e-07
3.54883e-07
5.6502e-07
8.12607e-07
1.06272e-06
1.29383e-06
1.47684e-06
1.65103e-06
1.82593e-06
2.15548e-06
0.000384403
8.37623e-05
1.25633e-05
1.33935e-06
1.31833e-06
1.70369e-06
1.78247e-06
1.34901e-06
5.87636e-07
2.06545e-07
1.31635e-07
1.56218e-07
2.60993e-07
4.39172e-07
6.48758e-07
8.49559e-07
1.03339e-06
1.25585e-06
1.46544e-06
1.81541e-06
0.000231954
4.63849e-05
8.29879e-06
1.64597e-06
1.5112e-06
1.85509e-06
1.93253e-06
1.51754e-06
8.43689e-07
3.34018e-07
1.53429e-07
1.60424e-07
1.84025e-07
2.45949e-07
3.48378e-07
4.92622e-07
6.88617e-07
9.28691e-07
1.13572e-06
1.48307e-06
0.000158278
3.34236e-05
7.16499e-06
1.89693e-06
1.68118e-06
1.98857e-06
2.06743e-06
1.66896e-06
1.0623e-06
5.21824e-07
2.45797e-07
1.81658e-07
1.75784e-07
1.81494e-07
2.1683e-07
3.19751e-07
4.8232e-07
6.7986e-07
8.5621e-07
1.18752e-06
0.000114807
2.58089e-05
6.68776e-06
2.09447e-06
1.8287e-06
2.10772e-06
2.1785e-06
1.78867e-06
1.24026e-06
7.43657e-07
4.06586e-07
2.39642e-07
1.82352e-07
1.84201e-07
2.10277e-07
2.70443e-07
3.69651e-07
5.06313e-07
6.43559e-07
9.54496e-07
8.19201e-05
2.02825e-05
6.16267e-06
2.25506e-06
1.96101e-06
2.21572e-06
2.26697e-06
1.88546e-06
1.41705e-06
9.70887e-07
6.01657e-07
3.35203e-07
2.17988e-07
2.11013e-07
2.24198e-07
2.51703e-07
2.98253e-07
3.79155e-07
4.85606e-07
7.75256e-07
7.72442e-05
2.01554e-05
6.10975e-06
2.40454e-06
2.10326e-06
2.3239e-06
2.34765e-06
1.98893e-06
1.587e-06
1.18023e-06
7.88007e-07
4.68492e-07
3.14384e-07
2.72133e-07
2.53915e-07
2.59263e-07
2.75618e-07
3.17812e-07
4.01951e-07
6.48627e-07
8.06162e-05
2.15151e-05
6.36632e-06
2.58465e-06
2.27019e-06
2.43941e-06
2.43107e-06
2.11036e-06
1.73964e-06
1.34598e-06
9.55538e-07
6.46313e-07
4.65019e-07
3.6895e-07
3.05461e-07
2.8062e-07
2.86074e-07
3.2202e-07
3.76686e-07
5.50707e-07
9.08504e-05
2.52068e-05
7.14306e-06
2.87024e-06
2.48334e-06
2.5728e-06
2.5308e-06
2.2364e-06
1.88201e-06
1.50365e-06
1.15517e-06
8.65836e-07
6.52026e-07
5.02637e-07
3.8952e-07
3.29138e-07
3.29463e-07
3.4929e-07
3.81052e-07
4.99811e-07
0.000110862
3.22208e-05
8.68981e-06
3.26291e-06
2.7097e-06
2.68986e-06
2.6254e-06
2.33888e-06
1.99651e-06
1.6581e-06
1.34433e-06
1.06107e-06
8.22204e-07
6.35779e-07
4.91852e-07
4.13418e-07
3.9315e-07
3.9018e-07
4.00034e-07
5.03327e-07
0.000183333
5.50998e-05
1.4705e-05
5.07679e-06
3.49929e-06
3.03269e-06
2.86768e-06
2.56298e-06
2.24797e-06
1.95796e-06
1.67264e-06
1.39553e-06
1.13832e-06
9.26566e-07
7.59084e-07
6.4324e-07
5.64554e-07
5.20101e-07
5.1894e-07
5.98508e-07
0.00320509
0.00353479
0.00285911
0.0017533
0.00152011
0.00171578
0.00173881
0.00162254
0.00102015
0.000376962
0.000127914
6.38058e-05
4.255e-05
3.0382e-05
2.43354e-05
2.48651e-05
2.72706e-05
3.22165e-05
4.06988e-05
7.09935e-05
0.00352916
0.00378397
0.00193651
0.00189622
0.00258997
0.0032284
0.00327977
0.0028901
0.000490208
5.54014e-05
1.34959e-05
9.20921e-06
7.70614e-06
6.46485e-06
6.37049e-06
6.74397e-06
7.78842e-06
9.66251e-06
1.26614e-05
2.22385e-05
0.0029579
0.00189476
0.00331401
0.00515171
0.00615708
0.00609642
0.00631542
0.00421566
0.000110709
3.82951e-06
1.69874e-06
1.80104e-06
2.01725e-06
2.26876e-06
2.50786e-06
2.77845e-06
3.17404e-06
3.76223e-06
4.61491e-06
7.39097e-06
0.00179478
0.00178265
0.00455329
0.0198493
0.0104355
0.0111596
0.0242032
0.000827134
1.15328e-05
5.87836e-07
8.20856e-07
1.04769e-06
1.27459e-06
1.49568e-06
1.70258e-06
1.89667e-06
2.09952e-06
2.37961e-06
2.7034e-06
3.86847e-06
0.00155625
0.00258197
0.00471114
0.000463751
5.12493e-07
1.5506e-06
1.69202e-06
1.8011e-06
1.9049e-06
2.00286e-06
2.08888e-06
2.18015e-06
2.29464e-06
2.44997e-06
2.62294e-06
3.23241e-06
0.0016784
0.00325523
0.00660742
0.0261544
1.75878e-06
2.29951e-06
2.30854e-06
2.33131e-06
2.36799e-06
2.41321e-06
2.46633e-06
2.5314e-06
2.6123e-06
2.70697e-06
2.78957e-06
3.03619e-06
0.00170769
0.00341491
0.00669401
0.0270286
2.12376e-06
2.45177e-06
2.45584e-06
2.4733e-06
2.50671e-06
2.54717e-06
2.5827e-06
2.6235e-06
2.67744e-06
2.74856e-06
2.82164e-06
3.00624e-06
0.00159788
0.00304573
0.00451599
0.00060841
1.91518e-06
1.76879e-06
1.86237e-06
1.95111e-06
2.02214e-06
2.08145e-06
2.14606e-06
2.23042e-06
2.3371e-06
2.44937e-06
2.53548e-06
2.72806e-06
0.0010004
0.00048698
0.000112592
9.6935e-06
5.21378e-07
1.4947e-06
1.78825e-06
1.58929e-06
2.19258e-07
4.60931e-07
7.52317e-07
1.01077e-06
1.22452e-06
1.40639e-06
1.59443e-06
1.76983e-06
1.8998e-06
2.01966e-06
2.13291e-06
2.39901e-06
0.000364811
4.88771e-05
3.29776e-06
4.41354e-07
1.28236e-06
1.90586e-06
2.02345e-06
1.46297e-06
4.10193e-07
1.61853e-07
2.22864e-07
3.65813e-07
5.78409e-07
8.3498e-07
1.08017e-06
1.27687e-06
1.43246e-06
1.59566e-06
1.77601e-06
2.11494e-06
0.000119401
1.16079e-05
1.36864e-06
6.18413e-07
1.38595e-06
1.89562e-06
2.0097e-06
1.53775e-06
6.51417e-07
2.12146e-07
1.32173e-07
1.61074e-07
2.71189e-07
4.45105e-07
6.36334e-07
8.2076e-07
9.98693e-07
1.23032e-06
1.45894e-06
1.80543e-06
5.7221e-05
7.72243e-06
1.42262e-06
7.97495e-07
1.46676e-06
1.90359e-06
2.01678e-06
1.60811e-06
8.70935e-07
3.3574e-07
1.56635e-07
1.52766e-07
1.68513e-07
2.2479e-07
3.26553e-07
4.67233e-07
6.68123e-07
9.28648e-07
1.1384e-06
1.47264e-06
3.71095e-05
6.2874e-06
1.54941e-06
9.8096e-07
1.54112e-06
1.922e-06
2.03764e-06
1.66515e-06
1.0502e-06
5.18448e-07
2.52158e-07
1.65352e-07
1.58664e-07
1.67354e-07
2.02094e-07
3.04689e-07
4.77832e-07
6.78704e-07
8.5038e-07
1.17152e-06
2.61141e-05
5.09838e-06
1.73901e-06
1.16005e-06
1.61279e-06
1.94975e-06
2.06492e-06
1.70858e-06
1.19803e-06
7.3871e-07
4.02497e-07
2.1245e-07
1.6721e-07
1.71338e-07
2.0261e-07
2.69359e-07
3.68309e-07
4.98527e-07
6.29785e-07
9.38574e-07
2.00717e-05
4.99089e-06
1.94779e-06
1.32997e-06
1.67892e-06
1.98726e-06
2.09089e-06
1.75626e-06
1.35162e-06
9.48579e-07
5.70562e-07
3.01632e-07
1.98773e-07
2.01301e-07
2.22385e-07
2.53765e-07
2.98699e-07
3.73819e-07
4.70988e-07
7.69841e-07
2.03456e-05
5.28924e-06
2.17886e-06
1.49123e-06
1.74924e-06
2.03542e-06
2.12205e-06
1.82253e-06
1.49546e-06
1.11618e-06
7.3429e-07
4.26289e-07
2.88852e-07
2.65234e-07
2.53996e-07
2.59906e-07
2.794e-07
3.19984e-07
4.01645e-07
6.58762e-07
2.22304e-05
6.13327e-06
2.5009e-06
1.6568e-06
1.83791e-06
2.09876e-06
2.16501e-06
1.90879e-06
1.60446e-06
1.24769e-06
8.90113e-07
6.04033e-07
4.41915e-07
3.53972e-07
2.96929e-07
2.81374e-07
2.88432e-07
3.24544e-07
3.84429e-07
5.71815e-07
2.63277e-05
7.67046e-06
2.97237e-06
1.88079e-06
1.95922e-06
2.17652e-06
2.22419e-06
2.00186e-06
1.70733e-06
1.38664e-06
1.08908e-06
8.32526e-07
6.21956e-07
4.70262e-07
3.66835e-07
3.26453e-07
3.30176e-07
3.54041e-07
3.89669e-07
5.16973e-07
3.34889e-05
1.01717e-05
3.66142e-06
2.14361e-06
2.0943e-06
2.24637e-06
2.2864e-06
2.07736e-06
1.80319e-06
1.53485e-06
1.28136e-06
1.0208e-06
7.79457e-07
5.91401e-07
4.58437e-07
4.07106e-07
3.98524e-07
3.98699e-07
4.09842e-07
5.17455e-07
5.94076e-05
1.828e-05
5.96492e-06
3.09135e-06
2.59133e-06
2.45922e-06
2.4506e-06
2.25094e-06
2.02264e-06
1.81283e-06
1.58091e-06
1.32267e-06
1.07183e-06
8.72169e-07
7.30334e-07
6.42276e-07
5.77114e-07
5.34451e-07
5.31742e-07
6.11655e-07
0.00321079
0.00408307
0.00439796
0.00306661
0.00254454
0.00239409
0.00221048
0.00203479
0.000486776
6.35166e-05
1.334e-05
7.15188e-06
5.42342e-06
4.09403e-06
4.02096e-06
4.34619e-06
5.15427e-06
6.497e-06
8.39345e-06
1.45133e-05
0.00406717
0.0101325
0.0134354
0.00979584
0.00813082
0.00796308
0.00711725
0.00561275
7.49522e-05
3.15984e-06
1.35036e-06
1.50207e-06
1.66953e-06
1.84976e-06
2.10961e-06
2.50802e-06
3.11126e-06
3.93673e-06
4.91596e-06
7.38125e-06
0.00449529
0.0138002
0.0143765
0.00869346
0.00849022
0.00929145
0.00973101
0.00628105
1.01606e-05
6.59169e-07
7.545e-07
9.89733e-07
1.2977e-06
1.63497e-06
1.99159e-06
2.35471e-06
2.79121e-06
3.3135e-06
3.90984e-06
5.29835e-06
0.0031467
0.0104825
0.00917293
0.000358172
0.000893208
0.00248188
0.0281522
0.00036591
4.2101e-07
7.7546e-07
1.05458e-06
1.32555e-06
1.59318e-06
1.84752e-06
2.05734e-06
2.22732e-06
2.39339e-06
2.61476e-06
2.90286e-06
3.9123e-06
0.00253817
0.00861355
0.00928939
0.00072141
1.05701e-06
2.14837e-06
2.29686e-06
2.37755e-06
2.45308e-06
2.53297e-06
2.60257e-06
2.66348e-06
2.73959e-06
2.85828e-06
2.9991e-06
3.54252e-06
0.00226814
0.00793423
0.00976418
0.0132682
2.63854e-06
3.20489e-06
3.16453e-06
3.12962e-06
3.09836e-06
3.0779e-06
3.08317e-06
3.10341e-06
3.14343e-06
3.20405e-06
3.2571e-06
3.42908e-06
0.00206276
0.00686188
0.00960266
0.0292916
3.1385e-06
3.39524e-06
3.35799e-06
3.31974e-06
3.29127e-06
3.27116e-06
3.24419e-06
3.2356e-06
3.24412e-06
3.26826e-06
3.30399e-06
3.4252e-06
0.00187395
0.00530489
0.00652756
0.000486584
2.7886e-06
2.41182e-06
2.51611e-06
2.59783e-06
2.63942e-06
2.65825e-06
2.68793e-06
2.74247e-06
2.81847e-06
2.90055e-06
2.96427e-06
3.11604e-06
0.00053028
6.61562e-05
5.83629e-06
2.98668e-07
8.37774e-07
2.1206e-06
2.51693e-06
2.227e-06
2.75959e-07
5.7655e-07
9.62701e-07
1.29237e-06
1.55669e-06
1.77584e-06
1.97904e-06
2.16514e-06
2.29205e-06
2.39799e-06
2.50256e-06
2.74392e-06
7.18424e-05
3.45121e-06
5.59926e-07
5.98121e-07
1.68844e-06
2.51123e-06
2.6579e-06
1.90944e-06
5.16349e-07
1.9151e-07
2.65579e-07
4.44167e-07
7.09827e-07
1.02259e-06
1.31841e-06
1.54338e-06
1.70717e-06
1.88744e-06
2.07805e-06
2.42284e-06
1.39027e-05
1.27452e-06
6.24018e-07
8.13478e-07
1.80745e-06
2.47872e-06
2.63094e-06
2.00338e-06
8.3327e-07
2.55196e-07
1.5238e-07
1.88859e-07
3.17677e-07
5.24684e-07
7.47749e-07
9.57054e-07
1.17462e-06
1.44615e-06
1.69828e-06
2.07203e-06
7.31571e-06
1.39625e-06
7.95122e-07
1.01922e-06
1.86816e-06
2.4514e-06
2.60433e-06
2.074e-06
1.10535e-06
4.0727e-07
1.8324e-07
1.68282e-07
1.87586e-07
2.48474e-07
3.65134e-07
5.38913e-07
7.77923e-07
1.08115e-06
1.31829e-06
1.67953e-06
5.42499e-06
1.49512e-06
1.03464e-06
1.22134e-06
1.92292e-06
2.42677e-06
2.58481e-06
2.11e-06
1.3114e-06
6.26626e-07
2.92707e-07
1.83787e-07
1.6437e-07
1.75236e-07
2.21046e-07
3.39943e-07
5.38671e-07
7.70996e-07
9.57478e-07
1.31355e-06
4.00835e-06
1.59907e-06
1.30581e-06
1.40805e-06
1.98413e-06
2.41588e-06
2.57295e-06
2.1296e-06
1.47712e-06
8.82071e-07
4.68706e-07
2.3506e-07
1.7453e-07
1.82379e-07
2.20719e-07
2.94258e-07
4.0735e-07
5.46542e-07
6.91348e-07
1.04281e-06
3.38176e-06
1.76868e-06
1.58704e-06
1.56113e-06
2.03888e-06
2.4227e-06
2.56442e-06
2.15621e-06
1.63391e-06
1.13085e-06
6.65887e-07
3.34058e-07
2.13406e-07
2.16682e-07
2.40464e-07
2.81428e-07
3.31815e-07
4.10375e-07
5.23746e-07
8.5984e-07
3.54911e-06
2.03101e-06
1.84362e-06
1.69833e-06
2.08729e-06
2.44303e-06
2.5668e-06
2.20089e-06
1.78549e-06
1.32739e-06
8.49861e-07
4.82047e-07
3.09731e-07
2.82281e-07
2.79681e-07
2.89788e-07
3.13437e-07
3.62974e-07
4.53826e-07
7.38234e-07
4.07829e-06
2.44902e-06
2.15549e-06
1.83403e-06
2.14712e-06
2.47994e-06
2.57896e-06
2.26205e-06
1.89784e-06
1.46555e-06
1.03087e-06
6.81397e-07
4.73486e-07
3.77168e-07
3.23171e-07
3.12497e-07
3.24106e-07
3.69271e-07
4.35093e-07
6.47419e-07
5.05834e-06
3.04729e-06
2.54099e-06
2.00987e-06
2.24039e-06
2.53531e-06
2.60595e-06
2.33196e-06
1.9919e-06
1.60952e-06
1.24657e-06
9.31846e-07
6.74019e-07
4.95309e-07
3.88688e-07
3.62767e-07
3.70501e-07
3.9802e-07
4.35858e-07
5.81127e-07
6.53451e-06
3.78979e-06
2.99131e-06
2.23191e-06
2.34954e-06
2.5854e-06
2.64016e-06
2.39099e-06
2.08079e-06
1.75788e-06
1.4501e-06
1.14072e-06
8.46322e-07
6.2486e-07
4.88789e-07
4.46222e-07
4.40879e-07
4.40972e-07
4.52682e-07
5.74514e-07
1.15531e-05
5.76189e-06
4.07814e-06
3.00237e-06
2.77491e-06
2.73444e-06
2.75063e-06
2.53417e-06
2.28042e-06
2.0355e-06
1.76895e-06
1.46746e-06
1.16803e-06
9.35134e-07
7.82103e-07
6.93129e-07
6.30261e-07
5.84006e-07
5.79969e-07
6.65476e-07
0.00166879
0.00167604
0.00147448
0.0011613
0.00100245
0.000878416
0.000793521
0.000730536
0.000128867
1.30811e-05
3.09699e-06
2.38264e-06
2.19264e-06
2.05394e-06
2.15698e-06
2.43266e-06
2.92135e-06
3.61482e-06
4.3818e-06
6.16693e-06
0.00169342
0.0026844
0.00263629
0.00252911
0.00246678
0.00259793
0.00247765
0.00190525
8.53464e-06
5.92783e-07
7.83447e-07
1.09087e-06
1.36184e-06
1.59615e-06
1.87534e-06
2.26764e-06
2.82978e-06
3.52219e-06
4.21827e-06
5.47184e-06
0.00151552
0.00266865
0.00467686
0.00507388
0.00675346
0.00695343
0.00731287
0.00497966
1.28669e-07
3.7921e-07
6.57438e-07
1.01851e-06
1.40467e-06
1.78475e-06
2.16532e-06
2.55239e-06
3.04642e-06
3.64281e-06
4.30092e-06
5.59592e-06
0.00121368
0.00240292
0.00488254
0.00148991
0.00224804
3.80019e-09
0.0218189
0.00041277
1.08372e-06
9.47419e-07
1.28896e-06
1.61014e-06
1.93186e-06
2.23661e-06
2.50021e-06
2.69615e-06
2.84546e-06
3.03548e-06
3.29877e-06
4.30526e-06
0.00102968
0.00249182
0.00572042
9.59307e-05
1.27495e-06
2.56783e-06
2.75041e-06
2.84276e-06
2.92643e-06
3.02349e-06
3.10969e-06
3.17503e-06
3.24468e-06
3.35659e-06
3.4909e-06
4.02163e-06
0.000876299
0.00266003
0.00704004
0.00031629
3.38019e-06
3.83829e-06
3.78203e-06
3.74116e-06
3.7114e-06
3.68208e-06
3.68311e-06
3.69743e-06
3.73128e-06
3.78685e-06
3.8331e-06
3.96801e-06
0.000783779
0.00248775
0.00744179
0.0241588
4.01009e-06
4.09336e-06
4.03603e-06
3.98493e-06
3.94923e-06
3.92333e-06
3.89737e-06
3.86943e-06
3.86892e-06
3.87776e-06
3.89717e-06
3.98311e-06
0.000717138
0.00187642
0.00499856
0.000303138
3.58041e-06
2.89608e-06
3.01762e-06
3.10783e-06
3.15906e-06
3.18833e-06
3.22233e-06
3.27428e-06
3.3394e-06
3.4163e-06
3.48131e-06
3.62295e-06
0.000169536
1.18739e-05
6.65514e-07
3.02271e-07
9.93992e-07
2.62666e-06
3.10905e-06
2.7332e-06
3.27369e-07
6.69548e-07
1.12216e-06
1.53484e-06
1.86172e-06
2.12301e-06
2.34719e-06
2.552e-06
2.71548e-06
2.85412e-06
2.96565e-06
3.19223e-06
1.93521e-05
1.0553e-06
5.74359e-07
7.32098e-07
2.04521e-06
3.03207e-06
3.20869e-06
2.29501e-06
6.0614e-07
2.17668e-07
3.13061e-07
5.30913e-07
8.39182e-07
1.19077e-06
1.53169e-06
1.83211e-06
2.06283e-06
2.26364e-06
2.44755e-06
2.79357e-06
3.83506e-06
9.02433e-07
6.56046e-07
1.00959e-06
2.18639e-06
2.98528e-06
3.17241e-06
2.39896e-06
9.73904e-07
2.98044e-07
1.74946e-07
2.1309e-07
3.49007e-07
5.86675e-07
8.79444e-07
1.1671e-06
1.42786e-06
1.70986e-06
1.97115e-06
2.3956e-06
2.75182e-06
1.03326e-06
8.55997e-07
1.26575e-06
2.26014e-06
2.95502e-06
3.13716e-06
2.472e-06
1.30516e-06
4.7958e-07
2.05446e-07
1.85117e-07
2.07145e-07
2.93756e-07
4.51882e-07
6.67209e-07
9.28528e-07
1.24332e-06
1.52807e-06
1.97292e-06
2.49161e-06
1.22751e-06
1.1291e-06
1.51736e-06
2.32272e-06
2.93332e-06
3.11371e-06
2.52551e-06
1.565e-06
7.33756e-07
3.17135e-07
2.02402e-07
1.99589e-07
2.1132e-07
2.63212e-07
3.91728e-07
5.98701e-07
8.76466e-07
1.13429e-06
1.55973e-06
2.13496e-06
1.43039e-06
1.42151e-06
1.7511e-06
2.39465e-06
2.9099e-06
3.10064e-06
2.56778e-06
1.76644e-06
1.01814e-06
5.1513e-07
2.71919e-07
2.09984e-07
2.14294e-07
2.45184e-07
3.15014e-07
4.48324e-07
6.46796e-07
8.32531e-07
1.22856e-06
1.98482e-06
1.63322e-06
1.72928e-06
1.94659e-06
2.45634e-06
2.91039e-06
3.09188e-06
2.60166e-06
1.93623e-06
1.29607e-06
7.62894e-07
4.01928e-07
2.47882e-07
2.42927e-07
2.62222e-07
3.16545e-07
3.96207e-07
5.06653e-07
6.37482e-07
9.98173e-07
2.09862e-06
1.90334e-06
2.03815e-06
2.08402e-06
2.5011e-06
2.92145e-06
3.0811e-06
2.63626e-06
2.09261e-06
1.54734e-06
1.00579e-06
5.77233e-07
3.43726e-07
3.0208e-07
3.11165e-07
3.39855e-07
3.79032e-07
4.31645e-07
5.24961e-07
8.35255e-07
2.40207e-06
2.29227e-06
2.40518e-06
2.19918e-06
2.55187e-06
2.94965e-06
3.08154e-06
2.68005e-06
2.22987e-06
1.73936e-06
1.21912e-06
7.88785e-07
5.06406e-07
4.06911e-07
3.8246e-07
3.77349e-07
3.86935e-07
4.27029e-07
4.90316e-07
7.35214e-07
2.89147e-06
2.7897e-06
2.84223e-06
2.34964e-06
2.63718e-06
2.99639e-06
3.09022e-06
2.74344e-06
2.35437e-06
1.9011e-06
1.44549e-06
1.046e-06
7.39686e-07
5.66942e-07
4.67535e-07
4.24398e-07
4.25667e-07
4.47501e-07
4.98064e-07
6.84667e-07
3.46453e-06
3.30076e-06
3.32122e-06
2.54933e-06
2.7413e-06
3.03955e-06
3.10775e-06
2.80535e-06
2.45193e-06
2.04811e-06
1.65653e-06
1.2876e-06
9.63208e-07
7.21184e-07
5.70613e-07
5.02903e-07
4.90465e-07
4.99437e-07
5.30337e-07
6.67595e-07
4.92299e-06
4.30973e-06
4.32201e-06
3.30649e-06
3.15146e-06
3.15974e-06
3.18647e-06
2.93767e-06
2.64059e-06
2.32752e-06
2.01125e-06
1.67315e-06
1.33421e-06
1.05562e-06
8.69134e-07
7.57708e-07
6.9626e-07
6.6741e-07
6.64934e-07
7.41779e-07
0.00165014
0.00167679
0.00148393
0.00116067
0.0009958
0.000870415
0.00078664
0.000724457
0.000112961
1.13082e-05
2.86965e-06
2.27793e-06
2.11655e-06
2.02361e-06
2.14316e-06
2.44403e-06
2.95471e-06
3.66888e-06
4.45321e-06
6.22543e-06
0.00166788
0.00266288
0.002637
0.00257469
0.00244013
0.0025527
0.0024449
0.00189718
8.09717e-06
7.03306e-07
8.52252e-07
1.11902e-06
1.36371e-06
1.58915e-06
1.87775e-06
2.29386e-06
2.88898e-06
3.61395e-06
4.34041e-06
5.6045e-06
0.00150527
0.00266002
0.00468777
0.00506212
0.00695526
0.00691529
0.00720646
0.00495081
4.43402e-07
5.38366e-07
7.41752e-07
1.06803e-06
1.45334e-06
1.83993e-06
2.23096e-06
2.63403e-06
3.15442e-06
3.78428e-06
4.48172e-06
5.81017e-06
0.00121565
0.00240899
0.00493911
0.00158038
0.00615337
0.000144914
0.0170858
0.000217639
5.12011e-07
9.56952e-07
1.32256e-06
1.66304e-06
2.00951e-06
2.33728e-06
2.6169e-06
2.82063e-06
2.97172e-06
3.16744e-06
3.4447e-06
4.50554e-06
0.00103645
0.00256772
0.00581063
1.50448e-06
1.35771e-06
2.66362e-06
2.84555e-06
2.94102e-06
3.0304e-06
3.13816e-06
3.23056e-06
3.29508e-06
3.3648e-06
3.47976e-06
3.61976e-06
4.18095e-06
0.000883079
0.00272413
0.00717798
0.00302006
3.67713e-06
3.98264e-06
3.91798e-06
3.87342e-06
3.84591e-06
3.81817e-06
3.81933e-06
3.83314e-06
3.86812e-06
3.92738e-06
3.9782e-06
4.12194e-06
0.000788649
0.00251464
0.00750021
0.0272447
4.39111e-06
4.25225e-06
4.19133e-06
4.13232e-06
4.09609e-06
4.07228e-06
4.04926e-06
4.02095e-06
4.01887e-06
4.02917e-06
4.05316e-06
4.14868e-06
0.000720444
0.00189964
0.00503341
0.000737824
3.92282e-06
3.02447e-06
3.14609e-06
3.23412e-06
3.29285e-06
3.33691e-06
3.37307e-06
3.42002e-06
3.48568e-06
3.56424e-06
3.63557e-06
3.78857e-06
0.000145797
1.10179e-05
6.42999e-07
2.75331e-07
9.79127e-07
2.97465e-06
3.52044e-06
3.10372e-06
3.72764e-07
7.16029e-07
1.18835e-06
1.61912e-06
1.95959e-06
2.22926e-06
2.46522e-06
2.67621e-06
2.8498e-06
3.00019e-06
3.11227e-06
3.34132e-06
1.6353e-05
9.72381e-07
6.02169e-07
7.60964e-07
2.15536e-06
3.20812e-06
3.39585e-06
2.41886e-06
6.18968e-07
2.27499e-07
3.32674e-07
5.63061e-07
8.85451e-07
1.25059e-06
1.61091e-06
1.93122e-06
2.17645e-06
2.37876e-06
2.56537e-06
2.92592e-06
3.43364e-06
9.05292e-07
6.88654e-07
1.05586e-06
2.30654e-06
3.15927e-06
3.34953e-06
2.52782e-06
1.00173e-06
3.11467e-07
1.83351e-07
2.22914e-07
3.6307e-07
6.14049e-07
9.27969e-07
1.23522e-06
1.50489e-06
1.79222e-06
2.06163e-06
2.50727e-06
2.53552e-06
1.03398e-06
8.95369e-07
1.33143e-06
2.38132e-06
3.12301e-06
3.30733e-06
2.61224e-06
1.35851e-06
5.00856e-07
2.14279e-07
1.92485e-07
2.16422e-07
3.0994e-07
4.7929e-07
7.03453e-07
9.70432e-07
1.29359e-06
1.59408e-06
2.0642e-06
2.35723e-06
1.23648e-06
1.17901e-06
1.59909e-06
2.44535e-06
3.09815e-06
3.28151e-06
2.66054e-06
1.63189e-06
7.63562e-07
3.28614e-07
2.10057e-07
2.09825e-07
2.21487e-07
2.74345e-07
4.06262e-07
6.22096e-07
9.17674e-07
1.18684e-06
1.63531e-06
2.06201e-06
1.45516e-06
1.48786e-06
1.84826e-06
2.51797e-06
3.07181e-06
3.2657e-06
2.68592e-06
1.83885e-06
1.05989e-06
5.33223e-07
2.82632e-07
2.19446e-07
2.23007e-07
2.54421e-07
3.29204e-07
4.72359e-07
6.78432e-07
8.75759e-07
1.28983e-06
1.99998e-06
1.67069e-06
1.8153e-06
2.05855e-06
2.58359e-06
3.07129e-06
3.24863e-06
2.71335e-06
2.02276e-06
1.35106e-06
7.88705e-07
4.16239e-07
2.57084e-07
2.51883e-07
2.7312e-07
3.2881e-07
4.09004e-07
5.23314e-07
6.63186e-07
1.03869e-06
2.12683e-06
1.95592e-06
2.14322e-06
2.20796e-06
2.63551e-06
3.08062e-06
3.22808e-06
2.75771e-06
2.19632e-06
1.60662e-06
1.03796e-06
5.94981e-07
3.55257e-07
3.16009e-07
3.25706e-07
3.49528e-07
3.85105e-07
4.40508e-07
5.38651e-07
8.66404e-07
2.44709e-06
2.36512e-06
2.52909e-06
2.32832e-06
2.69187e-06
3.10643e-06
3.22832e-06
2.82025e-06
2.33445e-06
1.80378e-06
1.26178e-06
8.15127e-07
5.29397e-07
4.30091e-07
3.95502e-07
3.83658e-07
3.93958e-07
4.36935e-07
5.06816e-07
7.67683e-07
2.95387e-06
2.88443e-06
2.98574e-06
2.48261e-06
2.78108e-06
3.15187e-06
3.23818e-06
2.88857e-06
2.45427e-06
1.97759e-06
1.50511e-06
1.08971e-06
7.7493e-07
5.91344e-07
4.81609e-07
4.34236e-07
4.35646e-07
4.61778e-07
5.19046e-07
7.08119e-07
3.53849e-06
3.41407e-06
3.48293e-06
2.68573e-06
2.88829e-06
3.19502e-06
3.257e-06
2.94076e-06
2.55422e-06
2.13877e-06
1.73352e-06
1.34361e-06
1.00275e-06
7.53148e-07
5.92924e-07
5.16583e-07
5.06252e-07
5.19989e-07
5.51384e-07
6.87435e-07
4.96191e-06
4.42795e-06
4.49839e-06
3.45882e-06
3.30628e-06
3.31501e-06
3.33543e-06
3.06375e-06
2.75475e-06
2.43549e-06
2.10005e-06
1.73993e-06
1.38769e-06
1.10286e-06
9.03674e-07
7.833e-07
7.2372e-07
6.8844e-07
6.8348e-07
7.64497e-07
0.00320968
0.00410053
0.0044185
0.00305898
0.00248103
0.00235514
0.00218527
0.00200637
0.00040686
5.00989e-05
1.05775e-05
6.0351e-06
4.73722e-06
3.64289e-06
3.65558e-06
4.00123e-06
4.79712e-06
6.12762e-06
8.01168e-06
1.37569e-05
0.00403895
0.0101509
0.0136981
0.00993669
0.00801657
0.00765536
0.00688005
0.0054728
5.49317e-05
2.69664e-06
1.33786e-06
1.48606e-06
1.6574e-06
1.85184e-06
2.13969e-06
2.57474e-06
3.22548e-06
4.10267e-06
5.12086e-06
7.48826e-06
0.00445321
0.0135306
0.0142289
0.00882715
0.00981166
0.00934303
0.009503
0.006409
5.40945e-06
7.64162e-07
8.61599e-07
1.10679e-06
1.42854e-06
1.7776e-06
2.13798e-06
2.55116e-06
3.05799e-06
3.65672e-06
4.32128e-06
5.73591e-06
0.00313075
0.0104584
0.00907511
0.00108249
0.0056672
1.53785e-09
0.0187994
0.000173245
4.25597e-07
8.71802e-07
1.19115e-06
1.51071e-06
1.82902e-06
2.12463e-06
2.37335e-06
2.54972e-06
2.71886e-06
2.94756e-06
3.25335e-06
4.33601e-06
0.00255948
0.00906065
0.00878102
1.31636e-06
1.34546e-06
2.46486e-06
2.63754e-06
2.73355e-06
2.82455e-06
2.9211e-06
2.99799e-06
3.05642e-06
3.13066e-06
3.25402e-06
3.40543e-06
3.9887e-06
0.00226996
0.00831475
0.0101367
0.0067927
3.5731e-06
3.68603e-06
3.63314e-06
3.5941e-06
3.56487e-06
3.53721e-06
3.53898e-06
3.55534e-06
3.59441e-06
3.65712e-06
3.71211e-06
3.88746e-06
0.0020604
0.00708291
0.00982017
0.0309569
4.26474e-06
3.92635e-06
3.87732e-06
3.83168e-06
3.79927e-06
3.77582e-06
3.74788e-06
3.72784e-06
3.73281e-06
3.7519e-06
3.78488e-06
3.90681e-06
0.00187843
0.00546873
0.00655503
0.00019298
3.79792e-06
2.80668e-06
2.92121e-06
3.01366e-06
3.07055e-06
3.09726e-06
3.12678e-06
3.17574e-06
3.24737e-06
3.33318e-06
3.40333e-06
3.56827e-06
0.000411721
5.00749e-05
3.79228e-06
3.59158e-07
1.08462e-06
2.88945e-06
3.41888e-06
3.01678e-06
3.59814e-07
6.9295e-07
1.14365e-06
1.5323e-06
1.83797e-06
2.08348e-06
2.30646e-06
2.51677e-06
2.666e-06
2.7823e-06
2.8932e-06
3.15237e-06
5.0675e-05
2.68573e-06
6.38899e-07
7.18838e-07
1.9931e-06
2.95789e-06
3.13524e-06
2.23876e-06
5.73606e-07
2.18676e-07
3.13706e-07
5.30313e-07
8.37252e-07
1.19278e-06
1.53799e-06
1.81033e-06
2.00117e-06
2.19872e-06
2.40446e-06
2.78369e-06
9.64935e-06
1.13265e-06
7.11182e-07
9.68533e-07
2.11557e-06
2.90626e-06