/*--------------------------------*- C++ -*----------------------------------*\
  =========                 |
  \\      /  F ield         | OpenFOAM: The Open Source CFD Toolbox
   \\    /   O peration     | Website:  https://openfoam.org
    \\  /    A nd           | Version:  9
     \\/     M anipulation  |
\*---------------------------------------------------------------------------*/
FoamFile
{
    format      ascii;
    class       volScalarField;
    location    "0.0085";
    object      rho.C4;
}
// * * * * * * * * * * * * * * * * * * * * * * * * * * * * * * * * * * * * * //

dimensions      [1 -3 0 0 0 0 0];

internalField   nonuniform List<scalar> 
9720
(
2.8342
2.48671
1.83901
1.27894
1.24807
1.36302
1.36169
1.20167
0.978254
0.793857
0.651406
0.553721
0.522507
0.530191
0.553179
0.599743
0.677874
0.791666
0.915343
1.14591
2.47785
1.75865
0.900898
0.782763
1.12895
1.32573
1.32369
1.11955
0.773696
0.505762
0.364964
0.307036
0.311197
0.331444
0.368278
0.424225
0.50431
0.616209
0.741939
0.981604
1.86188
0.901632
0.690509
0.646627
1.10708
1.32036
1.31732
1.08731
0.621098
0.320267
0.23441
0.240259
0.256814
0.286788
0.32513
0.372258
0.434822
0.520044
0.625286
0.861672
1.28259
0.773843
0.641768
0.52577
0.868827
1.30453
1.37783
1.20977
0.583654
0.153053
0.163781
0.186058
0.212376
0.238441
0.263125
0.289086
0.3178
0.353646
0.398482
0.569041
1.22054
1.09137
1.0711
0.868588
0.128527
0.240611
0.255977
0.268759
0.27895
0.287088
0.293762
0.30129
0.311416
0.327238
0.346978
0.425665
1.32056
1.28531
1.28122
1.2662
0.320145
0.330862
0.325788
0.321895
0.318624
0.318664
0.319746
0.322323
0.326316
0.332
0.337027
0.361452
1.31721
1.28295
1.27841
1.34291
0.349381
0.332236
0.327891
0.324112
0.321444
0.319491
0.318189
0.318365
0.319367
0.322177
0.325321
0.338235
1.15955
1.07963
1.04808
1.17173
0.297769
0.230903
0.24158
0.24909
0.254806
0.259018
0.262288
0.266536
0.272641
0.279445
0.285432
0.299594
0.940055
0.738343
0.5856
0.524662
0.129009
0.302147
0.329299
0.277733
0.0324412
0.0580367
0.0938334
0.127845
0.154005
0.174443
0.191981
0.206297
0.219145
0.231436
0.241198
0.260867
0.761513
0.481399
0.302407
0.145953
0.228296
0.313309
0.313079
0.219194
0.0614062
0.0220316
0.029876
0.0483561
0.0744793
0.101645
0.126942
0.149811
0.167283
0.184106
0.199177
0.224735
0.622431
0.34739
0.227784
0.158086
0.243146
0.307903
0.308723
0.230065
0.0974249
0.0310148
0.0180637
0.0213981
0.0336142
0.0534552
0.0764043
0.0983451
0.11854
0.140516
0.159494
0.189545
0.532824
0.296462
0.233371
0.181218
0.255707
0.303645
0.305223
0.238143
0.130581
0.0509671
0.0219635
0.0201725
0.0221466
0.0293049
0.0415109
0.058919
0.0804213
0.103986
0.124007
0.155709
0.504892
0.302199
0.249117
0.205896
0.265101
0.301412
0.303392
0.244189
0.155393
0.0777455
0.0353621
0.0227575
0.0216981
0.0224961
0.0272424
0.0387953
0.0557027
0.0756378
0.093865
0.125273
0.512324
0.323147
0.279159
0.230445
0.272796
0.301967
0.302007
0.248774
0.174501
0.105328
0.056265
0.0311038
0.0228979
0.0230157
0.0247785
0.0302516
0.0405778
0.055169
0.070403
0.100189
0.533746
0.358249
0.31828
0.254835
0.279771
0.303848
0.302155
0.252577
0.191693
0.130779
0.0800873
0.0446244
0.0288357
0.0253803
0.0256398
0.026889
0.0311166
0.040253
0.0526316
0.0800362
0.577715
0.410038
0.363717
0.281001
0.287922
0.307137
0.303089
0.257516
0.205741
0.152843
0.102336
0.0630197
0.041892
0.0325507
0.0279492
0.0274246
0.0286632
0.0330305
0.0419825
0.0651637
0.653133
0.484102
0.421571
0.308688
0.298863
0.311936
0.305076
0.264383
0.218032
0.16958
0.122535
0.0849069
0.0600753
0.0446295
0.0342516
0.0296585
0.029997
0.0332837
0.0380559
0.0540782
0.7648
0.589364
0.498613
0.343301
0.31534
0.318494
0.308785
0.271655
0.229883
0.18598
0.144219
0.108551
0.0810723
0.0608624
0.0455583
0.0362426
0.0342119
0.0355617
0.0382738
0.0481204
0.887615
0.713257
0.596629
0.386193
0.335234
0.324464
0.313
0.278114
0.239207
0.200484
0.162592
0.12856
0.0998829
0.0769428
0.0589288
0.0468292
0.0410942
0.0393349
0.04023
0.0484432
1.11555
0.950342
0.826889
0.549459
0.413673
0.351385
0.328804
0.293792
0.258816
0.225305
0.191957
0.160316
0.131526
0.107053
0.0865476
0.0711824
0.0605057
0.0526388
0.0512054
0.0558785
2.80612
2.45888
1.74119
1.22605
1.23403
1.36607
1.36367
1.2007
0.970212
0.779736
0.637935
0.538973
0.505868
0.513852
0.536532
0.580747
0.655346
0.765568
0.88822
1.12369
2.45477
1.61044
0.838055
0.761241
1.14516
1.33678
1.33015
1.12132
0.767205
0.490696
0.350585
0.293282
0.297684
0.318002
0.352748
0.404586
0.47991
0.586582
0.708158
0.948707
1.77317
0.833428
0.669956
0.634719
1.13085
1.33296
1.32423
1.08742
0.611171
0.306496
0.219595
0.226933
0.24476
0.274351
0.309458
0.352226
0.409621
0.489719
0.589851
0.822005
1.22947
0.746195
0.616753
0.508815
0.929389
1.30554
1.37986
1.20941
0.588081
0.147157
0.156697
0.177008
0.201918
0.227053
0.250534
0.274039
0.300309
0.332981
0.373349
0.531327
1.19968
1.08727
1.06022
0.837515
0.128233
0.234347
0.249342
0.261465
0.270999
0.278028
0.283505
0.290019
0.298818
0.312716
0.330113
0.40052
1.31445
1.28595
1.28296
1.2645
0.314582
0.323757
0.318889
0.314841
0.311552
0.309599
0.310113
0.311995
0.315179
0.319937
0.324351
0.344865
1.3112
1.28351
1.28077
1.33971
0.343423
0.325173
0.320703
0.316656
0.313715
0.310955
0.307939
0.307656
0.308298
0.310504
0.313348
0.324308
1.15461
1.08099
1.05026
1.17213
0.292718
0.224773
0.235702
0.243596
0.248385
0.251009
0.252974
0.256738
0.263106
0.26964
0.274281
0.286169
0.932553
0.735493
0.5811
0.537734
0.12681
0.302388
0.32962
0.276274
0.032682
0.055738
0.0906339
0.122993
0.147524
0.16672
0.184933
0.199889
0.211205
0.220794
0.228835
0.247748
0.747075
0.468976
0.291724
0.142573
0.227664
0.313757
0.313522
0.217993
0.0596586
0.020699
0.0278565
0.0446235
0.069126
0.0967584
0.122324
0.143445
0.158388
0.172419
0.187301
0.213496
0.607845
0.333744
0.212725
0.152899
0.242632
0.308666
0.309215
0.229181
0.0952509
0.0290818
0.0160644
0.0193239
0.0314903
0.0508067
0.0723418
0.0918797
0.109279
0.130223
0.149777
0.179083
0.515554
0.281291
0.219825
0.173978
0.254604
0.304499
0.305437
0.237619
0.127312
0.0475424
0.0198289
0.0181733
0.0202763
0.0267653
0.0374426
0.052299
0.0721009
0.0956741
0.115345
0.14488
0.484759
0.286781
0.237384
0.197923
0.263316
0.301378
0.303088
0.242835
0.150996
0.0729567
0.0330267
0.0207357
0.0186576
0.0191455
0.022816
0.0332609
0.0496461
0.0691099
0.0858485
0.114081
0.492707
0.307283
0.267297
0.221898
0.269957
0.300162
0.300819
0.245683
0.169134
0.101005
0.0535163
0.0283354
0.0195052
0.0194565
0.0215486
0.0272606
0.0370207
0.0502492
0.063252
0.0897017
0.515035
0.340793
0.302752
0.245036
0.275551
0.300844
0.298711
0.248133
0.186893
0.126963
0.076067
0.0402153
0.0242339
0.0219938
0.0228646
0.02468
0.028675
0.0362997
0.046437
0.0710418
0.558101
0.389604
0.343502
0.268263
0.282328
0.302861
0.298859
0.252591
0.201762
0.147645
0.0960255
0.0560716
0.0359742
0.0289748
0.0255224
0.0250381
0.0258521
0.0291285
0.0368007
0.0579897
0.630429
0.46026
0.396516
0.293641
0.291256
0.306255
0.299929
0.259465
0.2128
0.162187
0.113726
0.0764956
0.0536129
0.0402597
0.0309877
0.0265249
0.026621
0.029229
0.0336036
0.048669
0.737904
0.561636
0.469754
0.324878
0.304988
0.311359
0.302492
0.266096
0.222394
0.176464
0.134991
0.100545
0.0742452
0.0549723
0.0403403
0.0315137
0.0299188
0.0312037
0.0337292
0.0427573
0.857847
0.681359
0.564005
0.362935
0.321862
0.316311
0.305783
0.271072
0.230611
0.191341
0.154514
0.120656
0.0917184
0.0689522
0.0516383
0.0406269
0.0360275
0.0345886
0.0352839
0.0426751
1.08734
0.917184
0.790805
0.5138
0.390899
0.338257
0.318539
0.284132
0.24954
0.217173
0.183901
0.151049
0.120925
0.0965515
0.0773788
0.0634392
0.053943
0.0468306
0.0447715
0.0488666
2.82688
2.48284
1.6634
1.1713
1.22612
1.3718
1.36384
1.19913
0.966579
0.771268
0.632094
0.531987
0.493724
0.501057
0.52344
0.566405
0.63983
0.749812
0.873043
1.11331
2.48508
1.46921
0.781904
0.746954
1.15209
1.33768
1.32819
1.11646
0.76043
0.478333
0.341147
0.284547
0.288456
0.307918
0.341805
0.391002
0.463555
0.56802
0.689084
0.93456
1.68195
0.765153
0.653174
0.633051
1.128
1.3311
1.32178
1.07898
0.59854
0.29418
0.208222
0.21779
0.238366
0.268183
0.301282
0.339764
0.393067
0.468794
0.565697
0.800416
1.15656
0.711004
0.599229
0.497732
0.939197
1.3045
1.38023
1.20625
0.566613
0.141973
0.151401
0.170208
0.19455
0.219878
0.243365
0.265941
0.29058
0.320413
0.356321
0.502866
1.17489
1.08291
1.05224
0.824294
0.118172
0.227521
0.242099
0.252749
0.262353
0.270523
0.276627
0.282761
0.290796
0.303803
0.319914
0.384012
1.30792
1.27658
1.2731
1.25915
0.306123
0.316475
0.311422
0.307788
0.305069
0.303321
0.303857
0.305933
0.309664
0.315181
0.32024
0.338148
1.30773
1.27764
1.27227
1.3329
0.334636
0.317988
0.313227
0.309412
0.306926
0.30489
0.302355
0.302289
0.303373
0.306078
0.309552
0.320029
1.15096
1.07823
1.04615
1.1663
0.283858
0.219308
0.229518
0.237766
0.242667
0.245242
0.247879
0.252232
0.258863
0.265929
0.270713
0.282072
0.928101
0.736643
0.586633
0.552603
0.115914
0.30002
0.327362
0.275292
0.0303587
0.0540272
0.0880266
0.118357
0.142198
0.160911
0.179222
0.195374
0.20619
0.215459
0.22382
0.243161
0.736125
0.46105
0.286256
0.135743
0.222731
0.310658
0.311017
0.214302
0.0552855
0.0189669
0.0258605
0.0417814
0.0646218
0.0916104
0.117086
0.137131
0.152025
0.166385
0.181657
0.20885
0.59773
0.322855
0.19807
0.144371
0.237378
0.305787
0.306616
0.225394
0.0901644
0.0266486
0.0145874
0.0176236
0.0288729
0.0469348
0.0670114
0.0860125
0.103129
0.123865
0.143972
0.173423
0.503331
0.270131
0.206952
0.162837
0.247757
0.302029
0.302983
0.234178
0.121284
0.0440222
0.0180674
0.0155741
0.0173102
0.0232618
0.0338232
0.0477898
0.0663102
0.0895064
0.108507
0.13788
0.466765
0.27404
0.227525
0.186747
0.256526
0.299212
0.300936
0.239465
0.145359
0.0681287
0.0303383
0.0176816
0.0159101
0.016654
0.0199286
0.0291728
0.044657
0.0630064
0.0791334
0.107
0.474437
0.292271
0.257801
0.211581
0.264206
0.297472
0.299325
0.242421
0.163877
0.0959912
0.0496987
0.0245059
0.0169127
0.0169467
0.0189588
0.0242734
0.0331052
0.0453673
0.0577752
0.0831633
0.497408
0.325112
0.291027
0.235176
0.270616
0.298034
0.297442
0.245471
0.182155
0.122264
0.0710747
0.0363267
0.0209382
0.0192636
0.02036
0.0223719
0.0261466
0.0331876
0.0420246
0.0651233
0.540199
0.373019
0.328198
0.257825
0.277112
0.300066
0.297596
0.250405
0.198571
0.142856
0.0911252
0.0514264
0.0312477
0.0255024
0.0228556
0.0228965
0.0238316
0.026465
0.0329775
0.0527026
0.612304
0.443555
0.378744
0.282459
0.285237
0.303895
0.298956
0.257511
0.210063
0.158115
0.109071
0.0709865
0.0480365
0.0356105
0.0277189
0.0243374
0.0243599
0.0263174
0.0300814
0.0443235
0.719825
0.545009
0.450284
0.311633
0.297723
0.30961
0.302006
0.264891
0.220074
0.173222
0.13063
0.0951338
0.0678711
0.0492835
0.0362336
0.0284483
0.0268923
0.0278633
0.0300661
0.0387268
0.839877
0.664353
0.543418
0.345663
0.312949
0.315092
0.30589
0.270242
0.228929
0.188795
0.151099
0.11533
0.0853002
0.0630407
0.0466222
0.0364246
0.032193
0.0307919
0.0314744
0.0383
1.07372
0.905364
0.774542
0.486157
0.375311
0.3339
0.317572
0.282941
0.248419
0.215915
0.181506
0.146605
0.115196
0.0906919
0.0719787
0.0583625
0.0491078
0.042458
0.0399957
0.0436295
2.84501
2.47888
1.57667
1.12416
1.22121
1.37495
1.36314
1.19426
0.957997
0.758028
0.621601
0.522096
0.47975
0.487013
0.510612
0.554645
0.627945
0.737721
0.861297
1.10375
2.48601
1.33251
0.749866
0.73946
1.15051
1.33675
1.32758
1.11237
0.752861
0.467183
0.327785
0.274563
0.277428
0.29571
0.329916
0.378245
0.449551
0.553108
0.673234
0.920625
1.58491
0.728618
0.643087
0.629361
1.11485
1.32966
1.3221
1.07577
0.591216
0.286467
0.194028
0.204931
0.229383
0.261407
0.294611
0.329513
0.37855
0.449914
0.543223
0.778565
1.08238
0.698878
0.605722
0.499481
0.894722
1.3068
1.38234
1.20497
0.529077
0.134141
0.143508
0.161326
0.185827
0.212587
0.237059
0.258961
0.281815
0.308234
0.338972
0.472103
1.15939
1.0888
1.05972
0.855946
0.134159
0.224778
0.240131
0.249512
0.258298
0.267068
0.274163
0.279511
0.285539
0.2958
0.309204
0.365324
1.30222
1.27127
1.26815
1.25056
0.302542
0.314977
0.310067
0.3065
0.303877
0.301372
0.301466
0.302752
0.30566
0.310534
0.315262
0.329911
1.30239
1.27179
1.26552
1.32511
0.331691
0.317267
0.31282
0.308838
0.306162
0.304415
0.302036
0.300588
0.301064
0.30269
0.305375
0.314112
1.14534
1.07164
1.03718
1.15884
0.281295
0.216918
0.227232
0.235271
0.240264
0.243181
0.24627
0.250383
0.255713
0.261661
0.26639
0.276912
0.923672
0.731733
0.577436
0.530666
0.117697
0.297803
0.325442
0.274164
0.0280405
0.0501244
0.0832765
0.113098
0.137602
0.157388
0.175013
0.191176
0.202584
0.212085
0.220614
0.238351
0.729736
0.453727
0.279143
0.130734
0.220751
0.309792
0.311123
0.213746
0.0541931
0.0175049
0.0236001
0.0386676
0.0607522
0.0865074
0.111543
0.131908
0.147295
0.162838
0.177716
0.203578
0.593157
0.315932
0.187987
0.139562
0.235915
0.304658
0.306812
0.224963
0.089284
0.0251377
0.0134525
0.0163032
0.02635
0.042955
0.061769
0.0802153
0.0986865
0.119709
0.138744
0.167779
0.499663
0.2637
0.197542
0.1563
0.244852
0.300962
0.303179
0.233512
0.119919
0.0422209
0.0168451
0.0138269
0.0152875
0.0202805
0.0301596
0.0445092
0.0627956
0.0848941
0.102992
0.131782
0.455234
0.266441
0.220817
0.179615
0.25291
0.298394
0.300999
0.239036
0.143647
0.0655816
0.0280199
0.0156399
0.0135452
0.0143472
0.0179565
0.0267261
0.0409666
0.0580644
0.0728749
0.100555
0.460623
0.281912
0.251434
0.205118
0.261217
0.296286
0.299793
0.242399
0.162132
0.0918879
0.0462576
0.0216591
0.0145286
0.0148934
0.0170368
0.0217604
0.0297618
0.0405095
0.0521406
0.0775511
0.48199
0.312755
0.283644
0.228712
0.268221
0.296576
0.298226
0.245793
0.1789
0.117763
0.0670431
0.0327446
0.0186011
0.0171536
0.0182285
0.0205294
0.0240436
0.0301244
0.0385864
0.0609043
0.523442
0.357677
0.316006
0.250027
0.273947
0.298121
0.297791
0.250426
0.195188
0.139238
0.0867033
0.0480853
0.0279877
0.0222817
0.0207324
0.0211985
0.0223545
0.0250717
0.0309657
0.0490526
0.593265
0.42503
0.36112
0.272089
0.280312
0.301409
0.298508
0.256211
0.207679
0.154901
0.105431
0.0669563
0.0429855
0.0310871
0.0248703
0.0226041
0.0229002
0.0249389
0.0282702
0.0411872
0.698786
0.523044
0.426676
0.298193
0.290331
0.306709
0.300763
0.262624
0.217876
0.170213
0.126209
0.0895785
0.0614701
0.0430574
0.031939
0.0263941
0.025331
0.0261355
0.0278269
0.035871
0.818945
0.639174
0.513162
0.326941
0.302943
0.311991
0.303959
0.267792
0.226746
0.184856
0.145461
0.109066
0.0780826
0.0561318
0.0417617
0.0334331
0.0297908
0.0283588
0.0288453
0.0348244
1.05864
0.884429
0.741407
0.450218
0.356253
0.327347
0.313666
0.279607
0.24487
0.210836
0.175675
0.140149
0.108133
0.0839059
0.0663969
0.0537016
0.0449862
0.0387896
0.0361565
0.0394067
2.88587
2.48506
1.52473
1.09406
1.22007
1.37612
1.36479
1.1931
0.952378
0.748298
0.613022
0.517538
0.472771
0.480004
0.505414
0.552125
0.626012
0.735818
0.860143
1.10138
2.49681
1.25754
0.735435
0.736418
1.16016
1.34063
1.32991
1.11261
0.748168
0.459203
0.318556
0.268939
0.271644
0.287831
0.322346
0.372728
0.445394
0.549062
0.670365
0.916644
1.53341
0.70994
0.634096
0.63025
1.126
1.33491
1.32482
1.07661
0.585869
0.281717
0.185794
0.196732
0.223349
0.256641
0.2905
0.322867
0.368891
0.43766
0.529492
0.765436
1.05007
0.689393
0.59451
0.492702
0.903792
1.31095
1.38508
1.20828
0.541338
0.129405
0.139098
0.156474
0.180649
0.208063
0.233407
0.255208
0.276872
0.301798
0.329326
0.452347
1.15067
1.08356
1.05017
0.841946
0.115517
0.222643
0.238407
0.247359
0.255657
0.26493
0.27317
0.279299
0.285077
0.294108
0.305683
0.355508
1.29842
1.26926
1.26672
1.24899
0.301758
0.314822
0.309569
0.30601
0.303648
0.301168
0.301217
0.302428
0.305267
0.309949
0.314392
0.326456
1.2984
1.27013
1.26542
1.32251
0.33126
0.318106
0.313628
0.309654
0.30688
0.305037
0.303112
0.301434
0.301699
0.302987
0.305145
0.31218
1.14088
1.06808
1.03331
1.15687
0.28255
0.216532
0.227333
0.235318
0.240078
0.243016
0.246139
0.25034
0.255086
0.260485
0.265087
0.274644
0.9175
0.724962
0.566914
0.520399
0.117169
0.298395
0.327431
0.275261
0.0278202
0.0487625
0.0811361
0.111711
0.13646
0.156301
0.173268
0.188777
0.201378
0.212071
0.220279
0.23593
0.7235
0.447924
0.27339
0.127087
0.221259
0.311112
0.313432
0.214939
0.0540626
0.0169158
0.0232427
0.0381324
0.0595138
0.0841695
0.108447
0.130526
0.147987
0.162848
0.175902
0.199782
0.589585
0.311126
0.182784
0.136924
0.236167
0.305534
0.309163
0.225755
0.0884897
0.0248013
0.0130577
0.0156585
0.0247118
0.0405953
0.0606453
0.0808388
0.099101
0.118302
0.135945
0.164945
0.497489
0.260552
0.192851
0.153775
0.244926
0.301968
0.305154
0.233415
0.119207
0.0417188
0.0161961
0.0130157
0.0145248
0.0203604
0.0309634
0.045297
0.0623527
0.0825057
0.101163
0.131103
0.450233
0.263119
0.217482
0.176833
0.252664
0.299596
0.302465
0.239148
0.14342
0.0646737
0.0262747
0.0148352
0.013732
0.0144511
0.0178023
0.0259293
0.0387861
0.0561272
0.0729566
0.100614
0.454025
0.277571
0.248454
0.202646
0.261181
0.296989
0.301222
0.243804
0.162264
0.0898708
0.0435582
0.0213982
0.0146209
0.0146557
0.0161581
0.0201477
0.0281148
0.0405391
0.0525467
0.076881
0.473332
0.307259
0.280759
0.226347
0.268337
0.296982
0.300384
0.247571
0.178087
0.114368
0.0650408
0.0330913
0.0183459
0.0162467
0.0171417
0.0198996
0.0244349
0.0311394
0.039207
0.060009
0.512758
0.35006
0.311381
0.247262
0.273561
0.297942
0.299369
0.251289
0.192712
0.136883
0.0862159
0.0482092
0.0268388
0.0204339
0.0200463
0.0212206
0.0230578
0.0257682
0.0308273
0.0475384
0.580222
0.414221
0.353154
0.267873
0.278975
0.300563
0.299533
0.255561
0.205762
0.154628
0.104739
0.0656852
0.0401307
0.0289155
0.0250775
0.0232878
0.0234557
0.0248063
0.0275356
0.0399797
0.683726
0.50832
0.414428
0.292259
0.287571
0.305161
0.300826
0.261276
0.217612
0.169529
0.124
0.0863245
0.0585513
0.0422501
0.0324079
0.0267112
0.0251432
0.0257089
0.0277739
0.0366043
0.803732
0.619536
0.494708
0.317938
0.298648
0.31006
0.303114
0.266767
0.226647
0.182712
0.141768
0.105766
0.0763822
0.0550927
0.0411699
0.0326738
0.0286649
0.0282828
0.0293301
0.0347628
1.04744
0.863889
0.714347
0.428482
0.345999
0.323373
0.311158
0.277871
0.242894
0.206743
0.171574
0.137193
0.105783
0.0810669
0.0636952
0.0511717
0.0429294
0.0387077
0.0358636
0.0380441
2.88706
2.48266
1.51263
1.08516
1.22118
1.3798
1.36656
1.19374
0.952454
0.748294
0.61356
0.51891
0.472164
0.478954
0.504947
0.553459
0.629004
0.740164
0.864778
1.10488
2.49823
1.25381
0.731485
0.732541
1.16481
1.34663
1.33194
1.11297
0.747402
0.459331
0.319598
0.270844
0.272885
0.287041
0.320438
0.371771
0.446191
0.551929
0.675376
0.922283
1.5379
0.706914
0.632327
0.62893
1.13463
1.34094
1.32651
1.0769
0.584266
0.281758
0.187531
0.19825
0.22496
0.257746
0.290828
0.322823
0.368998
0.438768
0.532739
0.772403
1.0508
0.688061
0.592268
0.487293
0.930585
1.31379
1.38506
1.21018
0.535331
0.129017
0.139247
0.156687
0.18119
0.209212
0.234817
0.25616
0.277348
0.301768
0.329549
0.455463
1.14702
1.07813
1.04218
0.81112
0.115913
0.222961
0.238044
0.246753
0.25504
0.2646
0.272811
0.278522
0.283905
0.292692
0.304232
0.354797
1.2969
1.26643
1.26295
1.25267
0.30254
0.315176
0.309363
0.305397
0.302995
0.300363
0.30017
0.301103
0.303629
0.308145
0.312624
0.324758
1.29641
1.26916
1.26462
1.32145
0.332664
0.318314
0.313546
0.308924
0.306025
0.304211
0.302382
0.300382
0.300456
0.301626
0.303885
0.311134
1.13867
1.06684
1.03284
1.1548
0.282977
0.217181
0.227621
0.235175
0.240189
0.243899
0.24695
0.250643
0.255311
0.260538
0.265228
0.274937
0.915427
0.72503
0.569721
0.53668
0.106901
0.298807
0.328446
0.277044
0.02766
0.049967
0.0825753
0.113124
0.137724
0.157324
0.174506
0.189903
0.20251
0.213252
0.221055
0.236311
0.721312
0.448065
0.274779
0.126047
0.220086
0.311222
0.313525
0.214198
0.0523156
0.0167789
0.023503
0.0386105
0.0601572
0.0848861
0.109556
0.131805
0.14915
0.16339
0.176276
0.20042
0.588828
0.31093
0.182734
0.135818
0.235703
0.306227
0.309243
0.225348
0.0864023
0.0245329
0.0130224
0.015666
0.0247396
0.0409145
0.0613095
0.0815615
0.099481
0.118459
0.136185
0.165331
0.497116
0.260317
0.192176
0.15295
0.244653
0.302771
0.305323
0.233999
0.117749
0.0412526
0.0161214
0.0129012
0.0145025
0.0204571
0.0311279
0.0452784
0.0620951
0.0822443
0.10112
0.130954
0.450174
0.262997
0.216558
0.17593
0.252527
0.300552
0.302994
0.239429
0.142073
0.0639238
0.0260562
0.0147103
0.0136088
0.0142849
0.0175271
0.0255434
0.0385391
0.0562266
0.0727105
0.100198
0.454094
0.277636
0.248314
0.201797
0.261086
0.298272
0.301866
0.24276
0.160777
0.0891442
0.0431453
0.0211978
0.0144238
0.0144144
0.0159189
0.0200508
0.0282171
0.0402958
0.0521918
0.0764493
0.473687
0.307633
0.281331
0.225849
0.268759
0.29834
0.300484
0.246072
0.17739
0.113839
0.0643054
0.0326299
0.0180139
0.0160156
0.0169906
0.0196728
0.0239204
0.030374
0.0385286
0.0593125
0.512995
0.350295
0.312213
0.247232
0.274767
0.299472
0.299394
0.250727
0.193039
0.135825
0.0850192
0.0473979
0.0264116
0.0204751
0.0198788
0.0207637
0.0222835
0.0249011
0.0300069
0.0469825
0.580143
0.413719
0.353389
0.268182
0.280669
0.302283
0.299848
0.256544
0.205675
0.153231
0.103601
0.0649544
0.0401325
0.029213
0.02465
0.0225287
0.0227269
0.0242575
0.0272429
0.0398915
0.68337
0.507066
0.413724
0.292914
0.289426
0.306963
0.301507
0.262597
0.216714
0.168563
0.123508
0.086224
0.0587094
0.041938
0.0317849
0.0260111
0.0245946
0.0253577
0.0276506
0.036135
0.80304
0.61746
0.492844
0.318516
0.300474
0.311858
0.30403
0.26721
0.225717
0.182514
0.142075
0.105812
0.0760165
0.0547085
0.0407898
0.0320851
0.0283444
0.0281332
0.0290409
0.0342007
1.04697
0.86073
0.708923
0.426494
0.347085
0.324907
0.312011
0.277411
0.242654
0.207337
0.171825
0.136788
0.105274
0.0808858
0.0634432
0.0507821
0.0428639
0.0382389
0.0352668
0.0375834
2.84867
2.47667
1.55563
1.10926
1.22722
1.38209
1.3686
1.19677
0.956766
0.756551
0.621835
0.524717
0.47946
0.486337
0.511221
0.55843
0.634732
0.74697
0.8719
1.11275
2.49018
1.32224
0.742146
0.736677
1.16886
1.35039
1.33283
1.11454
0.74979
0.46473
0.327646
0.276637
0.278307
0.293981
0.327555
0.378042
0.452873
0.560542
0.684479
0.932382
1.58783
0.71649
0.634672
0.632358
1.13999
1.34502
1.3262
1.07726
0.586949
0.285029
0.19371
0.20505
0.230155
0.26178
0.293899
0.328219
0.378264
0.452463
0.550203
0.791489
1.08018
0.686036
0.588
0.490392
0.934658
1.31706
1.3861
1.21119
0.536316
0.131865
0.141888
0.160314
0.185579
0.213217
0.237956
0.259692
0.282511
0.308953
0.340412
0.478058
1.14867
1.07469
1.04208
0.813476
0.117226
0.222298
0.237551
0.24715
0.256427
0.265886
0.273374
0.278757
0.284759
0.295264
0.309028
0.36618
1.29508
1.26619
1.26332
1.25313
0.301551
0.313548
0.308385
0.304827
0.302329
0.299645
0.299645
0.300803
0.303779
0.309027
0.314107
0.329215
1.29537
1.26884
1.26472
1.3218
0.331065
0.315981
0.31166
0.307793
0.30518
0.303485
0.301309
0.299899
0.300405
0.302182
0.305071
0.314209
1.13836
1.06667
1.03295
1.15553
0.280647
0.216534
0.226947
0.235218
0.240789
0.243882
0.246777
0.250628
0.255726
0.261826
0.266868
0.277803
0.915689
0.72353
0.566692
0.516156
0.118666
0.298495
0.327445
0.276358
0.0272832
0.0515024
0.0849967
0.115066
0.139257
0.158542
0.175728
0.192004
0.203954
0.213318
0.22164
0.239388
0.72425
0.449669
0.276245
0.129611
0.222468
0.311377
0.313123
0.214144
0.0517852
0.0170815
0.0237042
0.0392286
0.0613026
0.0869671
0.112409
0.133367
0.148648
0.163692
0.178239
0.204258
0.590176
0.314015
0.187017
0.139479
0.236996
0.305987
0.308636
0.225042
0.086094
0.0241957
0.013094
0.0159645
0.0260788
0.0430016
0.0624969
0.0813393
0.0995992
0.119955
0.138916
0.168392
0.496792
0.262109
0.1972
0.157199
0.245771
0.302059
0.304606
0.23331
0.116705
0.0405699
0.0162698
0.0134578
0.0150335
0.0203047
0.0304288
0.0447124
0.0624392
0.0843489
0.102757
0.131757
0.454277
0.265385
0.220882
0.180846
0.253785
0.299505
0.302106
0.238731
0.141074
0.063487
0.0270898
0.0152539
0.013212
0.0139545
0.017405
0.0258457
0.0400932
0.057681
0.0724742
0.100072
0.460333
0.281913
0.252196
0.206588
0.262314
0.297435
0.300907
0.242223
0.160215
0.0898205
0.0448707
0.0211526
0.0140903
0.0143775
0.0163795
0.0211666
0.0294675
0.0402337
0.0517997
0.0770183
0.481496
0.312974
0.28548
0.230548
0.269654
0.297701
0.299124
0.245683
0.17762
0.115508
0.0651273
0.0318983
0.0178898
0.0165235
0.0176868
0.020115
0.0236184
0.0295871
0.0379286
0.0600158
0.522109
0.357052
0.317881
0.252199
0.275516
0.299253
0.298479
0.250218
0.194105
0.136674
0.0846496
0.0467676
0.0269394
0.0218644
0.0204337
0.0207431
0.0216054
0.0240952
0.0297596
0.0481814
0.591285
0.42288
0.361599
0.27428
0.28176
0.302478
0.299178
0.256081
0.206294
0.152705
0.103511
0.0654017
0.0421522
0.031035
0.0247147
0.021959
0.0221182
0.0239988
0.0276177
0.0408427
0.696804
0.519836
0.425275
0.299873
0.29164
0.30771
0.301218
0.262664
0.216776
0.168506
0.124792
0.0884547
0.0609049
0.0429481
0.0317969
0.0255184
0.0244751
0.0255116
0.0276299
0.0354288
0.817099
0.635393
0.509432
0.327473
0.303981
0.312931
0.304338
0.267869
0.225852
0.183666
0.144564
0.108045
0.0772267
0.0558657
0.0413397
0.0324267
0.0291696
0.0281283
0.0285741
0.0341724
1.05777
0.88062
0.734129
0.445621
0.355513
0.327696
0.313812
0.279205
0.244198
0.210156
0.175033
0.139118
0.107112
0.0832263
0.0656658
0.0530408
0.0447209
0.0383459
0.0355178
0.0386564
2.82672
2.4763
1.64244
1.16538
1.2394
1.38604
1.37305
1.20392
0.965284
0.768602
0.631381
0.532039
0.492102
0.499315
0.522704
0.568858
0.645708
0.758131
0.882218
1.12118
2.4816
1.45298
0.778793
0.752191
1.17114
1.35457
1.33746
1.12149
0.757734
0.474548
0.338612
0.28351
0.286799
0.305308
0.339438
0.391419
0.467797
0.57628
0.699876
0.944479
1.67946
0.755085
0.650384
0.63783
1.14655
1.34859
1.33031
1.084
0.596221
0.2909
0.204983
0.215049
0.236724
0.266838
0.299661
0.338953
0.394602
0.47414
0.575842
0.814957
1.14794
0.700827
0.593223
0.497704
0.94104
1.31623
1.38823
1.2134
0.545711
0.138053
0.147466
0.166916
0.192477
0.218925
0.243001
0.266025
0.290929
0.321191
0.358658
0.512383
1.16313
1.07529
1.04768
0.817803
0.118833
0.223677
0.23858
0.249544
0.259847
0.26849
0.274819
0.280936
0.2891
0.302277
0.318752
0.384684
1.29768
1.2711
1.26869
1.25345
0.3
0.313196
0.308557
0.304941
0.302187
0.30019
0.300622
0.302604
0.306361
0.312012
0.317079
0.335672
1.29878
1.27246
1.26873
1.32359
0.329264
0.315102
0.310903
0.307424
0.305155
0.303265
0.300587
0.30037
0.30132
0.303851
0.307156
0.317789
1.14329
1.07223
1.04004
1.15749
0.278729
0.216025
0.226976
0.236046
0.241614
0.244234
0.246742
0.250982
0.257587
0.264681
0.269416
0.280695
0.921242
0.729529
0.576213
0.542051
0.111411
0.300642
0.328685
0.276563
0.0299149
0.0524981
0.0864571
0.117152
0.141046
0.159746
0.178304
0.195142
0.206393
0.215457
0.223504
0.242592
0.732332
0.4585
0.282628
0.133586
0.223819
0.312783
0.313312
0.215616
0.0547752
0.0184852
0.0252649
0.0408707
0.063283
0.0901866
0.116418
0.137389
0.152275
0.166174
0.181154
0.208528
0.594472
0.320434
0.19615
0.142996
0.238272
0.307607
0.308726
0.226288
0.0894938
0.0260251
0.0139836
0.0168936
0.0279707
0.0461838
0.0667225
0.0859474
0.102843
0.123197
0.143467
0.173518
0.500374
0.267066
0.205117
0.162381
0.248606
0.30369
0.304901
0.234834
0.12052
0.0428467
0.0172512
0.0151181
0.0169624
0.0229934
0.0334496
0.0470889
0.0652422
0.0885582
0.108119
0.137813
0.464829
0.271603
0.225938
0.186772
0.25755
0.300894
0.302733
0.240317
0.144345
0.0663184
0.029177
0.0173122
0.0153718
0.0160467
0.0190327
0.0279689
0.0435732
0.0624295
0.0786968
0.106384
0.47234
0.290304
0.256873
0.211856
0.265551
0.299007
0.301148
0.243159
0.162645
0.0938801
0.0484966
0.0240922
0.0162883
0.0162691
0.0183403
0.0238402
0.0328912
0.0451766
0.0574193
0.0822688
0.494805
0.322684
0.29074
0.235534
0.272158
0.299484
0.298904
0.245748
0.180886
0.120443
0.0699355
0.0355914
0.019997
0.0186186
0.0198808
0.0221853
0.0260865
0.0329691
0.0413896
0.064087
0.537499
0.369619
0.326725
0.258
0.278407
0.301281
0.298819
0.250268
0.197575
0.141414
0.089792
0.050119
0.0298533
0.024947
0.022734
0.0226164
0.0234075
0.0257563
0.0319738
0.0519096
0.609831
0.439131
0.375211
0.282051
0.286029
0.304832
0.299871
0.257353
0.209083
0.156367
0.107145
0.0689687
0.0465561
0.0352267
0.0276681
0.0238463
0.0236997
0.0254623
0.0294526
0.0439877
0.718642
0.54027
0.444197
0.310159
0.297726
0.31029
0.302501
0.264788
0.218665
0.170667
0.128013
0.0930819
0.066751
0.0488848
0.0358783
0.0273853
0.0259594
0.0270986
0.0295818
0.038313
0.840229
0.661178
0.535276
0.34208
0.312046
0.31559
0.306091
0.269808
0.227063
0.18603
0.148749
0.113663
0.0841029
0.0622465
0.0455939
0.0349372
0.0312353
0.0301963
0.0308921
0.037626
1.07623
0.904061
0.765411
0.475286
0.37108
0.333014
0.317072
0.281781
0.246478
0.21382
0.179856
0.144975
0.113443
0.0890092
0.0703784
0.0571229
0.0483767
0.0417155
0.0391667
0.0427146
2.80255
2.45661
1.72411
1.23025
1.25087
1.38451
1.3736
1.20762
0.972063
0.779054
0.637941
0.538715
0.504284
0.512139
0.535822
0.582767
0.659787
0.771363
0.894366
1.12803
2.45088
1.59374
0.839378
0.778253
1.16899
1.3565
1.34051
1.12728
0.767557
0.489005
0.350522
0.293709
0.297399
0.316716
0.351261
0.404782
0.482325
0.591292
0.71433
0.953764
1.76737
0.820641
0.671094
0.647959
1.15111
1.35148
1.33514
1.0925
0.610455
0.304897
0.219236
0.22682
0.244801
0.273873
0.308433
0.351999
0.411416
0.49469
0.598274
0.832477
1.21809
0.731386
0.605916
0.506391
0.953364
1.32137
1.39299
1.21741
0.578142
0.145231
0.154702
0.175469
0.201277
0.226889
0.250427
0.274147
0.300403
0.333804
0.376567
0.543216
1.18912
1.07936
1.05614
0.826111
0.118406
0.230436
0.245222
0.25733
0.267464
0.274721
0.280254
0.286842
0.295857
0.310103
0.328197
0.401691
1.30235
1.27912
1.27912
1.25834
0.303198
0.319677
0.314879
0.310697
0.307241
0.305053
0.305475
0.307218
0.310316
0.314988
0.319222
0.341067
1.303
1.27969
1.27775
1.33178
0.331783
0.320768
0.316415
0.312515
0.30971
0.307033
0.304061
0.30355
0.304139
0.306227
0.308917
0.32012
1.14829
1.07887
1.04941
1.16651
0.280915
0.221995
0.232789
0.240853
0.245728
0.248109
0.249971
0.253862
0.26043
0.266802
0.271171
0.282763
0.926211
0.734114
0.583105
0.531951
0.124421
0.301313
0.328863
0.2765
0.0308534
0.0559934
0.0906432
0.122272
0.146073
0.165066
0.183486
0.198677
0.209602
0.21854
0.226254
0.245027
0.740582
0.467029
0.291453
0.139499
0.225892
0.313525
0.313579
0.217002
0.0578618
0.0202293
0.0273141
0.0438018
0.0680189
0.095786