/*--------------------------------*- C++ -*----------------------------------*\
  =========                 |
  \\      /  F ield         | OpenFOAM: The Open Source CFD Toolbox
   \\    /   O peration     | Website:  https://openfoam.org
    \\  /    A nd           | Version:  9
     \\/     M anipulation  |
\*---------------------------------------------------------------------------*/
FoamFile
{
    format      ascii;
    class       volScalarField;
    location    "0.0085";
    object      rhoE;
}
// * * * * * * * * * * * * * * * * * * * * * * * * * * * * * * * * * * * * * //

dimensions      [1 -1 -2 0 0 0 0];

internalField   nonuniform List<scalar> 
9720
(
4.70125e+06
3.99124e+06
3.04042e+06
2.26536e+06
2.25536e+06
2.40535e+06
2.38833e+06
2.15799e+06
1.82337e+06
1.49419e+06
1.2113e+06
1.03529e+06
982245
1.00958e+06
1.07393e+06
1.21287e+06
1.39362e+06
1.65959e+06
1.92033e+06
2.46842e+06
3.96365e+06
2.66192e+06
1.59283e+06
1.46828e+06
2.03615e+06
2.34376e+06
2.32513e+06
2.02839e+06
1.45205e+06
953196
688194
590173
633891
703025
825864
1.00414e+06
1.2311e+06
1.513e+06
1.80776e+06
2.34309e+06
3.04778e+06
1.58638e+06
1.27603e+06
1.19876e+06
1.9693e+06
2.33059e+06
2.30809e+06
1.95679e+06
1.11749e+06
570942
449288
515565
619763
760433
930377
1.11776e+06
1.34599e+06
1.60028e+06
1.92156e+06
2.51566e+06
2.25084e+06
1.44234e+06
1.18366e+06
998148
1.58033e+06
2.2947e+06
2.39582e+06
2.12523e+06
1.06745e+06
396016
491793
592675
703215
806978
911001
1.00416e+06
1.11291e+06
1.22293e+06
1.38681e+06
1.90058e+06
2.1949e+06
1.96057e+06
1.89799e+06
1.56721e+06
380287
866249
935684
991145
1.03668e+06
1.06997e+06
1.10177e+06
1.1306e+06
1.17071e+06
1.22297e+06
1.29246e+06
1.5365e+06
2.32546e+06
2.26943e+06
2.25973e+06
2.22175e+06
1.1331e+06
1.19475e+06
1.17643e+06
1.16166e+06
1.14892e+06
1.14819e+06
1.15099e+06
1.15812e+06
1.17046e+06
1.18689e+06
1.20518e+06
1.28516e+06
2.30335e+06
2.24705e+06
2.23434e+06
2.33079e+06
1.2447e+06
1.20569e+06
1.1905e+06
1.17771e+06
1.16942e+06
1.16332e+06
1.15926e+06
1.16073e+06
1.16609e+06
1.17749e+06
1.19043e+06
1.23679e+06
2.07823e+06
1.95389e+06
1.88376e+06
2.05331e+06
1.07331e+06
854183
901444
930158
954176
969821
979607
996667
1.02013e+06
1.04163e+06
1.06576e+06
1.11518e+06
1.74912e+06
1.38272e+06
1.04949e+06
960872
396429
1.02583e+06
1.12707e+06
962798
115327
209695
347979
480970
581231
667077
737130
789064
842993
885888
924243
997588
1.42698e+06
903769
539216
376843
793689
1.09097e+06
1.09593e+06
783583
215844
71621.9
103733
172337
270320
376555
480201
569747
643936
708295
767059
867347
1.153e+06
652491
433019
466200
858925
1.07348e+06
1.08223e+06
826991
354981
107400
61793.4
75841.9
118315
190561
284387
368594
453403
540465
615212
736799
992024
568887
494762
562027
912262
1.05936e+06
1.0721e+06
855370
476741
183404
80501.3
75245.5
77258.7
101433
152188
218838
303876
390540
472081
602181
944580
610028
596626
666138
953660
1.05067e+06
1.06873e+06
878667
565156
281357
129944
82376.7
75335.7
75644.7
97171.7
141073
205059
280642
358504
484185
969171
680827
733587
761100
984324
1.05172e+06
1.06506e+06
895811
639688
384415
204116
112917
79645.5
75296.9
83818.8
105065
144110
202565
265158
381229
1.03128e+06
798740
895863
856692
1.01626e+06
1.05683e+06
1.06729e+06
909041
702458
480257
296840
167977
106778
87932.9
88837.6
94238.3
112746
149553
195622
299090
1.16346e+06
965577
1.06877e+06
945234
1.04621e+06
1.06622e+06
1.07151e+06
930897
752176
559339
377221
235623
155084
115056
98829.7
99432.9
108161
126230
156447
243070
1.33878e+06
1.1762e+06
1.27723e+06
1.04814e+06
1.08768e+06
1.08107e+06
1.08007e+06
957293
803770
627620
456675
318230
222869
159649
124273
111262
116171
127672
143338
204970
1.59791e+06
1.43994e+06
1.50327e+06
1.15242e+06
1.14088e+06
1.10072e+06
1.09551e+06
979890
845034
687392
536388
401987
300500
222494
166762
135709
130440
134890
145953
187113
1.85438e+06
1.72714e+06
1.7974e+06
1.3054e+06
1.20923e+06
1.12187e+06
1.11189e+06
1.00475e+06
882365
742929
607281
480246
376034
285091
214593
170491
152616
148306
157140
192223
2.39031e+06
2.24536e+06
2.36799e+06
1.78492e+06
1.44591e+06
1.20744e+06
1.16741e+06
1.05686e+06
953479
838481
724112
605756
498342
399820
317735
259538
223856
199104
199466
219605
4.65567e+06
3.94832e+06
2.9098e+06
2.20858e+06
2.25601e+06
2.44499e+06
2.42292e+06
2.18625e+06
1.82939e+06
1.47964e+06
1.19514e+06
1.01594e+06
956755
981171
1.04359e+06
1.17722e+06
1.35084e+06
1.60812e+06
1.86563e+06
2.42203e+06
3.92905e+06
2.45352e+06
1.52361e+06
1.44943e+06
2.09162e+06
2.40518e+06
2.37278e+06
2.06507e+06
1.45893e+06
936877
668455
570944
613242
680322
797525
966499
1.18257e+06
1.45324e+06
1.74006e+06
2.27523e+06
2.92935e+06
1.50863e+06
1.26068e+06
1.19707e+06
2.04957e+06
2.40322e+06
2.36525e+06
1.99631e+06
1.1182e+06
556056
432323
496788
600197
739027
901253
1.07857e+06
1.2923e+06
1.53416e+06
1.84387e+06
2.43086e+06
2.19182e+06
1.41384e+06
1.15264e+06
988003
1.71279e+06
2.35985e+06
2.45235e+06
2.16817e+06
1.10063e+06
393288
486010
580468
685314
786907
887475
973824
1.07417e+06
1.17525e+06
1.32324e+06
1.80456e+06
2.18062e+06
1.97609e+06
1.91074e+06
1.54674e+06
393371
869954
937434
989875
1.03263e+06
1.06123e+06
1.08736e+06
1.11239e+06
1.14776e+06
1.19403e+06
1.255e+06
1.47478e+06
2.34001e+06
2.30223e+06
2.30234e+06
2.27251e+06
1.1528e+06
1.20444e+06
1.18379e+06
1.16581e+06
1.15153e+06
1.14206e+06
1.1421e+06
1.146e+06
1.15468e+06
1.16736e+06
1.18252e+06
1.24931e+06
2.31891e+06
2.27906e+06
2.27699e+06
2.36908e+06
1.26676e+06
1.21697e+06
1.19829e+06
1.18246e+06
1.17133e+06
1.1603e+06
1.14892e+06
1.14835e+06
1.15097e+06
1.15955e+06
1.17084e+06
1.20996e+06
2.09359e+06
1.98345e+06
1.92047e+06
2.09532e+06
1.09083e+06
858705
905907
934862
953616
963863
969499
982787
1.007e+06
1.02816e+06
1.04606e+06
1.08635e+06
1.75381e+06
1.39364e+06
1.05613e+06
999830
400619
1.08041e+06
1.18577e+06
1.00697e+06
120750
208188
343128
475199
572335
652441
724895
779927
829917
865152
896507
965941
1.41193e+06
891932
527623
379498
830701
1.14807e+06
1.1539e+06
819948
221495
69299.2
100703
165849
258856
366384
471474
558182
625878
679658
735337
838873
1.13646e+06
634041
415136
468317
895049
1.1253e+06
1.13405e+06
862822
359881
104426
56878.4
70368
114004
185341
275896
354616
427145
508134
587522
709272
969653
547102
475506
560503
945008
1.10611e+06
1.11819e+06
890786
483801
177866
73747.6
68512.1
73119.7
95726.3
140790
197794
275905
365143
447970
571571
914237
587027
577021
661781
982977
1.09126e+06
1.10955e+06
908529
573192
273742
123887
76973.3
67527.9
67043.8
83072.8
122600
186194
261814
335473
449601
934198
654522
713532
756332
1.00872e+06
1.08333e+06
1.10028e+06
918355
644881
380168
198680
105408
70100.9
65280.5
73649.9
95887.2
134040
188309
242962
347453
995258
766399
868426
849943
1.03409e+06
1.08275e+06
1.091e+06
926426
710136
480484
289528
154520
91340.7
77104.4
79849.7
87440.7
105298
136086
174607
269308
1.12486e+06
925372
1.03273e+06
931420
1.05876e+06
1.08628e+06
1.0911e+06
944297
762374
558307
365500
213612
135481
104179
91601.1
91728.9
97809
111155
137945
218390
1.29495e+06
1.12826e+06
1.22861e+06
1.02656e+06
1.09311e+06
1.09509e+06
1.09498e+06
970334
809743
621029
435614
291738
203482
147400
114540
100222
102901
112089
127203
185573
1.54461e+06
1.38441e+06
1.44677e+06
1.12148e+06
1.13745e+06
1.10876e+06
1.10475e+06
990454
844013
673460
514017
380676
281971
205811
150221
118579
114184
119012
129346
166748
1.79472e+06
1.66439e+06
1.73395e+06
1.25757e+06
1.19481e+06
1.12487e+06
1.11697e+06
1.00861e+06
876385
728201
591022
461416
353750
261720
191730
149744
135069
131214
138388
170008
2.33185e+06
2.18116e+06
2.30101e+06
1.70599e+06
1.40424e+06
1.1939e+06
1.1611e+06
1.05082e+06
944583
828031
709597
583025
467907
368256
289674
235032
201676
177920
174969
192861
4.73418e+06
4.03968e+06
2.86443e+06
2.16665e+06
2.27277e+06
2.49768e+06
2.46428e+06
2.22318e+06
1.85147e+06
1.48677e+06
1.20349e+06
1.01821e+06
950464
971154
1.02987e+06
1.16232e+06
1.34045e+06
1.60399e+06
1.86866e+06
2.43474e+06
4.02777e+06
2.34124e+06
1.47527e+06
1.43906e+06
2.12871e+06
2.44797e+06
2.40816e+06
2.0933e+06
1.46769e+06
928055
665318
565411
609521
674650
789940
959514
1.18188e+06
1.45981e+06
1.76153e+06
2.32173e+06
2.85644e+06
1.43972e+06
1.25472e+06
1.19941e+06
2.08122e+06
2.43858e+06
2.39783e+06
2.01491e+06
1.11571e+06
538861
425937
498787
606692
745889
906362
1.08445e+06
1.30171e+06
1.54567e+06
1.86472e+06
2.49231e+06
2.11328e+06
1.36571e+06
1.13039e+06
986934
1.76548e+06
2.39616e+06
2.49258e+06
2.20338e+06
1.0804e+06
393056
487165
587686
690644
794665
900330
992465
1.09305e+06
1.19201e+06
1.32881e+06
1.80354e+06
2.16515e+06
1.98993e+06
1.92729e+06
1.54538e+06
371376
878350
948675
999621
1.04573e+06
1.08146e+06
1.11117e+06
1.13674e+06
1.17183e+06
1.21918e+06
1.27876e+06
1.49232e+06
2.3642e+06
2.31636e+06
2.31146e+06
2.30635e+06
1.14487e+06
1.22652e+06
1.20721e+06
1.19215e+06
1.1809e+06
1.17282e+06
1.17348e+06
1.1791e+06
1.19088e+06
1.20787e+06
1.22545e+06
1.28733e+06
2.34725e+06
2.30158e+06
2.29275e+06
2.39408e+06
1.26541e+06
1.24066e+06
1.2236e+06
1.20955e+06
1.20078e+06
1.19358e+06
1.18437e+06
1.18562e+06
1.19067e+06
1.20171e+06
1.2158e+06
1.25621e+06
2.11925e+06
2.00731e+06
1.93893e+06
2.1133e+06
1.08608e+06
872679
922766
956096
974622
987297
1.00011e+06
1.01672e+06
1.04134e+06
1.06585e+06
1.08581e+06
1.12727e+06
1.76898e+06
1.41185e+06
1.0835e+06
1.04213e+06
360958
1.11175e+06
1.22507e+06
1.04518e+06
116290
212303
345720
475178
579197
661841
736756
796407
844631
887957
925325
999334
1.41163e+06
887024
518387
366649
846145
1.18544e+06
1.19461e+06
840078
213791
66360.1
96476
164108
257894
364669
469103
554483
630111
694378
752385
861494
1.13504e+06
624283
398839
455349
915137
1.16691e+06
1.17849e+06
891395
350188
97116.8
53425.5
67074.4
109244
177641
264048
349094
426621
508530
589775
718051
960134
532968
465862
552935
964407
1.15123e+06
1.16501e+06
924813
479115
171143
68455.1
58208.2
63514.6
86525.6
132886
190831
266242
355629
437910
569542
895902
572944
572237
654593
1.00629e+06
1.13929e+06
1.15908e+06
943393
582122
270239
115678
65298.1
60031.4
62951.2
76948.9
112714
174307
246972
322964
443607
912716
636826
710493
754378
1.03904e+06
1.13083e+06
1.15324e+06
956867
662672
379224
188652
92951.1
64645.7
62197.6
68534.5
88483.8
123823
176631
233328
339969
969735
748183
865043
856158
1.06894e+06
1.13149e+06
1.1449e+06
971704
734350
482360
278164
144321
82804.8
71362.3
72976.8
80131
97785.2
128665
165529
259944
1.0993e+06
911530
1.0334e+06
945916
1.09509e+06
1.13666e+06
1.14594e+06
991116
791843
565402
365345
206408
123668
95705.3
83311.2
84069.5
90871.8
102732
127937
206661
1.27733e+06
1.1281e+06
1.23856e+06
1.04465e+06
1.12983e+06
1.14834e+06
1.15209e+06
1.01702e+06
840444
640087
444656
284834
190206
135670
105635
93763.2
95223.9
102740
116460
173818
1.53564e+06
1.39902e+06
1.4679e+06
1.14043e+06
1.17459e+06
1.16597e+06
1.16457e+06
1.04038e+06
884418
706080
527434
376092
267754
193793
142449
111344
105163
108158
116982
153834
1.7942e+06
1.69632e+06
1.77286e+06
1.26735e+06
1.22953e+06
1.18411e+06
1.17987e+06
1.06191e+06
922816
762992
606948
460261
345867
254842
184792
141455
124685
119308
125843
156489
2.34226e+06
2.24245e+06
2.38658e+06
1.71388e+06
1.43367e+06
1.24759e+06
1.22366e+06
1.1081e+06
996120
868309
734617
593741
471205
368284
286719
228153
191277
166334
161022
178294
4.81131e+06
4.08524e+06
2.77372e+06
2.11015e+06
2.28084e+06
2.52821e+06
2.4863e+06
2.237e+06
1.85052e+06
1.47474e+06
1.19385e+06
1.00253e+06
931983
954297
1.01249e+06
1.14737e+06
1.33282e+06
1.60411e+06
1.87775e+06
2.45456e+06
4.07745e+06
2.23142e+06
1.44627e+06
1.42764e+06
2.134e+06
2.46885e+06
2.42846e+06
2.10604e+06
1.46081e+06
911058
646181
546342
592804
660214
774883
945033
1.17693e+06
1.46662e+06
1.78209e+06
2.3705e+06
2.74882e+06
1.39872e+06
1.24822e+06
1.18972e+06
2.08304e+06
2.45499e+06
2.4182e+06
2.02627e+06
1.11268e+06
523388
404165
490112
606090
749413
908968
1.08627e+06
1.30798e+06
1.55499e+06
1.88348e+06
2.5548e+06
2.00464e+06
1.34659e+06
1.14696e+06
1.00468e+06
1.69933e+06
2.43386e+06
2.51889e+06
2.21689e+06
1.01614e+06
385384
478665
587780
693960
802048
912719
1.01137e+06
1.11186e+06
1.2066e+06
1.32855e+06
1.78749e+06
2.15291e+06
2.00939e+06
1.96446e+06
1.61876e+06
501922
917417
991934
1.03864e+06
1.08257e+06
1.12136e+06
1.15495e+06
1.17776e+06
1.20596e+06
1.2463e+06
1.29792e+06
1.49652e+06
2.37888e+06
2.32817e+06
2.3196e+06
2.29268e+06
1.20776e+06
1.29156e+06
1.26931e+06
1.25176e+06
1.2381e+06
1.2249e+06
1.22318e+06
1.22522e+06
1.23364e+06
1.24905e+06
1.26446e+06
1.31773e+06
2.35915e+06
2.31084e+06
2.29992e+06
2.39457e+06
1.33673e+06
1.30951e+06
1.29036e+06
1.27369e+06
1.26269e+06
1.25461e+06
1.24399e+06
1.23876e+06
1.24142e+06
1.24845e+06
1.25932e+06
1.2948e+06
2.13099e+06
2.01456e+06
1.94056e+06
2.11573e+06
1.14684e+06
911456
964524
999660
1.01664e+06
1.0283e+06
1.04604e+06
1.06393e+06
1.08333e+06
1.10164e+06
1.12134e+06
1.16244e+06
1.77378e+06
1.41129e+06
1.07732e+06
1.00561e+06
402583
1.1611e+06
1.28128e+06
1.09298e+06
112397
209100
342667
470820
585926
681403
759303
819700
865048
912736
958170
1.03073e+06
1.40893e+06
874521
505756
367832
883780
1.24511e+06
1.25813e+06
880003
224919
65627.8
89283.4
158101
258306
365593
467848
552054
630014
711617
776752
882914
1.13703e+06
619429
385514
456837
957150
1.22364e+06
1.24089e+06
935852
363969
93980.9
51633.4
66335
105953
169625
248584
334131
427077
521168
596664
724534
956773
523718
465121
560310
1.00181e+06
1.20639e+06
1.22696e+06
971043
491158
170441
67905.1
52966.4
56467.4
76588.8
121451
186612
267843
354223
430158
563770
879945
563195
578127
662370
1.04264e+06
1.19394e+06
1.21938e+06
988754
600640
275511
111621
57468.9
50310.3
56587.5
73655.3
110279
167853
234568
304452
432930
897842
623911
716217
764267
1.07935e+06
1.18336e+06
1.21379e+06
1.00257e+06
690747
384639
181360
82096
57298.5
60193.7
67850.2
84096.8
115205
161174
218654
333079
949164
732375
868942
869014
1.11263e+06
1.18335e+06
1.20589e+06
1.02283e+06
764494
486704
266853
131978
76939.5
69119.7
68961.1
75007.6
90455
120130
160087
256683
1.07553e+06
894349
1.03311e+06
963687
1.13682e+06
1.18746e+06
1.20463e+06
1.04367e+06
822263
572571
357747
202293
117732
88131.5
77032.8
77622.6
85901.5
100811
125975
200854
1.25479e+06
1.11883e+06
1.23977e+06
1.05946e+06
1.16618e+06
1.19788e+06
1.20918e+06
1.06364e+06
868297
650674
452676
286320
178312
122506
95599.8
87960.1
91806.7
100768
112628
166148
1.51688e+06
1.39687e+06
1.46776e+06
1.15239e+06
1.2055e+06
1.2156e+06
1.2197e+06
1.08082e+06
916752
731961
544683
372761
249579
173835
130559
108358
102961
103385
109457
145108
1.78482e+06
1.70682e+06
1.77419e+06
1.26481e+06
1.25375e+06
1.23283e+06
1.23309e+06
1.10278e+06
961453
792921
616401
451743
326156
238076
176605
137873
119456
111677
116956
145583
2.35114e+06
2.28797e+06
2.42583e+06
1.68413e+06
1.44101e+06
1.2881e+06
1.2717e+06
1.15138e+06
1.03372e+06
894324
744195
591076
462694
361274
281838
221477
182029
156653
150235
167386
4.90024e+06
4.11439e+06
2.70308e+06
2.06185e+06
2.28776e+06
2.53922e+06
2.49648e+06
2.24354e+06
1.84585e+06
1.46102e+06
1.18079e+06
990563
920949
944558
1.00357e+06
1.14248e+06
1.33516e+06
1.61039e+06
1.88774e+06
2.46467e+06
4.11446e+06
2.1562e+06
1.43171e+06
1.42557e+06
2.1595e+06
2.48449e+06
2.4397e+06
2.11582e+06
1.45548e+06
897220
631671
532119
578423
648495
763719
936719
1.17565e+06
1.47101e+06
1.79384e+06
2.38858e+06
2.67327e+06
1.37355e+06
1.23856e+06
1.19796e+06
2.1209e+06
2.4699e+06
2.431e+06
2.03784e+06
1.10496e+06
512406
386977
480146
601160
745511
904486
1.07682e+06
1.2972e+06
1.54317e+06
1.87584e+06
2.56855e+06
1.95045e+06
1.32587e+06
1.12129e+06
1.00204e+06
1.73101e+06
2.45134e+06
2.53703e+06
2.23544e+06
1.03729e+06
376770
470308
582878
691889
800139
913298
1.01588e+06
1.11521e+06
1.20852e+06
1.31948e+06
1.75385e+06
2.14287e+06
2.00309e+06
1.95998e+06
1.60018e+06
415764
927528
1.0061e+06
1.05229e+06
1.09546e+06
1.13667e+06
1.17533e+06
1.20159e+06
1.22903e+06
1.26638e+06
1.31194e+06
1.49142e+06
2.38365e+06
2.33776e+06
2.33168e+06
2.31927e+06
1.24984e+06
1.31884e+06
1.29497e+06
1.27716e+06
1.26413e+06
1.25051e+06
1.24856e+06
1.25044e+06
1.25866e+06
1.27392e+06
1.28798e+06
1.33251e+06
2.36095e+06
2.31685e+06
2.30986e+06
2.40866e+06
1.38469e+06
1.3462e+06
1.32592e+06
1.30941e+06
1.29791e+06
1.2883e+06
1.2781e+06
1.27109e+06
1.27299e+06
1.27882e+06
1.28765e+06
1.31601e+06
2.13302e+06
2.01752e+06
1.94235e+06
2.12719e+06
1.19475e+06
930829
989532
1.02665e+06
1.04135e+06
1.0512e+06
1.06995e+06
1.0897e+06
1.10772e+06
1.12148e+06
1.13911e+06
1.1778e+06
1.7673e+06
1.40157e+06
1.06195e+06
990132
414929
1.21584e+06
1.34734e+06
1.14808e+06
114310
211423
341197
471577
590846
693626
773818
832509
877633
929838
978082
1.04393e+06
1.40029e+06
863406
495349
367640
912376
1.28931e+06
1.30732e+06
910819
235358
66355.6
87241.9
157822
261779
369824
466870
554150
638746
725673
790603
888904
1.13324e+06
614380
378691
460075
986731
1.26384e+06
1.28847e+06
967049
374418
93816.5
50950
67155.7
104280
163974
244155
336085
436486
533496
602294
726483
952313
518471
466526
567346
1.03077e+06
1.24568e+06
1.27223e+06
1.00043e+06
500497
171301
68869.9
52623
53841.9
76075.2
123731
194514
277209
357524
428317
567163
871820
558183
584461
672079
1.07081e+06
1.23249e+06
1.26104e+06
1.01775e+06
612670
281007
109928
54931
49216.5
56173.4
75459.9
112579
165054
229668
303508
437336
890023
619401
722743
774902
1.10863e+06
1.21855e+06
1.25357e+06
1.03516e+06
709496
391697
175751
80362.4
56769.6
61791.2
69125.6
82326
110531
160718
220850
338097
936815
726656
875426
880362
1.14258e+06
1.21614e+06
1.24738e+06
1.05721e+06
785559
489591
261836
132477
77727.6
69778.6
68994.7
74121.7
91590.9
123646
167992
260964
1.0582e+06
885886
1.03711e+06
976867
1.16464e+06
1.21784e+06
1.24329e+06
1.07479e+06
839691
576983
357458
207012
117673
84914.3
75919.8
77289.3
87903.8
106086
130212
199287
1.23433e+06
1.10899e+06
1.24157e+06
1.06983e+06
1.1898e+06
1.22532e+06
1.24545e+06
1.08956e+06
882954
660164
458490
292242
173173
116236
96023.4
89592.4
95613.2
103732
112308
162927
1.49424e+06
1.38336e+06
1.4634e+06
1.15992e+06
1.22458e+06
1.24026e+06
1.2515e+06
1.10267e+06
936630
745039
554847
374400
242332
170707
131445
111967
105932
104691
109782
148576
1.76485e+06
1.68894e+06
1.75867e+06
1.26265e+06
1.26776e+06
1.2555e+06
1.26107e+06
1.12486e+06
984302
807331
622628
448080
320676
235124
179595
140343
118195
112399
117865
146452
2.34229e+06
2.27962e+06
2.4073e+06
1.64974e+06
1.43837e+06
1.30398e+06
1.29314e+06
1.17222e+06
1.05055e+06
902647
746069
590177
460011
358223
279625
217226
176715
157951
151062
165554
4.90125e+06
4.11034e+06
2.68351e+06
2.0458e+06
2.29163e+06
2.54763e+06
2.49978e+06
2.24548e+06
1.84629e+06
1.46111e+06
1.18396e+06
992557
918852
942669
1.00296e+06
1.14545e+06
1.34197e+06
1.62063e+06
1.89876e+06
2.47196e+06
4.11736e+06
2.15229e+06
1.4259e+06
1.42085e+06
2.16879e+06
2.49711e+06
2.44292e+06
2.11711e+06
1.45452e+06
897284
635863
535358
578204
647190
761461
936328
1.17866e+06
1.47881e+06
1.80592e+06
2.39985e+06
2.67997e+06
1.37019e+06
1.23856e+06
1.20044e+06
2.13566e+06
2.48175e+06
2.43421e+06
2.03895e+06
1.10262e+06
513049
389286
483747
605982
748557
904418
1.07573e+06
1.29706e+06
1.5466e+06
1.88633e+06
2.58952e+06
1.95215e+06
1.32222e+06
1.11472e+06
996707
1.77981e+06
2.46198e+06
2.53795e+06
2.24163e+06
1.02709e+06
376092
471045
584090
694244
804245
918319
1.01986e+06
1.11803e+06
1.20965e+06
1.32165e+06
1.76692e+06
2.13703e+06
1.99487e+06
1.94819e+06
1.54222e+06
413009
928013
1.0045e+06
1.04981e+06
1.09298e+06
1.13554e+06
1.17433e+06
1.19909e+06
1.22512e+06
1.26155e+06
1.30673e+06
1.48914e+06
2.38234e+06
2.33301e+06
2.32421e+06
2.33122e+06
1.25682e+06
1.32029e+06
1.2943e+06
1.2747e+06
1.26151e+06
1.24733e+06
1.24461e+06
1.24581e+06
1.25305e+06
1.2678e+06
1.28212e+06
1.327e+06
2.35713e+06
2.31495e+06
2.308e+06
2.40791e+06
1.40105e+06
1.34681e+06
1.32571e+06
1.30697e+06
1.29497e+06
1.28529e+06
1.27562e+06
1.2675e+06
1.26887e+06
1.27413e+06
1.28375e+06
1.31328e+06
2.12899e+06
2.01536e+06
1.94113e+06
2.1258e+06
1.20611e+06
934189
991303
1.02572e+06
1.04081e+06
1.05457e+06
1.07384e+06
1.09149e+06
1.10913e+06
1.1218e+06
1.13984e+06
1.1796e+06
1.76392e+06
1.40191e+06
1.06863e+06
1.02577e+06
362855
1.23103e+06
1.36617e+06
1.16924e+06
116541
217239
348844
478390
596317
698776
780624
838887
882891
934769
981823
1.04608e+06
1.39732e+06
864634
497116
364216
909071
1.29176e+06
1.31074e+06
908547
228071
65948.7
88574.9
160356
265275
373927
472640
560679
644355
729248
793712
892836
1.13158e+06
614313
378576
456646
986341
1.26919e+06
1.2917e+06
966830
365097
92338.3
50862.1
67467.1
104597
165601
247574
339955
438991
535478
603933
728591
951500
518210
466142
564985
1.03149e+06
1.25163e+06
1.27559e+06
1.00637e+06
494942
169492
68645.2
52192.3
53788.7
76595.1
124703
194905
276771
357175
428418
567158
872638
558287
584305
670501
1.07242e+06
1.23921e+06
1.26649e+06
1.02366e+06
608990
278371
109084
54555.9
48783.1
55571.1
74602
111293
164285
230030
302740
437050
890838
621327
725053
773788
1.11098e+06
1.22664e+06
1.2603e+06
1.03492e+06
704566
388705
174197
79656.7
56075.6
61055.1
68442.1
82045.2
111057
159847
221101
337542
937784
729883
880180
880770
1.14722e+06
1.22505e+06
1.2522e+06
1.05374e+06
783461
488178
259452
130896
76614.7
69033.4
68356.2
73470.4
89920.4
122077
165971
258263
1.05905e+06
889194
1.04275e+06
979034
1.17277e+06
1.22729e+06
1.24753e+06
1.07431e+06
842344
574760
353828
204066
115837
84855
75272.5
75876.4
85682.8
103471
126667
196852
1.23515e+06
1.11124e+06
1.24614e+06
1.07367e+06
1.20042e+06
1.23563e+06
1.25056e+06
1.09653e+06
886555
657570
454899
289130
172492
117164
94423.5
87455.7
93061.9
101639
110637
162636
1.49542e+06
1.3844e+06
1.46558e+06
1.16578e+06
1.23642e+06
1.25118e+06
1.25832e+06
1.11343e+06
937255
742822
552705
373372
242338
169506
130380
109778
103721
102746
108749
147015
1.76619e+06
1.68911e+06
1.75788e+06
1.26896e+06
1.27987e+06
1.26657e+06
1.26871e+06
1.13225e+06
983060
807428
624160
448986
319714
235021
178320
137493
116386
111340
116508
144716
2.34456e+06
2.27869e+06
2.39795e+06
1.64831e+06
1.44847e+06
1.31437e+06
1.30087e+06
1.17464e+06
1.05225e+06
907492
749294
589987
459306
358290
278601
215401
176412
156345
149170
163843
4.81777e+06
4.08293e+06
2.74315e+06
2.0869e+06
2.29646e+06
2.54327e+06
2.49409e+06
2.24297e+06
1.84852e+06
1.47224e+06
1.19529e+06
1.00503e+06
929663
951869
1.01267e+06
1.15404e+06
1.34586e+06
1.62267e+06
1.89808e+06
2.4707e+06
4.08536e+06
2.21957e+06
1.43714e+06
1.42852e+06
2.17005e+06
2.49582e+06
2.43506e+06
2.11098e+06
1.45456e+06
904551
647316
546589
590774
656863
770420
944793
1.18355e+06
1.48245e+06
1.80413e+06
2.39014e+06
2.74736e+06
1.37944e+06
1.24005e+06
1.20625e+06
2.12914e+06
2.48194e+06
2.42464e+06
2.03055e+06
1.10192e+06
517949
400540
490338
608335
749845
905566
1.08357e+06
1.30971e+06
1.56696e+06
1.91057e+06
2.59781e+06
1.99944e+06
1.32103e+06
1.11053e+06
1.00012e+06
1.78396e+06
2.46911e+06
2.53504e+06
2.2364e+06
1.0267e+06
379024
474451
588194
696889
807546
919856
1.02012e+06
1.12251e+06
1.21839e+06
1.34403e+06
1.82083e+06
2.13534e+06
1.98694e+06
1.93642e+06
1.54711e+06
410963
911504
987401
1.03592e+06
1.08237e+06
1.12416e+06
1.16002e+06
1.18362e+06
1.2122e+06
1.25413e+06
1.30762e+06
1.51081e+06
2.3732e+06
2.32536e+06
2.31882e+06
2.32316e+06
1.24372e+06
1.29322e+06
1.27065e+06
1.25347e+06
1.24059e+06
1.22683e+06
1.22525e+06
1.22734e+06
1.23629e+06
1.25357e+06
1.2705e+06
1.32597e+06
2.34691e+06
2.30596e+06
2.29803e+06
2.40039e+06
1.37776e+06
1.31141e+06
1.29361e+06
1.27866e+06
1.26851e+06
1.2605e+06
1.25039e+06
1.24536e+06
1.24857e+06
1.25636e+06
1.26847e+06
1.30584e+06
2.12075e+06
2.00788e+06
1.93451e+06
2.12219e+06
1.18132e+06
914297
968918
1.00552e+06
1.02444e+06
1.0365e+06
1.0541e+06
1.0715e+06
1.09007e+06
1.10817e+06
1.12859e+06
1.1724e+06
1.76001e+06
1.39459e+06
1.05573e+06
979646
414590
1.21373e+06
1.3457e+06
1.15039e+06
114086
218105
353417
481942
596197
691461
769261
830322
876292
922485
967646
1.04102e+06
1.4002e+06
867513
499218
370052
900036
1.26673e+06
1.28245e+06
892220
216321
65316
90762.5
161853
263093
371412
476052
562892
640070
720878
785524
891488
1.12991e+06
616265
386246
463186
973253
1.2442e+06
1.26445e+06
947563
354601
90912.4
50353.1
65302.5
105701
171519
253736
341385
434396
526749
601380
731125
950482
521778
470507
570730
1.01807e+06
1.22585e+06
1.24839e+06
983856
484031
164676
65698.9
51841
56066.2
77362
123436
188963
268648
354729
431692
566790
879966
563474
587209
676783
1.05924e+06
1.21327e+06
1.23908e+06
1.00242e+06
597256
269097
109090
56771.5
49585.5
55509.9
72161.4
107820
165842
234847
304902
434506
899322
628918
727843
780187
1.09732e+06
1.20248e+06
1.2339e+06
1.0165e+06
689631
379683
178074
80874.6
55977.8
58690.5
66018.9
82591.5
115303
161612
220231
334016
949935
739080
883650
886752
1.1323e+06
1.20218e+06
1.22523e+06
1.03544e+06
767035
483966
262766
129611
74480.3
67083
67486.1
74410.4
89904
119849
159055
254671
1.0746e+06
900487
1.04938e+06
983844
1.15734e+06
1.20615e+06
1.22288e+06
1.0548e+06
827975
570067
353055
197599
113512
86846
76608.3
76559
83712.7
97599.1
121300
198107
1.25374e+06
1.12398e+06
1.25616e+06
1.08112e+06
1.18645e+06
1.21625e+06
1.22663e+06
1.07654e+06
875222
649653
447386
280549
175543
123246
95766.8
85981.9
88796
96868.2
109688
165197
1.51743e+06
1.40227e+06
1.48197e+06
1.17414e+06
1.22579e+06
1.23381e+06
1.23575e+06
1.09733e+06
924648
731020
541626
370386
248917
174417
130987
104967
99419.1
100524
108210
143811
1.78753e+06
1.7147e+06
1.7854e+06
1.284e+06
1.27377e+06
1.25081e+06
1.24864e+06
1.11929e+06
969240
795538
618308
451277
324989
238731
175372
133778
116778
110448
115466
143542
2.3583e+06
2.30182e+06
2.43897e+06
1.69271e+06
1.45734e+06
1.3045e+06
1.28709e+06
1.16463e+06
1.04318e+06
901757
749735
592065
461977
360424
279793
219487
181382
155477
148350
164615
4.73161e+06
4.02922e+06
2.84129e+06
2.16536e+06
2.30055e+06
2.52462e+06
2.47938e+06
2.23286e+06
1.84936e+06
1.48068e+06
1.2001e+06
1.01467e+06
943583
965969
1.02715e+06
1.1649e+06
1.34733e+06
1.61488e+06
1.87951e+06
2.443e+06
4.01741e+06
2.3235e+06
1.47747e+06
1.45422e+06
2.1631e+06
2.47973e+06
2.42358e+06
2.10332e+06
1.46127e+06
918781
658847
558559
601718
668467
784206
957658
1.1846e+06
1.46939e+06
1.77143e+06
2.32644e+06
2.84381e+06
1.4246e+06
1.25491e+06
1.21417e+06
2.1152e+06
2.46968e+06
2.41301e+06
2.02573e+06
1.10799e+06
529939
417649
492434
602128
741742
902097
1.08605e+06
1.3105e+06
1.56631e+06
1.89892e+06
2.5336e+06
2.09497e+06
1.34736e+06
1.12164e+06
1.00041e+06
1.78186e+06
2.44666e+06
2.51859e+06
2.22546e+06
1.03821e+06
384182
479942
584833
691378
800292
909526
1.00529e+06
1.1086e+06
1.20961e+06
1.35333e+06
1.85253e+06
2.14715e+06
1.9796e+06
1.92225e+06
1.54541e+06
402778
882168
953617
1.00558e+06
1.05378e+06
1.0911e+06
1.12153e+06
1.14706e+06
1.18232e+06
1.23078e+06
1.29144e+06
1.51129e+06
2.35715e+06
2.31615e+06
2.31303e+06
2.30618e+06
1.20028e+06
1.2416e+06
1.22143e+06
1.20467e+06
1.19198e+06
1.18178e+06
1.18144e+06
1.186e+06
1.19705e+06
1.21421e+06
1.23103e+06
1.29505e+06
2.33308e+06
2.29389e+06
2.28803e+06
2.38994e+06
1.32659e+06
1.25591e+06
1.23874e+06
1.22455e+06
1.21541e+06
1.20746e+06
1.19656e+06
1.19628e+06
1.19999e+06
1.2099e+06
1.22314e+06
1.26397e+06
2.10961e+06
1.99964e+06
1.92978e+06
2.11021e+06
1.13657e+06
877539
930041
966528
986802
998135
1.01012e+06
1.02611e+06
1.05039e+06
1.07406e+06
1.09286e+06
1.13377e+06
1.75872e+06
1.39821e+06
1.06485e+06
1.02896e+06
362839
1.18419e+06
1.30555e+06
1.11163e+06
121360
210608
345390
476686
582096
666786
744355
806656
855310
897214
934009
1.0073e+06
1.40546e+06
881972
511427
370017
871568
1.22384e+06
1.2317e+06
863182
217385
66338.7
95564.5
162983
257228
365529
473688
562340
638088
701943
759377
868404
1.12727e+06
620521
399351
462393
940718
1.20204e+06
1.21314e+06
913863
355135
96349.9
51721.5
65568.4
108133
177909
266215
352798
430857
511830
593714
725083
953307
529000
470316
564282
989570
1.18408e+06
1.19761e+06
947374
485551
168975
66458.5
57825.3
63630.3
86840.3
133091
190653
265382
355617
440771
574769
893618
569849
579812
669737
1.03221e+06
1.17049e+06
1.18933e+06
966544
588438
267450
113305
65269.5
58930.7
61592.9
74910.7
109804
172447
247785
325327
446436
911165
637824
720489
771379
1.06608e+06
1.1603e+06
1.18318e+06
978250
669197
377342
187083
92191.3
62848
60550.9
67376.5
88038.5
124776
178608
235646
340489
967621
751491
877908
874558
1.09674e+06
1.15978e+06
1.17307e+06
990274
742880
484098
277798
142645
79676.8
69402.8
71959
80525.9
98945.7
129714
164936
258056
1.09693e+06
916191
1.04632e+06
965802
1.12222e+06
1.16341e+06
1.17245e+06
1.00814e+06
803126
569459
364550
202841
118736
94073.6
83668.9
83768.7
89908.6
100491
124397
204701
1.27794e+06
1.1357e+06
1.25208e+06
1.06401e+06
1.15524e+06
1.1736e+06
1.17643e+06
1.03572e+06
852341
642828
441926
279109
185824
135421
106385
92347
92795.6
99334.4
113918
173102
1.54102e+06
1.4108e+06
1.47989e+06
1.15899e+06
1.19779e+06
1.19021e+06
1.18673e+06
1.06075e+06
894702
706236
523476
371863
265943
193880
142196
107579
101440
104846
114825
152664
1.80524e+06
1.71819e+06
1.78677e+06
1.28057e+06
1.25039e+06
1.20732e+06
1.20102e+06
1.08032e+06
931432
764123
606232
459001
344738
254090
182069
136108
120885
116896
123638
154181
2.36113e+06
2.2759e+06
2.41612e+06
1.71547e+06
1.44804e+06
1.26702e+06
1.24288e+06
1.12312e+06
1.00538e+06
873961
738981
594602
469205
364870
282287
224458
189186
164424
158552
175032
4.64726e+06
3.94676e+06
2.89974e+06
2.23028e+06
2.28747e+06
2.47777e+06
2.4415e+06
2.19951e+06
1.8341e+06
1.47775e+06
1.19401e+06
1.0133e+06
951263
977739
1.04272e+06
1.17994e+06
1.35451e+06
1.613e+06
1.86933e+06
2.42087e+06
3.91711e+06
2.43275e+06
1.53312e+06
1.48493e+06
2.13373e+06
2.4406e+06
2.39321e+06
2.07705e+06
1.46127e+06
934224
668038
568413
609637
676268
792095
960863
1.17591e+06
1.44739e+06
1.73117e+06
2.25937e+06
2.90828e+06
1.49065e+06
1.26636e+06
1.22186e+06
2.0872e+06
2.4374e+06
2.38782e+06
2.00832e+06
1.11821e+06
553276
431440
495000
596217
732389
893484
1.07379e+06
1.29026e+06
1.53822e+06
1.85253e+06
2.43438e+06
2.16539e+06
1.38692e+06