/*--------------------------------*- C++ -*----------------------------------*\
  =========                 |
  \\      /  F ield         | OpenFOAM: The Open Source CFD Toolbox
   \\    /   O peration     | Website:  https://openfoam.org
    \\  /    A nd           | Version:  9
     \\/     M anipulation  |
\*---------------------------------------------------------------------------*/
FoamFile
{
    format      ascii;
    class       volVectorField;
    location    "0.0085";
    object      rhoU;
}
// * * * * * * * * * * * * * * * * * * * * * * * * * * * * * * * * * * * * * //

dimensions      [1 -2 -1 0 0 0 0];

internalField   nonuniform List<vector> 
9720
(
(-1348.7 -1356.09 93.5575)
(-898.803 -1341.56 81.1283)
(-803.571 -1318.22 17.5071)
(-721.703 -1249.32 -11.8206)
(-434.593 -1421.65 -6.36997)
(-140.208 -1539.14 -11.956)
(134.365 -1526.84 -10.6292)
(438.568 -1366.99 -7.76171)
(636.79 -1092.16 -2.6895)
(695.388 -801.197 -5.55919)
(669.427 -562.64 0.581548)
(629.009 -407.945 3.95492)
(628.596 -327.861 -1.13336)
(665.35 -284.906 -2.19725)
(716.985 -261.735 8.20729)
(811.134 -258.094 17.2546)
(924.594 -265.339 18.0904)
(1086.59 -285.297 12.7502)
(1241.56 -302.758 13.3989)
(1563.83 -344.04 16.9183)
(-1320.92 -896.832 87.6053)
(-866.381 -870.732 41.4695)
(-754.597 -788.05 -6.75516)
(-585.111 -865.514 -16.5612)
(-455.483 -1289.8 -5.9108)
(-141.894 -1507.87 -12.1231)
(140.985 -1492.89 -6.37706)
(457.094 -1288.63 -7.12372)
(608.959 -842.259 1.9244)
(544.047 -458.241 0.1357)
(453.045 -255.09 -2.09527)
(410.319 -170.6 3.77284)
(446.852 -151.878 3.15352)
(497.475 -138.167 3.05233)
(578.114 -143.713 4.61367)
(692.883 -154.402 6.88569)
(839.281 -160.172 10.654)
(1018.7 -170.531 10.6847)
(1206.73 -160.556 9.89936)
(1530.18 -189.019 13.717)
(-1295.67 -783.775 41.6258)
(-786.044 -749.176 3.55359)
(-651.223 -647.775 -5.69986)
(-523.982 -695.866 -22.4397)
(-472.065 -1233.31 -5.56819)
(-158.227 -1495.94 -9.03525)
(156.42 -1478.09 -6.76967)
(479.357 -1231.43 -1.26205)
(541.3 -609.044 -4.10111)
(371.829 -229.326 2.57463)
(315.608 -127.024 -2.2987)
(366.058 -107.362 -6.9443)
(431.888 -112.774 -0.123105)
(518.678 -125.498 3.00504)
(621.487 -142.92 4.44581)
(736.294 -157.764 -4.89438)
(879.069 -162.896 -8.98855)
(1042.72 -169.956 -7.66588)
(1247.9 -152.239 -5.4141)
(1621.16 -139.06 -2.46054)
(-1238.5 -700.071 7.72001)
(-852.132 -574.742 3.86785)
(-690.197 -515.11 13.829)
(-534.003 -516.555 -13.1669)
(-538.384 -972.055 -12.5769)
(-280.587 -1457.88 -2.85841)
(63.1569 -1521.85 -10.7475)
(398.013 -1336.29 -3.66175)
(511.301 -597.374 -7.67059)
(269.237 -107.674 -3.14531)
(324.427 -116.662 -2.41976)
(387.076 -125.643 -6.03674)
(455.191 -138.695 -4.34505)
(520.073 -149.79 -4.60421)
(584.103 -158.976 -3.35159)
(644.446 -165.573 -3.95695)
(714.285 -166.907 -5.50002)
(788.87 -166.277 -5.60178)
(893.464 -158.961 -5.58949)
(1225.01 -120.53 -5.21762)
(-1385.91 -428.571 -6.64465)
(-1247.72 -443.262 -4.62783)
(-1194.04 -459.046 -0.645744)
(-971.98 -517.821 1.86715)
(253.049 -90.7967 -4.14993)
(561.214 -111.531 -4.0026)
(602.767 -117.552 -3.65038)
(636.799 -119.546 -3.49834)
(664.761 -118.523 -3.62535)
(686.137 -115.047 -3.86896)
(705.601 -110.737 -6.22781)
(724.439 -105.775 -7.3378)
(749.779 -101.385 -6.73213)
(784.04 -100.756 -6.30466)
(828.66 -99.2449 -6.58062)
(989.176 -86.0154 -6.84464)
(-1497.23 -137.243 -9.56291)
(-1469.33 -139.983 -9.99194)
(-1458.63 -155.419 -9.72965)
(-1419.17 -273.941 -8.42924)
(744.062 -69.13 -4.9281)
(780.282 -38.1259 -5.05975)
(768.946 -36.2516 -4.92475)
(760.025 -34.9531 -5.01932)
(752.308 -34.1258 -5.6335)
(752.306 -33.2529 -5.82093)
(754.391 -32.2521 -5.66046)
(759.372 -31.9296 -5.65023)
(767.548 -31.5683 -6.01566)
(778.727 -30.8787 -6.28854)
(790.289 -28.9725 -6.59811)
(842.148 -20.9836 -6.79036)
(-1481.92 131.148 -15.3476)
(-1452.05 135.537 -11.4966)
(-1438.38 151.006 -10.2587)
(-1487.92 60.2314 -18.6465)
(816.065 11.1678 -5.92496)
(785.835 39.6536 -4.17468)
(776.419 37.2253 -4.40587)
(768.425 35.3369 -5.46789)
(763.134 33.7499 -5.37023)
(759.268 32.0336 -4.7749)
(756.722 31.2382 -4.82679)
(757.544 31.0394 -5.53745)
(760.564 31.2918 -6.52523)
(767.513 31.9373 -6.73923)
(775.35 32.6441 -6.29236)
(804.449 36.2411 -6.13272)
(-1324.9 426.449 -13.8327)
(-1248.75 445.705 -12.3974)
(-1191.64 467.966 -6.82819)
(-1299.26 386.194 -8.07121)
(699.409 89.0797 -4.82141)
(549.4 110.04 -2.37055)
(578.576 110.693 -6.31638)
(597.377 110.228 -5.01455)
(612.883 107.736 -1.37857)
(623.535 104.935 -1.13264)
(630.828 102.326 -4.96316)
(642.012 98.8206 -8.80483)
(657.054 97.3975 -7.74501)
(671.828 95.7816 -4.45337)
(686.957 94.1351 -3.80187)
(718.91 94.0848 -4.94164)
(-1051.97 617.446 -10.9063)
(-802.885 587.806 -7.84688)
(-570.675 515.718 -13.5188)
(-533.224 474.313 -18.245)
(-93.9519 263.125 -5.2607)
(-64.877 684.86 -6.03498)
(11.5287 750.959 -5.41453)
(85.5529 637.262 -3.62588)
(51.2714 58.0085 -1.17634)
(125.098 63.1007 -5.18762)
(212.583 88.8068 0.222401)
(296.494 110.814 3.69694)
(361.145 124.217 0.407006)
(415.442 131.412 -6.33659)
(460.694 135.123 -9.01921)
(495.494 136.665 -4.34231)
(529.955 135.827 1.44576)
(558.73 136.3 1.20061)
(583.418 135.892 -4.5375)
(631.103 135.181 -6.46222)
(-766.867 669.105 -13.743)
(-433.132 520.973 -8.62989)
(-215.449 354.54 -5.15322)
(-103.802 257.373 -5.42757)
(-105.977 521.448 -4.82056)
(-35.2698 723.127 -5.85642)
(39.0412 724.883 -4.64926)
(107.263 510.781 -0.956756)
(62.2948 132.292 -4.78513)
(34.5666 35.864 0.524975)
(58.1878 40.0103 2.62718)
(101.212 57.3075 -1.76438)
(161.724 81.3267 -6.37071)
(226.856 105.374 -6.84849)
(290.775 124.297 -1.0285)
(348.044 136.523 5.09411)
(394.194 145.186 3.51701)
(436.39 150.109 -5.19507)
(474.589 153.665 -8.83007)
(538.719 159.514 -6.22161)
(-536.159 641.302 -8.3208)
(-241.454 432.616 -9.13474)
(-121.738 306.243 -7.59481)
(-111.25 310.306 -6.36562)
(-111.298 561.002 -3.58055)
(-33.2897 711.892 -5.63342)
(36.4552 716.085 -4.98629)
(106.877 538.617 -5.51053)
(89.3724 219.757 -0.899211)
(40.0712 61.3548 2.78452)
(29.5953 30.4377 -1.24327)
(40.5859 31.3502 -4.04627)
(66.3263 45.3012 -3.43916)
(109.595 67.5362 0.675727)
(164.528 92.6734 4.40747)
(216.461 112.841 3.13312)
(268.265 129.218 -3.8469)
(323.344 143.151 -9.30025)
(370.154 155.613 -5.5305)
(446.73 169.182 -1.88388)
(-391.67 605.816 -4.23402)
(-164.843 397.62 -2.63203)
(-102.16 353.906 -10.0143)
(-119.781 371.387 -7.87221)
(-113.099 594.005 -3.81927)
(-32.25 702.892 -5.98621)
(34.5173 709.433 -5.47333)
(105.631 557.809 -5.12637)
(109.287 298.644 4.04707)
(59.6292 108.209 -0.753097)
(32.0804 43.1392 -3.81885)
(34.9807 35.6633 -2.46356)
(40.2556 33.9464 0.816293)
(55.5198 41.5713 2.03055)
(83.6095 58.2304 1.20763)
(122.571 78.8097 -2.88446)
(172.765 102.168 -7.1828)
(226.367 124.423 -5.94075)
(275.848 142.178 0.305751)
(356.071 164.534 1.0959)
(-316.203 607.291 -9.5518)
(-146.299 432.392 -4.23096)
(-112.045 417.393 -3.56054)
(-133.721 435.266 -5.1142)
(-111.428 619.783 -3.894)
(-31.447 697.761 -6.69725)
(32.8588 706.856 -5.25476)
(103.053 573.268 -1.39396)
(121.336 357.221 1.40303)
(83.7515 169.405 -5.83232)
(48.327 72.0575 -3.40515)
(35.0026 42.8581 0.960212)
(35.9786 36.7493 2.36981)
(39.484 34.4692 0.243884)
(51.3105 41.1024 -2.48986)
(75.5794 56.8991 -4.32986)
(111.645 79.0762 -4.28477)
(156.23 102.063 0.44902)
(200.689 123.406 2.51233)
(276.743 152.649 0.161008)
(-274.045 641.867 -11.3962)
(-134.143 484.014 -5.45292)
(-124.775 502.442 -0.99084)
(-144.028 495.318 -5.97759)
(-107.741 639.765 -4.43473)
(-30.5894 698.726 -6.8202)
(31.197 704.441 -5.50865)
(100.138 584.836 -0.737953)
(126.973 405.855 -6.13443)
(106.813 233.963 -7.243)
(71.0281 117.166 0.687536)
(45.1451 60.8253 2.75175)
(35.2142 41.5226 0.573618)
(36.9315 37.5703 -1.88631)
(42.8681 38.8405 -2.86289)
(54.7423 46.3862 -2.16987)
(75.77 61.4035 0.0751259)
(107.958 81.4364 3.28645)
(142.186 102.486 1.94058)
(210.989 134.954 -1.32466)
(-252.54 691.95 -1.82004)
(-141.071 561.403 -4.07419)
(-138.626 602.662 1.52434)
(-152.159 555.69 -4.82557)
(-103.498 659.565 -7.22043)
(-29.7705 702.39 -6.83085)
(30.6334 705.631 -5.62608)
(97.8007 593.926 -4.22821)
(129.791 447.807 -9.94353)
(124.233 295.168 -2.08561)
(95.434 172.972 4.76429)
(62.8942 91.7568 2.23338)
(43.8948 56.0417 -1.65614)
(39.8216 45.0364 -2.68562)
(42.7739 43.1834 -1.62858)
(47.1276 43.5921 0.569456)
(56.9658 49.9097 2.31307)
(76.1318 63.9422 2.57245)
(100.963 81.8631 -0.0109384)
(160.184 116.074 -2.05098)
(-249.67 781.879 6.87996)
(-153.146 668.802 -1.52969)
(-151.452 710.102 -7.17363)
(-157.881 614.303 -5.62044)
(-99.0598 679.285 -7.89969)
(-29.5719 708.832 -7.16216)
(30.3408 708.167 -6.05124)
(94.7921 607.613 -7.98266)
(131.398 481.195 -5.72445)
(134.395 347.821 4.02386)
(114.945 223.878 3.80365)
(83.9669 132.018 -1.73634)
(61.42 82.9908 -3.5522)
(50.0051 59.7963 -2.01282)
(45.1305 49.5341 0.613917)
(46.9576 47.5087 2.51594)
(51.9708 49.1437 2.63286)
(61.7395 55.4995 0.769764)
(77.9892 68.4639 -1.49401)
(124.752 101.368 -2.05257)
(-256.919 892.495 8.38994)
(-159.581 805.177 3.80222)
(-156.025 841.537 -10.183)
(-158.063 681.002 -7.45726)
(-95.3458 705.762 -7.20961)
(-29.3107 718.657 -7.60724)
(30.3022 713.319 -6.3993)
(93.0005 624.553 -7.6965)
(130.748 514.026 -0.00449249)
(142.25 391.001 2.79836)
(130.32 273.857 -3.29831)
(106.33 182.066 -6.53904)
(84.6469 121.588 -3.72659)
(67.067 84.064 0.383728)
(54.6743 62.7791 2.39551)
(50.0346 54.097 2.42248)
(53.4405 54.0747 1.09729)
(60.6724 57.7799 -1.28128)
(69.2275 64.5111 -1.51514)
(101.508 88.4731 -0.0901819)
(-276.701 1050.67 3.54722)
(-168.599 974.237 4.54284)
(-161.607 988.4 -9.18019)
(-156.791 752.125 -7.26275)
(-95.0107 740.842 -6.99842)
(-28.6895 731.806 -7.79009)
(30.8094 722.662 -6.62261)
(91.7537 640.083 -5.13191)
(131.207 541.59 -0.0806922)
(146.99 430.818 -5.03251)
(142.726 326.077 -9.01194)
(127.475 235.008 -5.58883)
(108.063 167.967 0.860104)
(88.4794 119.291 3.89671)
(71.3416 85.327 2.96261)
(59.926 66.8753 0.739373)
(58.8635 62.2914 -1.38802)
(62.7377 62.7921 -2.01382)
(68.4829 67.043 -0.488982)
(89.6678 82.2365 1.76846)
(-294.694 1203.45 3.54594)
(-155.691 1158.96 3.90256)
(-144.853 1177.96 -7.5803)
(-149.828 850.619 -7.47257)
(-93.502 785.072 -7.63528)
(-26.8998 745.263 -7.93663)
(31.4395 732.762 -7.04894)
(89.8464 655.969 -4.19679)
(130.887 565.418 -4.4402)
(150.292 467.12 -8.43574)
(154.302 370.895 -5.83468)
(144.303 283.507 -0.187028)
(128.641 212.421 2.68857)
(109.66 154.391 2.57203)
(89.8765 111.784 0.326667)
(75.0005 85.6908 -1.52827)
(69.0842 73.828 -1.80444)
(68.3779 69.8044 -0.522932)
(71.9396 72.4424 1.55711)
(89.4459 85.736 2.15392)
(-335.079 1520.12 6.84536)
(-177.258 1474.08 7.5042)
(-130.49 1538.31 -3.48575)
(-114.462 1162.23 -7.08206)
(-80.8861 941.858 -8.01768)
(-19.1613 801.185 -8.11472)
(34.935 767.886 -7.39077)
(90.2257 690.182 -5.11134)
(130.697 611.919 -5.94228)
(155.827 528.464 -6.22145)
(167.33 444.776 -2.41335)
(165.682 362.21 0.788049)
(156.826 287.775 0.489554)
(141.301 223.45 -0.65527)
(123.111 171.867 -1.40226)
(108.511 134.69 -1.84686)
(97.6502 111.474 -0.63162)
(88.3115 96.2929 1.35425)
(89.2222 93.6492 2.06085)
(100.392 99.8985 1.72471)
(-1333.35 -1343.38 114.52)
(-876.188 -1330.42 121.599)
(-797.247 -1300.72 91.6997)
(-715.48 -1240.3 14.6703)
(-427.759 -1432.69 -3.9317)
(-138.314 -1571.08 -10.7704)
(137.004 -1554.74 -7.62615)
(442.487 -1390.02 -5.74875)
(637.415 -1099.71 4.43939)
(687.3 -797.411 5.61766)
(659.248 -558.479 8.0171)
(617.041 -402.768 12.1167)
(612.495 -321.382 8.90421)
(647.202 -278.148 7.34815)
(697.601 -254.782 17.3646)
(788.464 -250.376 27.7591)
(898.016 -255.954 31.8957)
(1055.07 -274.688 29.7622)
(1208.17 -292.049 32.0433)
(1535.58 -334.976 29.4724)
(-1302.29 -883.243 125.779)
(-843.476 -856.306 150.974)
(-727.318 -775.586 19.7652)
(-563.61 -868.815 -9.55529)
(-454.134 -1329.33 -9.97)
(-140.67 -1553.51 -12.9729)
(145.835 -1528.99 -5.36873)
(461.915 -1316.78 -7.32014)
(607.764 -849.756 6.04733)
(533.171 -453.006 9.74234)
(439.677 -249.199 5.32523)
(396.816 -165.641 10.4042)
(432.224 -147.084 9.84544)
(481.576 -133.361 9.49414)
(558.699 -137.618 13.5506)
(667.488 -146.884 18.6841)
(806.986 -151.52 25.8631)
(979.741 -161.167 29.6211)
(1163.18 -151.388 37.1118)
(1488.41 -176.605 37.2939)
(-1270.16 -786.359 113.305)
(-762.278 -726.161 30.2804)
(-640.275 -647.59 -1.42477)
(-511.672 -705.892 0.963034)
(-467.48 -1292.52 -4.34281)
(-158.4 -1550.14 -10.0578)
(159.053 -1522.31 -6.55534)
(483.288 -1263.41 -1.68676)
(536.768 -613.93 3.47353)
(361.521 -224.22 8.84833)
(303.25 -122.792 6.00518)
(352.321 -102.804 1.19472)
(417.558 -107.551 6.42753)
(502.691 -121.333 8.19988)
(599.896 -138.754 12.3985)
(708.011 -152.207 7.32851)
(841.484 -156.383 7.9015)
(997.348 -163.22 11.5724)
(1195.31 -146.75 19.8669)
(1566.06 -130.454 28.309)
(-1223.63 -699.877 32.4795)
(-843.071 -560.518 5.118)
(-669.587 -510.229 15.6117)
(-510.977 -529.503 -1.91397)
(-534.04 -1067.12 -9.22335)
(-280.263 -1513.26 -4.33723)
(62.5164 -1569.7 -12.166)
(398.747 -1373.93 -3.03787)
(513.701 -624.977 6.71407)
(265.536 -104.362 1.56878)
(317.761 -113.58 1.90758)
(376.063 -121.563 -0.340486)
(440.78 -133.247 2.24448)
(503.994 -144.239 1.7595)
(565.562 -153.302 3.44972)
(621.227 -159.405 4.09186)
(685.62 -161.201 4.67533)
(754.316 -161.211 6.27763)
(849.017 -154.961 9.81165)
(1160.48 -119.759 19.7963)
(-1386.74 -424.827 1.56692)
(-1261.22 -447.58 -4.60635)
(-1209.11 -461.882 0.759138)
(-964.728 -518.538 3.98497)
(258.986 -90.7835 0.779843)
(558.094 -109.584 -0.153718)
(598.553 -115.124 -0.0920096)
(630.784 -116.956 0.241928)
(656.995 -116.042 0.531695)
(675.517 -112.399 1.23167)
(691.674 -107.835 0.0760782)
(708.149 -102.918 -0.743425)
(730.519 -98.2866 0.722816)
(760.911 -97.3185 2.33755)
(800.2 -96.2024 3.73303)
(945.217 -85.0416 8.44207)
(-1513.1 -137.101 -4.34124)
(-1496.79 -140.815 -8.29882)
(-1493.87 -155.397 -9.56746)
(-1464.21 -273.69 -6.93088)
(748.297 -68.0632 -2.51407)
(779.061 -37.1056 -1.10618)
(766.875 -35.2826 -1.2106)
(756.472 -34.1176 -1.17065)
(748.125 -33.1073 -1.05086)
(742.865 -32.0754 -0.683235)
(743.36 -31.1027 0.281859)
(746.493 -30.7 1.03404)
(752.557 -30.4127 1.75637)
(761.487 -29.9939 2.04334)
(771.27 -28.3685 1.97866)
(814.833 -21.3494 3.57161)
(-1498.67 130.188 -9.64287)
(-1479.05 136.702 -8.17377)
(-1473.49 151.2 -8.80305)
(-1523.73 58.9417 -14.7208)
(820.934 11.1379 -3.11407)
(785.227 39.2966 -0.200481)
(774.238 36.8266 -0.103457)
(764.755 34.6589 -0.867716)
(758.037 33.0547 -0.779376)
(751.446 31.755 0.233005)
(744.442 30.8677 1.4971)
(744.108 30.3767 1.66061)
(745.713 30.4081 1.42346)
(751.011 30.8531 1.25189)
(757.942 31.2611 1.67334)
(782.607 34.3469 2.85477)
(-1340.44 425.155 -10.9886)
(-1272.51 446.193 -10.9747)
(-1221.72 467.943 -4.91073)
(-1336.47 383.796 -6.61416)
(702.897 87.8642 -2.53585)
(546.499 107.837 1.74851)
(575.847 108.309 -2.65337)
(595.094 107.912 -2.22592)
(607.536 105.91 1.79556)
(614.719 102.253 4.1658)
(619.256 99.3808 2.00346)
(628.553 95.6998 -1.9632)
(644.177 93.9892 -1.80744)
(658.483 93.1662 1.66891)
(669.985 91.1119 3.71015)
(696.499 90.369 3.78318)
(-1059.97 615.106 -6.81924)
(-814.23 586.049 -7.58149)
(-580.256 512.863 -7.02622)
(-564.098 479.925 -2.11955)
(-88.0458 264.601 -0.471196)
(-64.9562 708.598 -6.31539)
(11.9317 776.38 -5.62258)
(86.2104 654.856 -3.53942)
(51.4604 60.4806 0.481702)
(122.808 61.2206 -4.23361)
(208.439 85.4395 0.314851)
(290.666 106.692 5.46426)
(352.617 119.714 4.66464)
(403.631 126.341 -1.00826)
(450.665 129.697 -5.21866)
(487.021 132.113 -1.87988)
(518.238 131.707 5.0626)
(541.837 130.571 8.12584)
(562.153 130.477 4.21397)
(607.802 129.59 2.06266)
(-764.595 659.638 -4.34086)
(-431.802 511.471 -1.99532)
(-212.559 345.884 -0.794111)
(-100.413 257.578 -1.89727)
(-106.639 536.645 -4.67564)
(-34.9406 747.801 -6.04582)
(39.6724 749.794 -4.66911)
(107.339 525.035 -0.512972)
(61.3201 133.226 -3.78966)
(32.8549 34.3891 0.0307701)
(55.5826 38.1067 3.47449)
(95.8847 54.281 0.996024)
(153.426 76.2846 -3.81958)
(219.622 99.9353 -5.72404)
(283.946 119.917 -1.28638)
(338.451 131.781 7.18142)
(380.085 138.459 9.18424)
(415.604 142.714 3.73058)
(452.738 145.674 -1.76484)
(518.681 152.269 0.451273)
(-533.804 630.584 -1.95868)
(-237.221 419.426 -3.72513)
(-117.999 292.996 0.337798)
(-108.978 308.366 -3.39958)
(-111.773 575.85 -3.55467)
(-33.1544 734.522 -5.82169)
(37.1529 738.416 -4.50334)
(107.218 552.817 -4.93817)
(87.6583 220.061 -0.98356)
(38.0288 58.9417 3.30657)
(26.8758 27.6845 0.419181)
(37.3016 28.7509 -2.87503)
(63.2908 42.8561 -3.36639)
(105.765 64.7458 0.258586)
(158.31 88.6447 5.50506)
(206.317 106.789 7.24069)
(251.073 120.622 2.60816)
(303.372 132.843 -4.04133)
(352.249 146.414 -1.75916)
(427.779 161.084 3.68484)
(-386.861 591.514 4.1216)
(-160.315 381.813 2.47385)
(-98.2504 339.433 -1.70935)
(-116.93 366.2 -3.54359)
(-113.385 606.956 -3.11458)
(-32.0319 723.477 -5.74129)
(34.9179 729.114 -4.77246)
(106.2 572.132 -5.21098)
(107.463 298.876 4.88354)
(56.4835 103.56 1.5354)
(29.0182 39.4448 -2.70835)
(31.6358 32.3099 -2.59423)
(37.5482 31.7199 0.583418)
(51.8016 38.549 3.08627)
(76.7262 53.1874 3.51579)
(110.334 70.5402 1.10087)
(156.754 91.6344 -3.46116)
(211.182 114.385 -3.49271)
(260.221 133.292 3.39244)
(335.997 154.584 7.02759)
(-309.471 587.796 2.51991)
(-142.624 415.411 1.8238)
(-106.516 402.926 2.54158)
(-129.681 428.353 0.304648)
(-111.806 630.633 -2.82286)
(-31.1269 714.984 -5.69766)
(33.1764 723.898 -4.49546)
(103.877 584.549 -1.20998)
(119.341 356.968 4.60343)
(79.4052 162.92 -3.18995)
(45.2106 68.3492 -3.20917)
(32.3758 39.6101 0.644165)
(31.7243 32.3285 3.04902)
(34.4062 30.1603 2.11538)
(43.7851 34.7242 -0.195661)
(65.8491 48.7271 -2.19411)
(101.134 70.6978 -2.49969)
(144.834 94.1236 2.22448)
(186.509 113.956 6.6528)
(255.537 140.508 6.35687)
(-266.534 619.182 0.973772)
(-130.643 464.893 1.58541)
(-119.988 487.275 3.60397)
(-140.049 487.736 -0.273688)
(-107.963 647.701 -2.47532)
(-30.2179 710.912 -5.34629)
(31.73 718.414 -3.62452)
(99.8912 591.785 1.50927)
(124.997 403.617 -1.48772)
(102.665 229.196 -5.81699)
(68.1002 113.139 0.307576)
(41.4634 56.3628 3.65625)
(30.6631 36.0487 2.30448)
(31.7157 32.4032 0.243025)
(37.678 33.9429 -1.56813)
(49.8848 41.9146 -1.41614)
(70.1439 56.4383 1.02411)
(99.8209 74.736 5.42076)
(129.651 92.8039 5.60181)
(191.416 121.948 4.04505)
(-244.491 668.648 9.13564)
(-135.467 538.831 6.33385)
(-134.41 581.806 9.85837)
(-148.28 546.209 1.44262)
(-103.503 663.647 -3.93859)
(-29.312 711.266 -4.51854)
(30.8834 713.04 -2.70037)
(97.1077 597.687 -0.62504)
(127.577 447.29 -6.8583)
(121.633 292.197 -2.07321)
(91.5934 167.139 5.93671)
(57.1414 83.902 4.49444)
(37.1965 47.8066 0.511461)
(34.611 39.5444 -1.32192)
(38.3173 38.6915 -1.15849)
(43.5277 40.2219 0.819569)
(52.9012 46.3157 3.2389)
(69.1636 57.8083 4.25112)
(90.03 72.5048 2.68909)
(143.999 103.541 2.21536)
(-241.898 756.932 18.3287)
(-145.547 641.499 11.9312)
(-146.347 683.087 6.17228)
(-153.907 599.596 1.94403)
(-98.7972 680.151 -4.73299)
(-28.9048 714.323 -4.31359)
(30.3819 713.252 -2.61772)
(93.7742 609.364 -4.60794)
(129.84 482.28 -4.16313)
(131.683 343.113 5.97383)
(109.142 214.675 7.84722)
(75.319 119.133 2.28921)
(52.9708 72.4193 -1.26981)
(44.7418 53.9794 -0.99117)
(41.5865 45.5835 1.02265)
(43.1529 43.5622 3.16068)
(46.9516 44.3666 3.54214)
(54.5571 48.7843 2.1895)
(68.9275 60.0245 0.561011)
(112.116 90.4158 1.2567)
(-247.815 865.042 23.3502)
(-150.62 773.167 19.9224)
(-150.228 806.197 7.66585)
(-155.057 661.178 2.36153)
(-94.4752 702.175 -3.00678)
(-28.7422 720.583 -3.5887)
(30.0732 715.745 -2.54649)
(91.8351 626.184 -4.89261)
(129.374 512.123 2.27703)
(137.599 382.536 7.83638)
(122.779 258.784 3.01254)
(96.3298 166.323 -2.65709)
(76.1311 110.425 -1.58172)
(61.1233 77.1287 1.78192)
(49.8885 57.5091 3.83079)
(44.8732 48.6083 3.6214)
(47.3289 48.0143 2.31223)
(53.4207 50.6909 0.249343)
(61.4522 57.1035 0.329988)
(91.8942 79.7828 2.4574)
(-266.31 1018 22.1939)
(-159.04 937.862 23.2297)
(-156.298 947.97 10.7878)
(-154.617 726.142 4.11719)
(-93.4544 731.611 -1.43836)
(-28.3865 730.145 -3.34751)
(30.4408 721.827 -2.56173)
(91.1552 640.116 -1.94958)
(128.282 535.23 5.07919)
(142.11 417.55 2.54196)
(134.73 310.354 -4.07279)
(118.725 221.275 -2.92)
(100.171 156.324 3.10557)
(80.6492 109.636 6.59216)
(63.5115 76.6387 5.33717)
(52.0565 58.5917 2.64217)
(51.3403 54.7954 0.440265)
(55.2465 55.3923 -0.153885)
(60.6606 59.2564 1.57916)
(79.9802 73.0909 4.01911)
(-284.159 1167.12 25.4949)
(-146.839 1118.32 29.898)
(-141.069 1133.12 17.435)
(-148.59 814.089 7.78429)
(-92.3002 768.967 0.228463)
(-26.8933 740.717 -3.06467)
(30.7272 729.494 -2.30272)
(88.8581 652.06 0.156043)
(128.104 556.074 1.5563)
(145.173 454.117 -3.05964)
(147.664 358.401 -2.37136)
(136.84 270.265 3.19823)
(119.384 198.328 7.2451)
(99.3598 140.745 6.92624)
(79.5098 99.4272 3.8109)
(65.3277 75.2915 1.09633)
(60.7824 65.3586 0.462771)
(60.2943 61.7491 1.67348)
(63.264 63.7233 3.82484)
(79.0061 75.772 4.69218)
(-325.784 1484.8 25.0371)
(-167.626 1434.11 30.8282)
(-124.607 1492.96 25.3319)
(-115.887 1106.55 17.6723)
(-81.7783 908.339 5.38868)
(-20.1538 786.2 -0.914874)
(33.6403 757.632 -1.25945)
(87.989 680.319 0.769863)
(127.461 601.039 -0.102769)
(151.396 518.07 -1.37197)
(161.911 432.716 2.26575)
(157.798 346.239 6.26512)
(145.92 268.385 6.70486)
(129.035 204.437 4.96327)
(111.138 155.918 3.0765)
(97.3323 121.66 1.85921)
(87.4517 100.288 2.5543)
(78.7708 85.9961 4.10961)
(78.1657 82.148 4.77896)
(88.0306 87.7589 4.86854)
(-1362.65 -1366.65 96.8741)
(-903.833 -1364.17 113.923)
(-829.312 -1330.57 95.5407)
(-711.417 -1240.88 21.9955)
(-425.55 -1452.28 1.82248)
(-136.165 -1612.4 -2.34565)
(143.785 -1588.52 -6.26264)
(449.056 -1418.93 -5.63502)
(641.219 -1117.18 5.58401)
(687.084 -804.975 8.00932)
(659.936 -566.01 6.00561)
(615.44 -406.373 12.4019)
(606.047 -321.715 10.5626)
(638.416 -277.307 8.28441)
(686.578 -251.966 17.6312)
(776.162 -248.158 28.0133)
(888.808 -253.22 32.4122)
(1049.68 -271.134 30.5282)
(1206.26 -291.001 33.1968)
(1538.4 -334.456 28.5952)
(-1331.46 -907.197 114.157)
(-902.802 -901.827 164.502)
(-710.072 -766.762 17.4901)
(-545.674 -873.986 4.10649)
(-458.639 -1354.93 -1.21811)
(-138.468 -1587.85 -1.32758)
(151.61 -1558.48 -4.63055)
(467.855 -1339.72 -5.04327)
(609.362 -856.485 5.79314)
(526.231 -449.668 11.6909)
(435.593 -248.336 5.01119)
(391.602 -163.382 9.84109)
(427.546 -145.193 10.2915)
(475.321 -130.984 9.16942)
(550.966 -133.604 14.5101)
(658.768 -143.784 20.4195)
(800.87 -148.288 26.8205)
(977.277 -158.175 29.0755)
(1169.1 -149.95 37.752)
(1510.34 -173.446 37.8135)
(-1291.42 -804.553 103.999)
(-753.295 -691.066 14.6845)
(-643.941 -640.834 -8.14699)
(-513.772 -705.325 23.8446)
(-471.883 -1318.78 3.84726)
(-156.677 -1580.66 -5.75953)
(161.689 -1550.57 -6.89983)
(487.317 -1280.91 1.10038)
(534.665 -613.094 3.81596)
(350.071 -216.211 6.60317)
(296.842 -120.925 9.48095)
(349.821 -103.415 3.42141)
(418.251 -103.784 7.57947)
(503.225 -116.018 7.82477)
(597.748 -134.431 13.3698)
(702.996 -150.758 9.3196)
(835.512 -156.052 9.94637)
(990.647 -164.036 11.9373)
(1192 -150.542 18.8544)
(1586.57 -132.073 27.0283)
(-1206.1 -692.728 21.4755)
(-828.065 -530.48 -6.54329)
(-658.503 -501.519 6.24975)
(-508.16 -530.266 -5.7205)
(-536.207 -1106.35 3.46317)
(-276.13 -1543.97 -6.98164)
(64.9374 -1602.48 -11.6302)
(402.466 -1403.69 -1.95856)
(502.295 -615.199 6.09312)
(263.922 -99.1894 2.47326)
(315.692 -108.751 4.81357)
(374.013 -120.876 3.1912)
(437.716 -131.047 5.50599)
(502.366 -140.868 4.03019)
(565.803 -150.716 4.85356)
(623.111 -157.457 4.87713)
(686.186 -160.106 5.34274)
(752.088 -161.194 6.25518)
(838.621 -157.12 9.44361)
(1141.96 -128.401 19.3458)
(-1389.36 -415.827 0.87227)
(-1274.46 -446.637 -5.73518)
(-1226.83 -460.933 -1.85959)
(-969.297 -514.369 1.46078)
(243.15 -85.9192 2.56402)
(556.109 -107.337 2.85136)
(597.227 -112.915 2.6639)
(627.687 -113.97 2.78665)
(655.245 -113.433 3.02522)
(677.448 -110.811 3.5316)
(695.398 -107.05 2.24945)
(711.732 -102.384 0.229239)
(733.359 -97.6658 0.625519)
(763.643 -96.2934 1.90659)
(801.32 -96.1024 2.94823)
(939.771 -89.0822 7.19561)
(-1536.8 -137.352 -4.00821)
(-1513.07 -138.478 -4.96052)
(-1506.15 -154.043 -6.93887)
(-1495.09 -272.719 -4.64843)
(738.666 -66.1429 1.81329)
(782.297 -36.5476 2.00234)
(770.46 -34.6798 2.37876)
(761.601 -33.115 2.4989)
(754.945 -32.4581 1.92025)
(750.391 -31.5883 1.33804)
(751.165 -30.7338 1.42908)
(755.198 -30.3408 1.67621)
(763.035 -30.0813 2.07729)
(774.4 -30.0484 2.34112)
(785.701 -29.0733 2.02142)
(825.39 -23.5828 3.26931)
(-1524.2 129.147 -3.0639)
(-1499.71 138.368 0.357432)
(-1490.73 152.221 -2.22103)
(-1547.96 62.5711 -7.3213)
(813.733 11.2838 2.12335)
(789.157 38.6035 3.40591)
(778.536 36.145 3.99082)
(769.899 34.3225 3.27911)
(764.491 32.657 2.54761)
(760.033 31.1801 2.38569)
(754.296 30.5573 2.87904)
(754.802 30.135 3.05459)
(757.77 29.9495 2.49303)
(764.479 30.464 1.78174)
(773.062 30.9617 1.69925)
(797.964 33.1976 2.37128)
(-1362.78 425.131 -5.10171)
(-1292.53 445.464 -3.70646)
(-1238.88 465.542 1.79529)
(-1352.58 386.607 -2.8072)
(694.043 86.0189 2.75664)
(547.756 105.683 5.3411)
(577.301 107.083 1.59476)
(598.731 105.994 -0.0840476)
(611.167 104.225 2.63614)
(619.248 100.626 6.24921)
(627.208 98.0493 5.57367)
(638.169 95.6276 1.27293)
(654.327 92.9915 -1.30844)
(670.453 92.6399 0.76462)
(682.879 90.9234 3.57273)
(709.553 89.8645 3.99231)
(-1075.58 612.511 -2.10261)
(-831.139 584.542 -3.40978)
(-604.389 515.416 -2.43557)
(-599.189 483.467 -5.00437)
(-84.0868 237.185 -0.264968)
(-63.6876 720.171 -4.65336)
(12.2954 791.236 -3.7021)
(85.4101 670.136 -2.28699)
(54.3007 51.8846 -0.00564801)
(123.864 58.7847 -2.50559)
(208.149 81.9249 -0.471041)
(287.573 101.989 6.00518)
(351.367 115.553 8.27977)
(402.358 123.812 4.13373)
(450.44 127.37 -2.69151)
(489.937 129.396 -2.90848)
(519.681 129.98 2.64243)
(546.346 128.351 8.20825)
(569.122 129.447 6.10896)
(616.891 129.859 3.08611)
(-771.609 654.17 1.14536)
(-435.2 503.614 3.3348)
(-213.28 336.496 0.201784)
(-97.1908 247.054 -0.0279227)
(-103.72 539.19 -2.18848)
(-34.3968 760.817 -3.73695)
(39.4592 764.596 -2.69074)
(105.678 530.181 1.56092)
(58.8072 125.983 -3.28374)
(31.3847 31.776 -1.18438)
(53.0061 35.1757 3.46014)
(93.2228 51.6042 3.75976)
(149.407 73.2965 -0.361325)
(215.121 95.3606 -4.38119)
(279.159 114.934 -3.14636)
(331.958 127.065 4.74544)
(376.562 134.12 10.2422)
(416.09 140.323 7.78539)
(454.32 144.594 0.239514)
(523.548 151.373 -0.163415)
(-540.288 625.165 -2.57193)
(-237.93 409.574 -1.31657)
(-117.48 278.754 3.99888)
(-105.293 296.738 -0.0867742)
(-109.589 579.915 -1.8807)
(-32.534 749.456 -3.6164)
(36.9517 754.671 -2.01378)
(106.841 561.069 -2.65259)
(83.4087 211.951 -2.30441)
(35.2041 54.2505 3.19244)
(25.1093 25.2988 1.90177)
(35.1494 26.6548 -1.24562)
(60.045 39.5154 -3.01006)
(100.379 60.0649 -1.08951)
(150.128 82.4938 4.39676)
(199.827 101.231 8.86023)
(245.645 116.328 6.70459)
(297.995 128.955 -1.32478)
(348.57 141.778 -3.2324)
(426.345 158.367 1.65128)
(-388.704 582.333 2.60722)
(-158.518 369.907 3.45964)
(-100.716 328.346 0.792304)
(-116.719 353.855 -1.92233)
(-110.844 609.491 -1.57732)
(-31.3077 740.219 -3.98168)
(35.0654 746.424 -2.7088)
(105.663 583.01 -4.6956)
(103.511 292 4.10808)
(53.6875 97.8581 3.50088)
(27.0801 36.076 -1.26662)
(27.0981 27.3107 -2.48632)
(32.6072 27.0258 -0.395569)
(46.4384 33.692 2.98111)
(71.4482 48.6022 4.78229)
(104.388 65.9116 3.85301)
(148.8 85.7671 -1.41058)
(203.387 107.336 -4.1154)
(251.118 126.768 1.16817)
(329.489 149.534 6.74678)
(-308.303 573.387 3.53742)
(-140.67 403.198 3.13058)
(-103.24 395.849 2.3712)
(-127.786 416.523 1.70207)
(-109.951 634.716 -1.64103)
(-30.4729 733.195 -4.59876)
(33.4389 742.532 -3.48445)
(103.801 595.828 -1.92529)
(116.784 355.683 6.11326)
(76.7682 157.098 -1.04802)
(41.5957 63.4913 -3.21089)
(27.4594 33.6534 -0.357568)
(27.8712 28.0827 2.61275)
(31.4105 27.2109 3.11033)
(39.7424 31.1395 1.59769)
(59.8051 43.3305 -0.946947)
(93.8251 63.9046 -2.44589)
(135.322 86.3982 0.618109)
(176.978 106.457 7.19992)
(247.558 134.35 8.04877)
(-265.126 602.492 2.48436)
(-128.242 450.003 1.55382)
(-115.614 480.838 0.0646887)
(-137.565 479.035 0.491366)
(-107.184 655.365 -1.43248)
(-29.6893 728.499 -4.73682)
(32.1723 738.97 -3.16799)
(100.178 604.605 1.85109)
(124.616 405.72 1.35842)
(99.354 224.458 -5.93855)
(63.5258 106.619 -1.49414)
(35.8753 49.5294 3.22035)
(27.665 32.2248 3.20872)
(29.3107 29.5651 1.7471)
(34.5597 30.5185 -0.772042)
(45.8251 37.3825 -1.33559)
(64.3713 50.6856 0.454038)
(92.604 68.1197 5.5963)
(122.42 86.2635 7.15852)
(183.686 115.612 5.26855)
(-240.415 649.729 9.54511)
(-132.558 523.264 6.85337)
(-132.557 573.148 7.80493)
(-146.936 541.115 1.35848)
(-103.596 673.671 -2.91404)
(-28.9146 729.295 -4.24629)
(31.2823 734.168 -2.29587)
(97.6752 613.727 1.06617)
(127.922 452.411 -6.07642)
(118.63 288.893 -5.02808)
(86.4742 158.963 4.2859)
(52.2591 77.3965 5.34775)
(33.2108 42.307 1.94034)
(31.273 35.807 -0.665362)
(34.6126 34.8439 -1.31277)
(39.8516 36.3249 0.378439)
(48.8423 42.3463 3.26346)
(64.7985 53.2113 5.07132)
(84.1071 66.6932 3.52647)
(136.747 96.6381 2.24014)
(-239.442 737.43 17.8512)
(-144.341 627.561 12.2518)
(-148.108 673.517 6.07081)
(-153.47 597.568 1.52444)
(-99.3123 690.507 -4.26206)
(-28.4515 733.121 -3.79937)
(30.7683 734.78 -1.70022)
(95.1267 626.306 -3.18052)
(130.014 491.163 -6.37367)
(129.987 341.611 2.93682)
(105.557 210.604 8.68219)
(70.9325 112.748 4.26562)
(47.277 64.8237 -0.666313)
(39.9744 48.9624 -1.24286)
(37.3826 41.2174 0.468215)
(39.5377 39.6257 3.06038)
(43.4792 40.8151 3.87081)
(50.2946 44.2648 2.80437)
(63.4612 54.1648 0.622668)
(105.004 83.0263 1.15299)
(-246.127 850.954 24.1012)
(-150.62 766.612 19.4846)
(-153.97 799.244 7.71844)
(-156.513 659.883 1.89788)
(-94.7464 712.083 -3.45936)
(-28.2457 741.001 -3.37004)
(30.3546 738.449 -1.78088)
(92.7392 643.343 -5.06365)
(130.473 521.726 -0.583402)
(136.669 386.403 8.09488)
(121.141 257.891 5.85459)
(91.6203 159.254 -1.78738)
(69.3813 101.709 -2.35771)
(54.9562 70.0422 0.85147)
(45.268 52.3686 3.79308)
(41.687 44.8264 4.07312)
(43.6325 43.9595 2.77314)
(48.8193 45.699 0.460354)