/*--------------------------------*- C++ -*----------------------------------*\
  =========                 |
  \\      /  F ield         | OpenFOAM: The Open Source CFD Toolbox
   \\    /   O peration     | Website:  https://openfoam.org
    \\  /    A nd           | Version:  9
     \\/     M anipulation  |
\*---------------------------------------------------------------------------*/
FoamFile
{
    format      ascii;
    class       volScalarField;
    location    "0.0085";
    object      T;
}
// * * * * * * * * * * * * * * * * * * * * * * * * * * * * * * * * * * * * * //

dimensions      [0 0 0 1 0 0 0];

internalField   nonuniform List<scalar> 
9720
(
1060.56
1046.82
1011.54
945.699
930.401
940.347
939.763
923.962
901.532
884.588
871.231
868.878
871.624
877.291
884.653
895.524
909.947
926.943
940.924
963.039
1045.98
999.342
904.008
882.704
918.699
937.669
937.49
917.21
878.21
843.439
832.275
834.014
839.475
848.829
860.533
874.811
891.607
910.612
927.327
953.185
1013.5
903.83
873.29
865.732
917.792
937.994
937.775
915.183
862.546
823.831
828.861
838.562
846.511
854.245
861.988
870.17
880.954
894.752
911.065
946.251
947.659
881.362
864.773
845.262
889.638
936.079
942.784
928.281
854.884
795.893
793.132
795.758
799.408
802.822
806.282
810.425
816.575
826.421
838.886
888.902
928.033
914.874
914.193
889.442
785.341
785.788
788.06
790.162
792.349
794.268
796.156
798.642
802.289
807.76
813.613
839.692
936.637
933.953
934.781
932.655
805.895
809.639
807.724
805.914
804.57
803.756
803.93
804.663
806.029
807.859
809.311
817.044
935.801
933.572
934.573
939.894
814.621
810.066
808.295
806.591
805.255
804.278
803.455
803.269
803.49
804.193
805.035
808.985
919.642
912.842
911.036
924.428
799.173
777.133
778.612
779.625
780.695
781.649
782.48
783.778
785.876
788.338
790.491
795.471
897.248
873.885
858.412
847.942
764.423
800.564
809.152
792.758
753.922
747.926
747.465
748.651
749.837
752.005
755.797
760.325
765.077
769.751
773.326
780.778
880.879
839.492
819.036
786.985
780.156
804.657
804.666
770.307
739.107
748.096
737.951
735.68
736.393
737.431
740.14
744.413
748.088
752.574
756.773
766.603
867.769
827.751
824.508
787.119
782.924
802.555
802.843
773.131
740.125
734.397
728.875
727.583
730.208
732.775
733.311
733.568
734.77
738.772
743.738
755.439
865.446
829.528
833.388
790.774
785.564
800.731
801.144
775.074
743.17
730.672
727.651
728.45
730.92
729.337
726.856
727.306
729.995
734.315
737.625
746.942
868.052
835.352
840.842
794.3
787.656
799.254
800.074
776.77
745.565
731.57
730.478
731.743
728.908
724.507
725.537
728.49
730.999
733.284
734.333
740.973
873.47
844.842
848.924
797.81
789.613
799.157
799.251
778.22
748.529
733.634
731.844
730.887
725.981
724.594
725.695
728.907
731.59
732.799
733.25
739.867
880.553
856.088
857.299
801.854
791.776
799.538
798.919
779.498
753.221
737.56
731.649
728.212
727.307
727.151
726.626
727.277
729.162
731.332
733.408
740.728
891.2
869.624
865.449
806.679
794.737
800.562
799.101
781.268
758.708
742.231
731.301
728.654
730.911
732.992
730.968
727.522
727.652
731.116
735.06
743.129
905.717
885.783
875.384
813.338
798.886
802.267
799.647
783.786
764.086
746.01
732.223
731.264
733.825
737.297
736.166
730.715
729.906
733.093
736.801
744.525
923.147
904.539
887.919
823.396
804.838
804.519
800.722
786.47
769.044
750.646
736.248
734.798
736.247
738.27
739.274
737.4
736.861
737.887
738.686
744.861
937.508
921.988
903.531
835.515
810.985
806.411
801.985
788.778
772.619
755.109
741.55
737.369
737.029
738.133
739.779
741.737
742.796
741.963
741.948
747.185
959.595
948.696
939.816
884.434
837.665
815.273
807.039
794.316
780.296
765.696
754.189
746.341
742.414
742.776
743.876
746.744
749.79
750.273
751.288
757.631
1060.66
1047.19
1005.75
939.324
928.929
940.951
940.319
924.218
900.91
883.276
870.247
867.597
870.315
876.114
883.422
894.095
908.366
925.461
939.846
962.717
1046.87
988.045
894.761
879.984
920.577
938.927
938.428
917.74
878.186
842.083
830.744
832.443
837.879
847.276
858.572
872.251
888.746
907.719
924.655
951.602
1009.31
894.211
870.982
864.3
920.463
939.436
938.827
915.587
862.874
823.017
826.608
836.913
845.279
852.669
859.344
866.426
876.624
890.196
906.455
943.183
941.686
878.14
861.836
843.604
897.187
936.612
943.335
928.501
856.641
796.052
790.947
792.681
795.844
798.979
802.059
805.669
811.094
820.205
832.029
882.225
925.92
914.675
913.443
885.66
788.471
783.009
785.169
787.05
789.063
790.753
792.322
794.506
797.824
802.925
808.422
833.035
936.401
934.196
935.186
932.721
804.205
807.086
805.231
803.364
801.917
800.716
800.744
801.234
802.349
804.012
805.382
812.156
935.642
933.831
935.086
939.809
812.908
807.485
805.668
803.886
802.493
801.281
800.116
799.624
799.777
800.389
801.191
804.67
919.514
913.326
911.637
924.703
797.602
774.117
775.97
777.024
777.718
778.226
778.729
779.904
782.166
784.652
786.411
790.773
896.557
873.887
858.459
850.222
771.162
800.698
809.319
792.437
770.968
750.819
748.441
746.829
746.498
747.615
751.821
757.236
761.718
765.308
768.165
775.462
879.037
837.869
818.298
790.743
780.104
804.475
804.448
769.639
744.647
754.283
740.607
733.981
735.466
737.561
739.568
742.024
743.96
746.707
750.695
761.257
865.746
826.145
822.325
787.34
782.755
802.552
802.69
772.667
743.112
737.981
728.059
730.172
734.307
734.515
732.616
729.643
729.604
733.421
739.158
750.836
863.599
827.908
832.283
789.837
784.935
800.651
800.963
774.651
743.976
731.393
730.203
731.897
733.695
729.862
723.359
723.02
726.8
732.026
734.846
742.178
866.228
833.724
840.547
792.883
786.849
799.271
799.721
775.905
744.638
732.869
733.946
734.037
729.591
719.946
720.421
725.071
729.645
731.69
731.247
735.503
871.948
843.195
848.312
795.974
788.46
798.296
798.685
776.746
746.36
735.672
734.088
731.359
721.653
719.826
722.78
729.571
731.25
730.765
729.477
735.089
879.233
854.137
855.313
799.437
790.135
798.391
797.618
777.569
751.2
738.68
732.171
725.007
722.358
724.517
727.261
729.256
729.38
728.926
729.496
736.27
889.786
867.188
862.095
803.398
792.521
798.973
797.537
779.189
757.279
741.46
729.07
724.642
727.352
733.507
732.667
728.083
725.572
727.759
731.424
739.825
904.04
883.097
871.411
808.959
796.016
800.22
797.788
781.757
762.185
743.409
729.175
728.151
732.604
736.144
735.044
729.09
726.749
729.73
733.899
741.722
921.405
901.88
883.781
817.872
801.225
802.093
798.545
784.292
766.089
746.415
733.229
733.36
734.911
735.689
735.33
732.899
732.902
734.748
735.711
741.265
936.018
919.522
899.408
829.1
806.717
803.718
799.544
786.131
769.136
750.791
739.079
735.916
734.19
734.36
735.331
737.37
739.547
738.932
737.935
742.568
958.74
947.108
937.263
878.062
831.359
811.165
803.714
790.88
776.574
762.036
751.232
742.953
738.23
738.779
740.28
743.814
746.923
746.463
746.405
751.85
1064.46
1052.47
1001.96
932.999
928.012
941.655
940.816
924.622
900.962
883.273
871.029
868.75
871.55
877.656
885.285
896.074
910.727
928.498
943.538
966.672
1052.76
975.977
886.359
878.514
921.758
939.652
938.841
917.698
878.294
842.188
831.863
833.939
839.641
849.187
860.692
874.277
890.956
910.318
927.937
956.013
1006.24
884.466
869.124
864.863
920.596
939.592
938.984
915.017
863.333
824.286
827.146
839.577
849.837
856.96
862.535
868.039
877.118
889.85
905.895
945.429
932.971
873.757
859.749
842.754
899.047
937.127
944.007
928.826
856.231
797.503
791.926
792.086
794.581
797.787
800.63
803.676
808.273
816.289
827.018
877.369
923.476
914.686
913.006
884.368
780.547
780.047
782.334
783.509
785.378
787.57
789.482
791.619
794.721
799.602
804.932
827.902
936.21
933.914
934.847
932.705
800.779
804.329
802.503
800.719
799.398
798.347
798.423
799.006
800.295
802.237
803.86
809.814
935.804
934.099
934.852
939.861
809.481
804.622
802.763
801.102
799.821
798.844
797.746
797.536
797.812
798.596
799.614
802.966
919.754
913.777
911.83
924.952
793.75
770.611
772.773
774.19
774.788
775.224
775.997
777.593
780.101
782.791
784.573
788.761
896.378
874.191
858.852
852.186
778.77
799.326
807.875
791.347
783.789
753.369
748.487
744.353
743.283
744.222
748.801
755.126
759.418
762.715
765.472
772.846
877.746
837.21
819.287
793.849
779.439
803.185
803.201
768.255
750.963
761.609
747.4
735.117
736.437
739.258
739.922
740.66
741.64
743.617
747.519
758.635
864.653
826.131
821.426
787.525
781.38
801.362
801.406
771.14
745.82
745.794
733.807
734.58
738.704
738.443
734.408
729.83
729.546
733.453
738.812
749.235
863.173
828.747
833.571
788.189
782.356
799.522
799.771
773.073
743.147
734.468
734.14
735.916
737.236
734.136
726.58
725.391
728.972
734.274
736.1
741.461
866.086
834.796
844.548
790.983
783.906
798.17
798.594
774.053
743.138
735.847
738.028
737.08
732.968
723.634
723.29
728.186
733.944
735.138
734.084
737.49
872.472
844.126
852.232
794.381
785.848
797.034
797.764
774.786
744.344
738.905
737.939
734.441
724.778
722.85
727.615
736.863
737.641
736.246
734.127
738.546
880.37
855.439
857.911
797.707
787.841
797.089
796.787
775.849
749.383
740.374
734.539
727.91
724.58
728.409
735.437
737.467
736.77
735.584
735.223
740.997
891.131
868.764
863.125
801.186
790.106
797.622
796.689
777.783
756.189
741.594
730.739
726.874
729.506
739.037
739.619
736.143
733.33
734.509
737.978
745.823
905.775
885.29
871.712
805.934
793.277
798.916
797.002
780.52
761.071
742.939
730.773
730.422
735.803
741.113
740.607
736.574
733.798
736.314
740.493
748.366
923.763
904.692
883.851
813.693
798.073
800.94
797.896
783.295
764.863
745.565
734.946
735.938
737.983
740.364
740.938
739.363
739.478
741.032
741.942
747.833
939.067
922.909
899.545
823.799
803.242
802.731
799.048
785.214
767.909
749.922
740.454
737.746
737.548
738.691
741.014
744.505
746.487
745.383
744.25
748.927
962.432
951.781
939.967
873.05
825.943
809.076
802.796
789.804
775.366
761.299
751.429
743.125
741.223
742.96
746.315
751.496
754.459
753.669
753.233
758.587
1068.51
1057.26
996.591
928.36
927.518
941.975
941.091
924.551
900.095
881.636
869.788
868.573
871.607
878.431
886.969
898.192
913.222
931.497
947.213
970.87
1057.54
963.621
882.265
878.147
921.94
939.931
939.1
917.605
876.99
840.817
831.115
834.108
840.34
850.35
862.574
876.466
893.599
913.398
931.461
960.589
1000.48
879.258
867.83
865.379
919.575
939.731
939.323
914.978
861.576
825.376
826.897
840.344
854.309
862.587
867.541
871.308
878.612
890.087
905.53
947.434
924.957
872.289
861.009
845.021
894.196
937.586
944.451
928.84
856.237
801.995
794.901
792.385
794.474
798.138
801.005
803.313
806.708
812.985
822.004
871.331
921.731
915.619
914.044
889.113
743.964
779.686
782.582
782.865
784.051
786.318
788.641
790.528
792.901
796.846
801.444
821.976
935.746
933.853
934.756
932.617
799.321
803.897
802.127
800.354
798.957
797.617
797.543
797.914
798.933
800.672
802.249
807.108
935.696
934.126
934.541
939.669
808.241
804.308
802.464
800.797
799.479
798.462
797.429
796.745
796.87
797.373
798.167
800.847
919.676
913.469
911.122
924.581
792.498
770.316
771.996
773.321
773.817
774.126
774.876
776.372
778.564
780.95
782.668
786.438
896.072
873.579
857.682
850.448
773.705
798.826
807.432
791.106
792.803
761.283
754.113
745.924
743.182
743.994
747.602
753.581
757.922
761.115
763.7
770.185
876.91
836.572
820.615
797.903
779.484
803.258
803.473
768.089
754.675
772.071
756.787
739.768
739.888
741.302
741.431
740.678
740.74
742.251
745.704
756.121
864.689
826.749
822.298
791.369
782.026
801.362
801.658
771.04
749.206
754.719
744.632
740.004
742.487
742.168
737.056
730.873
731.089
734.949
739.113
747.768
863.487
830.019
835.844
789.385
781.909
799.485
800.044
773.025
744.056
738.046
738.196
741.378
741.235
738.212
730.235
729.445
732.065
736.88
737.042
740.36
866.253
836.359
849.894
791.27
782.695
798.034
798.798
773.967
743.133
738.009
740.9
740.793
736.416
728.331
728.525
732.476
737.552
738.17
736.102
739.285
872.656
845.377
857.556
794.663
784.66
796.689
797.915
774.602
744.041
739.862
741.049
738.228
728.67
727.746
732.16
741.743
743.531
740.916
737.55
741.531
881.033
856.738
862.101
797.636
786.891
796.51
797.056
775.677
747.948
741.205
737.205
730.634
728.601
732.032
740.432
745.792
744.544
742.211
741.472
745.83
892.028
869.914
865.146
800.17
788.871
796.868
796.561
777.499
754.624
741.992
731.765
729.48
731.984
741.284
746.513
745.269
742.356
743.32
746.356
751.676
906.922
886.652
871.548
803.584
791.293
797.913
796.735
779.829
760.009
742.645
731.807
731.963
736.823
744.064
746.07
744.107
742.765
745.611
748.705
754.783
925.291
906.192
882.18
809.599
795.192
799.752
797.36
782.25
763.862
744.704
735.22
736.838
738.577
742.155
745.291
746.812
748.04
749.203
749.431
755.16
941.38
924.625
896.752
817.773
799.615
801.518
798.262
784.049
766.773
748.389
739.683
737.716
737.9
740.195
745.382
751.643
753.553
752.135
750.999
756.469
966.053
955.394
939.359
864.279
819.292
806.613
801.207
788.218
773.459
759.054
749.376
741.853
741.435
744.358
750.283
757.57
761.396
761.057
760.928
767.078
1072.01
1060.39
992.998
925.45
927.432
942.053
941.397
924.643
899.434
880.119
867.942
868.358
871.566
878.719
887.985
899.8
914.972
933.317
949.308
972.858
1061.27
957.339
880.263
877.812
923.054
940.396
939.46
917.813
875.808
838.855
829.56
833.491
840.332
850.091
862.96
877.823
895.691
915.678
934.123
963.094
997.304
876.932
866.727
865.72
920.792
940.443
939.785
915.306
859.106
824.264
825.303
839.012
855.746
865.141
870.095
872.688
878.692
889.585
905.005
948.464
921.578
871.296
860.042
844.666
895.454
938.278
944.997
929.535
850.404
802.423
795.463
792.105
794.024
798.361
801.71
803.674
806.338
811.523
819.307
867.17
920.679
915.013
912.973
887.531
776.608
779.796
782.983
782.736
783.465
785.742
788.544
790.717
792.935
796.433
800.454
818.834
935.313
933.652
934.597
932.456
799.677
804.171
802.252
800.43
799.057
797.678
797.49
797.871
798.86
800.543
802.053
806.024
935.452
933.951
934.573
939.515
808.689
804.851
802.821
801.094
799.761
798.65
797.701
796.99
797.061
797.452
798.076
800.143
919.377
913.118
910.708
924.444
793.526
770.619
772.169
773.424
773.855
774.08
774.715
776.108
778.089
780.316
781.994
785.377
895.353
872.496
855.923
847.747
781.202
799.289
808.373
791.78
794.894
765.671
758.175
748.855
744.002
744.508
747.188
752.31
757.124
760.894
763.42
768.949
876.025
835.989
821.367
800.347
779.584
803.604
804.119
768.489
757.625
779.296
763.733
745.217
741.91
742.295
742.322
741.83
742.006
742.988
745.154
753.975
864.349
827.065
823.305
793.917
782.35
801.545
802.223
770.971
751.848
760.779
753.539
742.288
743.093
743.784
741.602
735.775
734.422
735.9
738.504
746.55
863.605
830.673
837.141
790.18
782.011
799.674
800.494
772.727
745.653
741.251
739.992
741.069
743.487
743.52
739.019
734.962
735.204
737.871
738.811
741.849
866.314
837.241
852.602
791.706
782.508
798.224
799.127
773.882
743.78
739.28
740.784
742.816
742.054
739.07
736.414
736.94
738.795
741.184
740.159
742.19
872.569
846.216
860.477
795.132
784.41
796.883
798.146
774.884
744.511
739.837
741.815
742.318
738.664
735.659
736.623
742.007
746.935
747.166
743.458
744.702
880.963
857.63
864.845
797.981
786.709
796.268
797.489
775.999
747.473
740.733
739.868
737.414
735.332
736.187
740.615
750.434
752.986
751.82
747.867
749.454
891.881
870.642
867.124
800.088
788.568
796.506
796.81
777.434
753.023
742.048
734.704
733.387
735.463
740.716
750.381
754.243
752.291
751.618
751.736
754.715
906.818
887.229
872.141
802.785
790.612
797.386
796.819
779.24
758.8
743.189
733.591
733.782
736.885
745.634
753.93
753.556
750.729
751.252
752.876
758.335
925.282
906.469
881.444
807.832
794.001
799.042
797.16
781.515
763.54
744.946
735.166
736.471
739.963
746.409
752.943
753.862
752.558
752.975
754.593
761.548
941.794
924.406
894.708
814.844
797.971
800.724
797.813
783.464
766.544
747.655
738.105
738.06
739.604
743.646
749.721
755.303
756.361
756.774
757.778
763.374
967.353
955.853
937.265
857.969
815.582
805.152
800.221
787.331
772.389
757.035
747.253
742.029
742.303
745.38
751.747
759.413
764.011
767.127
767.582
771.993
1072.15
1060.42
992.124
924.544
927.512
942.323
941.523
924.759
899.482
880.142
868.091
868.491
871.492
878.577
888.12
900.279
915.612
933.986
949.858
973.079
1061.87
957.468
879.768
877.354
923.431
940.835
939.625
917.896
875.825
838.97
830.004
834.144
840.71
849.781
862.509
877.807
896.122
916.389
935.03
963.73
998.228
876.644
866.601
865.675
921.527
940.91
939.863
915.339
859.125
824.406
825.997
839.964
856.67
865.717
870.362
872.99
879.172
890.267
906.071
949.947
921.593
871.194
859.892
843.779
898.878
938.624
945.022
929.739
850.219
801.813
795.237
792.1
794.191
798.933
802.473
804.204
806.657
811.732
819.651
868.658
920.286
914.392
912.046
882.954
780.443
780.038
782.84
782.581
783.332
785.743
788.606
790.669
792.774
796.171
800.158
818.871
935.13
933.334
934.248
932.685
799.978
804.255
802.176
800.229
798.833
797.468
797.115
797.463
798.427
800.093
801.607
805.585
935.204
933.767
934.546
939.392
809.189
804.913
802.802
800.85
799.447
798.333
797.38
796.608
796.647
797.028
797.688
799.811
919.063
912.955
910.711
924.33
793.8
770.513
771.915
773.089
773.704
774.22
774.921
776.172
778.101
780.244
781.952
785.393
895.047
872.334
856.035
848.454
785.777
799.054
808.287
792.042
811.578
763.978
756.581
748.568
744.084
744.48
747.213
752.374
757.319
761.2
763.598
768.949
875.75
836.083
821.998
800.767
779.053
803.251
803.728
767.838
759.696
779.575
763.683
745.145
741.552
742.032
742.375
742.173
742.306
743.026
744.972
753.782
863.905
827.343
823.921
794.049
782.085
801.4
801.824
770.54
753.236
762.175
754.578
742.215
742.773
743.803
741.852
735.882
733.844
735.333
738.06
746.226
863.682
830.906
837.295
790.203
781.727
799.605
800.137
772.649
746.759
743.041
741.206
741.665
743.872
743.907
739.4
734.242
734.435
737.254
738.309
741.386
866.416
837.51
852.655
791.526
782.222
798.248
798.904
773.605
743.738
740.286
741.823
743.385
742.857
740.026
735.943
736.14
738.298
740.955
739.67
741.673
872.763
846.546
860.923
794.799
784.098
796.964
798.044
774.162
744.317
740.815
742.473
742.962
739.549
735.416
736.249
741.947
747.175
746.963
743.046
744.288
881.32
858.091
865.506
797.767
786.577
796.593
797.26
775.105
747.482
741.201
740.071
737.676
735.486
736.297
741.507
750.731
751.973
750.835
747.291
749.137
892.295
871.114
867.788
800.07
788.733
796.908
796.63
776.868
753.297
741.76
734.609
733.628
735.833
742.32
751.696
753.09
750.673
750.367
750.882
754.577
907.296
887.648
872.596
802.915
790.994
797.84
796.735
779.323
758.684
742.572
733.838
734.235
738.201
747.336
753.335
752.322
749.302
750.271
752.683
758.867
925.815
906.897
881.632
808.023
794.488
799.515
797.233
781.791
763.017
744.387
735.799
737.528
741.008
747.093
752.765
752.951
751.853
753.006
755.209
761.629
942.307
924.806
894.648
814.963
798.474
801.208
797.995
783.454
765.994
747.421
738.992
738.845
740.242
744.122
750.38
755.043
756.413
757.444
758.085
762.987
967.754
956.083
936.626
857.076
815.746
805.553
800.409
787.029
772.12
757.204
747.611
742.389
742.773
746.106
752.515
759.62
764.552
766.919
767.035
771.601
1068.88
1057.32
994.747
927.168
928.014
942.446
941.554
924.942
900
881.317
869.673
868.935
871.783
878.618
887.576
899.35
914.598
932.807
948.307
971.415
1058.78
963.574
881.292
877.803
923.684
940.982
939.662
917.995
876.271
839.779
831.17
834.914
840.997
850.282
862.608
877.333
895.241
915.488
933.698
962.051
1001.97
878.098
867.034
866.049
921.95
941.148
939.647
915.224
859.751
824.248
826.555
841.521
856.285
864.264
868.667
872.325
879.917
892.079
908.408
950.762
924.76
870.875
859.122
844.559
899.261
938.84
945.072
929.832
850.834
800.308
793.886
792.554
795.002
799.298
802.246
804.31
807.581
813.88
823.22
874.444
920.58
913.939
912.057
883.183
783.211
779.474
782.083
782.378
783.704
786.283
788.86
790.765
793.113
797.075
801.721
822.697
935.064
933.154
934.243
932.678
799.482
803.579
801.705
799.905
798.526
797.142
796.98
797.379
798.473
800.353
802.014
806.985
934.983
933.554
934.493
939.311
808.549
804.056
802.174
800.466
799.114
798.086
797.048
796.435
796.593
797.164
798.007
800.79
918.864
912.788
910.59
924.153
792.776
769.244
771.31
772.951
773.752
774.162
774.883
776.232
778.252
780.656
782.501
786.459
895.053
872.234
855.825
846.369
781.814
798.738
807.783
791.625
803.502
759.117
752.439
745.864
743.2
743.868
747.087
753.005
757.785
761.114
763.722
770.186
876.397
836.202
820.996
798.302
779.65
803.423
803.768
768.532
758.407
773.76
758.064
740.357
739.762
741.055
741.568
741.003
740.94
742.222
745.347
755.462
863.504
827.045
823.205
792.249
782.08
801.465
801.838
770.855
751.566
757.165
747.261
740.074
742.482
742.503
738.364
731.591
731.287
734.37
738.446
747.146
863.67
830.214
837.27
790.51
782.042
799.531
800.081
772.583
745.301
739.647
739.639
741.934
741.873
739.912
732.034
729.785
731.637
736.338
736.631
739.91
866.648
836.874
851.529
792.231
782.842
798.091
798.753
773.493
743.405
739.484
742.222
741.807
738.615
730.595
729.475
732.041
737.063
738.331
736.233
739.007
873.35
846.469
859.602
795.539
784.877
796.789
797.903
774.182
744.16
741.093
742.225
739.972
730.827
728.853
732.255
741.381
744.46
741.831
737.95
741.606
881.889
858.064
864.453
798.584
787.256
796.745
797.009
775.237
747.838
741.627
738.083
732.172
729.91
732.814
741.074
747.022
745.599
743.16
741.996
746.431
892.914
871.215
867.382
801.155
789.346
797.16
796.545
776.945
754.187
741.798
732.484
730.585
733.076
743.1
748.495
746.718
742.562
743.217
746.284
752.791
907.987
887.958
873.174
804.484
791.796
798.251
796.741
779.312
759.324
742.293
732.55
732.973
738.719
746.66
747.853
745.022
742.423
745.031
749.589
756.857
926.544
907.586
883.076
810.253
795.678
800.102
797.373
781.917
763.307
744.22
736.184
738.196
740.414
744.417
747.144
746.898
747.488
750.143
751.372
756.684
942.692
926.036
897.095
818
800.024
801.867
798.325
783.833
766.262
747.901
740.474
738.997
739.369
741.813
746.751
751.778
754.552
754.051
752.873
757.318
967.179
956.621
939.275
862.703
818.921
806.751
801.24
787.909
772.966
758.583
749.686
742.892
742.616
745.818
751.822
759.148
763.235
762.39
761.481
767.033
1064.57
1052.04
999.627
932.353
929.211
942.796
941.645
925.193
900.788
882.67
870.719
868.774
871.519
877.633
885.51
896.761
911.661
929.327
944.038
966.766
1053.08
974.874
886.146
879.387
923.644
941.13
939.767
918.321
877.384
840.748
831.555
834.16
839.938
849.265
860.936
875.363
892.719
912.443
929.893
957.075
1007
883.338
869.135
866.124
922.348
941.142
939.719
915.612
861.467
823.028
826.798
840.679
851.855
858.925
864.111
869.867
879.512
893.187
910.173
949.485
932.396
872.584
859.374
844.856
899.826
938.543
945.003
929.717
852.731
797.527
791.994
792.327
795.34
798.98
801.841
804.8
809.481
817.751
829.169
882.043
922.28
913.772
912.503
883.598
779.377
779.38
781.6
782.865
785.031
787.544
789.598
791.735
794.85
799.759
805.159
829.153
935.334
933.261
934.462
932.572
798.778
803.433
801.697
799.945
798.626
797.544
797.628
798.249
799.583
801.577
803.192
809.45
935.005
933.449
934.614
939.379
807.769
803.757
801.975
800.405
799.221
798.291
797.189
796.956
797.221
797.973
798.943
802.373
918.962
913.041
911.16
924.384
791.844
769.162
771.496
773.357
774.275
774.738
775.406
776.861
779.311
782.056
783.88
788.133
895.528
873.139
857.536
850.581
783.647
799.886
808.608
792.082
793.691
755.375
749.708
745.097
742.94
743.641
747.839
754.347
759.008
762.364
765.06
772.274
877.46
837.299
820.132
795.348
780.144
804.184
804.234
769.166
752.659
765.672
750.941
736.066
736.865
739.576
740.525
741.146
741.755
743.296
746.791
757.639
863.303
826.739
823.45
789.549
782.012
802.212
802.321
771.702
748.135
749.256
736.826
736.029
739.567
739.822
736.256
730.689
729.845
733.288
738.431
748.745
863.578
829.249
836.186
790.016
782.969
800.292
800.595
773.567
744.805
735.905
735.948
737.61
739
736.705
728.462
725.995
729.171
734.702
736.641
741.329
866.731
835.65
847.171
792.404
784.497
798.857
799.34
774.599
743.764
737.048
739.691
739.387
735.884
725.777
724.157
728.334
734.632
736.516
735.141
737.911
873.171
845.288
854.883
795.552
786.513
797.649
798.442
775.218
744.577
740.102
740.161
737.25
726.968
723.94
728.213
737.984
739.643
738.13
735.277
739.179
881.239
856.678
860.406
798.728
788.577
797.693
797.376
775.999
749.054
741.394
736.869
729.963
725.79
729.331
737.294
739.91
738.984
737.323
736.392
742.05
892.312
870.112
864.951
802.015
790.776
798.179
797.126
777.625
755.865
742.334
731.832
727.867
730.243
740.421
741.847
738.62
734.85
735.358
738.841
747.636
907.374
886.933
872.698
806.407
793.769
799.401
797.4
780.302
760.881
743.184
731.342
730.973
737.048
742.985
742.167
737.88
734.394
736.808
741.937
750.385
925.752
906.621
884.125
813.582
798.299
801.357
798.186
783.189
764.557
745.065
735.034
736.715
739.616
741.962
741.771
739.298
739.238
741.856
743.606
749.464
941.237
925.26
899.472
822.925
803.207
803.115
799.276
785.085
767.397
748.93
740.348
738.885
738.485
739.286
741.171
743.894
746.807
746.402
745.566
750.027
964.355
953.995
940.385
870.549
824.634
808.948
802.777
789.458
774.642
760.287
751.321
743.776
741.495
743.246
746.753
752.594
755.715
754.538
753.727
758.583
1060.43
1046.59
1003.11
938.609
930.391
942.546
941.28
924.992
901.138
883.347
870.5
867.572
870.107
875.719
883.19
894.247
908.691
925.684
939.827
962.389
1046.87
985.987
894.466
882.204
922.927
940.749
939.37
918.339
878.296
842.11
831.231
832.947
838.008
846.911
858.08
872.237
889.125
908.376
925.277
951.794
1009.89
892.355
871.327
866.594
922.268
940.846
939.657
916.034
863.058
823.196
827.311
837.978
846.255
853.331
859.729
867.256
878.145
892.635
909.713
946.031
941.351
876.216
860.392
844.805
900.641
938.395
944.861
929.671
857.234
795.725
790.425
792.493
796.294
799.718
802.786
806.4
812.084
821.814
834.632
887.104
924.999
913.861
913.022
884.334
786.148
781.698
783.872
785.919
788.366
790.374
792.071
794.355
797.773
803.008
808.718
835.018
935.461
933.455
934.843
932.573
799.992
805.796
804.077
802.28
800.84
799.712
799.784
800.339
801.488
803.13
804.48
811.942
934.957
933.395
934.862
939.601
808.694
806.024
804.348
802.686
801.391
800.254
799.104
798.691
798.857
799.467
800.276
803.971
918.854
913.146
911.668
924.62
792.867
772.279
774.552
775.961
776.805
777.261
777.688
778.898
781.298
783.837
785.571
789.944
895.775
873.721
858.676
849.751
775.523
800.007
808.658
792.107
785.453
749.819
747.683
745.774
745.147
746.294
750.77
756.593
761.081
764.48
767.22
774.488
878.163
837.901
819.25
790.87
779.653
804.247
804.269
769.148
746.621
755.606
739.527
732.889
734.786
737.496
739.627
741.684
743.102
745.428
749.274
760.007
863.75
826.195
823.57
787.194
782.134
802.409
802.567
772.365
743.909
737.326
727.32
730.157
735.159
735.308
732.799
728.834
728.61
732.33
738.168
749.801
862.972
828.015
833.568
789.577
784.247
800.574
800.933
774.538
743.814
730.507
729.853
732.634
734.853
730.517
722.88
722.325
726.305
731.957
734.614
741.246
865.788
833.854
841.696
792.434
786.167
799.195
799.736
775.775
743.927
732.265
734.025
734.758
730.002
719.307
719.609
724.425
729.87
732.09
731.27
735.004
871.801
843.127
849.116
795.404
787.874
798.115
798.675
776.424
745.341
735.451
734.366
731.503
720.835
718.934
722.352
729.966
731.898
731.323
729.627
734.906
879.51
854.179
855.819
798.779
789.591
798.158
797.539
777.084
750.248
738.609
732.283
724.327
721.195
723.66
727.608
729.995
730.134
729.383
729.649
736.257
890.694
867.659
862.027
802.615
791.926
798.679
797.392
778.661
756.69
741.206
728.555
723.642
726.071
732.8
732.574
728.27
725.541
727.585
731.388
740.223
905.651
884.187
870.931
807.834
795.297
799.912
797.647
781.36
761.754
742.835
728.432
727.152
731.719
735.602
734.492
728.56
726.192
729.287
734.052
742.437
923.704
903.667
883.002
816.172
800.309
801.817
798.422
784.032
765.546
745.442
732.265
732.691
734.434
735.06
734.31
731.434
731.721
734.332
736.152
741.994
938.614
922.22
898.76
826.683
805.548
803.46
799.388
785.797
768.431
749.617
738.213
735.462
733.458
733.385
734.03
735.769
738.606
738.669
738.403
742.881
960.924
949.714
938.048
875.1
828.892
810.217
803.153
790.2
775.673
760.931
750.456
742.278
737.212
737.76
739.37
743.349
746.747
746.252
746.187
751.268
1060.3
1046.16
1008.25
943.92
931.375
942.193
941.133
924.907
901.98
885.153
871.961
868.879
871.362
876.71
884.054
895.197
909.788
926.687
940.552
962.553
1046.08
997.09
903.091
884.167
921.317
939.603
938.546
917.656
878.363
843.796
832.711
834.302
839.215
847.944
859.399
874.014
891.121
910.308
927.082
952.921
1014.9
901.79
872.936
867.145
920.517
939.39
938.286
915.161
862.694
823.489
829.127
838.739
846.097
853.42
861.034
869.834
881.356
896.07
913.161
947.967
948.387
879.154
862.319
844.074
899.207
937.517
943.969
928.784
856.264
792.463
790.966
794.215
798.738
802.489
805.972
810.266
816.903
827.71
841.448
893.652
927.304
913.431
912.676
884.952
785.978
783.558
785.64
788.014
790.72
792.937
794.93
797.55
801.404
807.202
813.521
842.073
935.599
933.084
934.455
932.678
803.361
807.643
805.582
803.735
802.288
801.663
801.95
802.822
804.277
806.124
807.633
816.612
935.006
933.048
934.47
939.686
811.961
807.945
806.033
804.258
802.891
801.903
801.154
801.149
801.433
802.228
803.2
807.684
918.896
912.56
910.87
924.804
796.411
774.893
776.399
777.441
778.492
779.409
780.235
781.669
783.947
786.49
788.7
793.889
896.345
873.16
857.508
849.944
768.442
799.865
808.487
791.817
765.963
745.635
745.034
746.031
747.12
749.518
753.744
758.517
763.245
767.858
771.433
779.059
879.704
838.856
818.968
787.09
779.528
804.06
804.095
769.63
738.218
746.444
735.339
733.318
734.198
735.593
738.528
742.6
746.04
750.449
754.7
764.756
865.675
827.309
824.911
787.199
782.594
802.036
802.358
772.694
739.868
731.151
726.108
726.077
728.941
731.004
731.16
731.225
732.333
736.457
741.619
753.579
864.281
829.046
833.889
790.818
785.334
800.307
800.788
774.737
742.643
729.306
726.561
727.447
729.439
726.857
724.362
725.236
728.318
732.721
736.03
745.188
867.042
834.749
841.055
794.115
787.446
799.017
799.763
776.369
744.736
730.693
729.658
730.703
726.899
722.398
723.643
726.594
729.539
732.191
733.143
739.478
872.801
843.963
848.584
797.41
789.351
798.719
798.922
777.673
747.767
733.308
731.205
729.632
724.346
723.062
724.3
727.786
730.806
732.126
732.645
739.111