/*--------------------------------*- C++ -*----------------------------------*\
  =========                 |
  \\      /  F ield         | OpenFOAM: The Open Source CFD Toolbox
   \\    /   O peration     | Website:  https://openfoam.org
    \\  /    A nd           | Version:  9
     \\/     M anipulation  |
\*---------------------------------------------------------------------------*/
FoamFile
{
    format      ascii;
    class       volVectorField;
    location    "0.0085";
    object      U;
}
// * * * * * * * * * * * * * * * * * * * * * * * * * * * * * * * * * * * * * //

dimensions      [0 1 -1 0 0 0 0];

internalField   nonuniform List<vector> 
9720
(
(-475.88 -478.487 33.0112)
(-361.455 -539.51 32.6258)
(-436.973 -716.83 9.52017)
(-564.317 -976.871 -9.24279)
(-348.224 -1139.12 -5.10403)
(-102.869 -1129.25 -8.77198)
(98.6784 -1121.33 -7.80619)
(364.977 -1137.61 -6.45932)
(650.966 -1116.47 -2.74938)
(875.989 -1009.28 -7.00298)
(1027.7 -863.76 0.892787)
(1136.01 -736.762 7.14271)
(1203.1 -627.507 -2.16919)
(1255 -537.397 -4.1445)
(1296.21 -473.183 14.8377)
(1352.6 -430.382 28.7727)
(1364.1 -391.468 26.6897)
(1372.67 -360.413 16.1072)
(1356.52 -330.791 14.6395)
(1364.82 -300.257 14.7653)
(-533.106 -361.95 35.3564)
(-492.655 -495.129 23.581)
(-837.636 -874.771 -7.49853)
(-747.523 -1105.76 -21.1581)
(-403.472 -1142.52 -5.23586)
(-107.035 -1137.43 -9.14481)
(106.514 -1127.87 -4.81782)
(408.299 -1151.07 -6.36327)
(787.107 -1088.66 2.48737)
(1075.75 -906.086 0.268321)
(1241.44 -699.002 -5.74148)
(1336.55 -555.702 12.2894)
(1436.16 -488.13 10.1353)
(1501.26 -416.955 9.21123)
(1570.19 -390.332 12.531)
(1633.81 -364.078 16.2364)
(1664.77 -317.713 21.133)
(1653.71 -276.832 17.3452)
(1626.95 -216.467 13.3467)
(1559.25 -192.61 13.9776)
(-695.912 -420.971 22.3575)
(-871.832 -830.94 3.94142)
(-943.143 -938.149 -8.2549)
(-810.365 -1076.19 -34.7042)
(-426.425 -1114.08 -5.02985)
(-119.841 -1133.03 -6.84331)
(118.747 -1122.09 -5.1392)
(440.885 -1132.59 -1.16076)
(871.562 -980.639 -6.6033)
(1161.15 -716.143 8.04008)
(1346.73 -542.027 -9.80879)
(1524.14 -447.018 -28.9136)
(1682.45 -439.318 -0.479565)
(1809.48 -437.817 10.4835)
(1912.55 -439.82 13.6815)
(1979.09 -424.056 -13.1557)
(2022.93 -374.86 -20.6847)
(2006.31 -327.014 -14.7499)
(1996.93 -243.617 -8.66383)
(1882.42 -161.471 -2.85707)
(-965.657 -545.844 6.01927)
(-1101.21 -742.738 4.99841)
(-1075.51 -802.674 21.5492)
(-1015.72 -982.536 -25.0447)
(-619.709 -1118.89 -14.4767)
(-215.102 -1117.63 -2.19129)
(45.8408 -1104.6 -7.80082)
(329.02 -1104.65 -3.02701)
(876.1 -1023.58 -13.1433)
(1759.92 -703.833 -20.5599)
(1982.02 -712.726 -14.7831)
(2081.8 -675.743 -32.4673)
(2144.87 -653.537 -20.474)
(2182.79 -628.682 -19.3243)
(2221.61 -604.659 -12.7476)
(2231.04 -573.207 -13.6988)
(2249.43 -525.624 -17.3207)
(2232.49 -470.561 -15.853)
(2243.99 -399.241 -14.0383)
(2154.44 -211.977 -9.17626)
(-1135.52 -351.142 -5.44417)
(-1143.3 -406.167 -4.24054)
(-1114.82 -428.589 -0.6029)
(-1119.1 -596.2 2.14977)
(1970.03 -706.868 -32.3079)
(2334.47 -463.936 -16.6496)
(2356.84 -459.634 -14.2731)
(2371.52 -445.204 -13.0282)
(2385.22 -425.272 -13.0081)
(2392.16 -401.102 -13.4888)
(2404.14 -377.306 -21.2195)
(2406.66 -351.397 -24.377)
(2409.86 -325.86 -21.6377)
(2398.15 -308.184 -19.2841)
(2390.43 -286.291 -18.9831)
(2325.97 -202.258 -16.0946)
(-1133.82 -103.931 -7.24177)
(-1143.21 -108.914 -7.77421)
(-1138.52 -121.31 -7.59435)
(-1120.88 -216.362 -6.65752)
(2326.11 -216.116 -15.4064)
(2360.58 -115.342 -15.3072)
(2362.53 -111.381 -15.131)
(2363.39 -108.691 -15.6082)
(2363.42 -107.208 -17.698)
(2363.14 -104.454 -18.2846)
(2361.69 -100.968 -17.7205)
(2358.29 -99.1598 -17.5472)
(2354.53 -96.839 -18.4536)
(2347.94 -93.1022 -18.9605)
(2347.27 -86.0523 -19.5973)
(2332.27 -58.1127 -18.8055)
(-1125.08 99.5675 -11.652)
(-1131.84 105.648 -8.96132)
(-1125.17 118.124 -8.02483)
(-1108.04 44.8537 -13.8859)
(2337.93 31.9944 -16.9744)
(2367.77 119.479 -12.5786)
(2370.42 113.649 -13.4512)
(2373.38 109.143 -16.8883)
(2376.63 105.107 -16.7245)
(2379.06 100.373 -14.9615)
(2380.8 98.2815 -15.186)
(2382.08 97.6029 -17.4124)
(2384.09 98.0883 -20.4542)
(2384.91 99.2394 -20.9409)
(2385.98 100.456 -19.3635)
(2381.03 107.267 -18.1518)
(-1142.63 367.782 -11.9297)
(-1156.68 412.845 -11.4834)
(-1137.02 446.515 -6.51519)
(-1108.9 329.612 -6.88868)
(2351.23 299.463 -16.2083)
(2382.07 477.108 -10.2781)
(2397.74 458.736 -26.1764)
(2401.04 443.041 -20.155)
(2408.11 423.312 -5.41661)
(2410.13 405.602 -4.37798)
(2407.93 390.588 -18.9448)
(2411.59 371.199 -33.0735)
(2412.84 357.664 -28.4413)
(2407.03 343.167 -15.9555)
(2409.62 330.195 -13.3357)
(2402.53 314.422 -16.5145)
(-1119.08 656.836 -11.6021)
(-1087.45 796.141 -10.628)
(-974.555 880.704 -23.0864)
(-1016.39 904.096 -34.7771)
(-728.58 2040.49 -40.7957)
(-214.842 2267.94 -19.985)
(35.0318 2281.9 -16.4529)
(308.25 2296.08 -13.0642)
(1581.96 1789.83 -36.2955)
(2157.92 1088.48 -89.4858)
(2268.18 947.531 2.37292)
(2321.92 867.811 28.9517)
(2347.86 807.555 2.64601)
(2384.49 754.257 -36.3698)
(2402.71 704.723 -47.039)
(2404.9 663.309 -21.0756)
(2421.37 620.596 6.6057)
(2417.27 589.684 5.19427)
(2421.94 564.128 -18.8365)
(2422.4 518.873 -24.8043)
(-1007.06 878.675 -18.0474)
(-899.775 1082.25 -17.9275)
(-712.528 1172.53 -17.0426)
(-711.451 1764.01 -37.2001)
(-464.497 2285.52 -21.1286)
(-112.649 2309.6 -18.7049)
(124.794 2317.06 -14.8612)
(489.741 2332.13 -4.36836)
(1015.41 2156.37 -77.9982)
(1570.63 1629.58 23.8537)
(1949.86 1340.74 88.0363)
(2095.56 1186.53 -36.5306)
(2174.1 1093.29 -85.643)
(2234.72 1038.02 -67.4633)
(2293.6 980.437 -8.11271)
(2326.28 912.503 34.0484)
(2359.58 869.061 21.0522)
(2373.5 816.437 -28.2557)
(2386 772.55 -44.3932)
(2400.47 710.775 -27.7228)
(-861.419 1030.35 -13.3686)
(-695.098 1245.42 -26.2971)
(-534.555 1344.72 -33.349)
(-704.051 1963.78 -40.285)
(-458.033 2308.74 -14.7353)
(-108.193 2313.67 -18.3088)
(118.173 2321.26 -16.1636)
(464.927 2343.05 -23.9715)
(918.173 2257.69 -9.2381)
(1293.31 1980.24 89.871)
(1640.21 1686.9 -68.9037)
(1898.97 1466.85 -189.321)
(1975.63 1349.36 -102.441)
(2052.87 1265.05 12.6573)
(2156.24 1214.54 57.7623)
(2204 1148.95 31.9013)
(2266.18 1091.57 -32.4969)
(2304.37 1020.19 -66.2798)
(2324.16 977.078 -34.7255)
(2360.34 893.889 -9.95365)
(-735.108 1137.03 -7.94663)
(-556.09 1341.35 -8.87902)
(-437.88 1516.92 -42.9234)
(-661.312 2050.43 -43.4625)
(-442.588 2324.51 -14.9459)
(-106.285 2316.49 -19.7285)
(113.176 2326.1 -17.9461)
(443.927 2344.26 -21.5442)
(837.676 2289.09 31.0206)
(1171.11 2125.22 -14.7907)
(1462.23 1966.29 -174.063)
(1736.14 1770.02 -122.27)
(1819.95 1534.71 36.9045)
(1897 1420.41 69.3798)
(2016.84 1404.64 29.1307)
(2083.2 1339.44 -49.0241)
(2151.34 1272.24 -89.4431)
(2180.15 1198.32 -57.2156)
(2227.84 1148.28 2.46935)
(2290.33 1058.32 7.04906)
(-626.304 1202.86 -18.9193)
(-484.182 1431.02 -14.0025)
(-449.923 1676.07 -14.2976)
(-649.815 2115.16 -24.8523)
(-420.605 2339.47 -14.6986)
(-104.408 2316.64 -22.2356)
(108.39 2331.67 -17.3336)
(422.374 2349.6 -5.71328)
(781.534 2300.89 9.03704)
(1078.31 2181.11 -75.0919)
(1368.12 2039.92 -96.3986)
(1539.87 1885.46 42.2426)
(1660.19 1695.75 109.352)
(1757.42 1534.21 10.8552)
(1886.04 1510.82 -91.5209)
(1950.96 1468.76 -111.768)
(2007.31 1421.74 -77.0376)
(2068.69 1351.45 5.94562)
(2141.42 1316.78 26.8074)
(2212.69 1220.5 1.28733)
(-534.932 1252.92 -22.2453)
(-415.19 1498.08 -16.8775)
(-447.143 1800.55 -3.55076)
(-625.36 2150.63 -25.9542)
(-395.219 2346.8 -16.2676)
(-101.375 2315.61 -22.6025)
(103.381 2334.38 -18.2546)
(402.868 2352.86 -2.96887)
(728.292 2327.91 -35.1859)
(1015.1 2223.47 -68.8341)
(1263.74 2084.62 12.2327)
(1453.09 1957.79 88.5708)
(1539.75 1815.59 25.0816)
(1606.72 1634.51 -82.0649)
(1732.48 1569.71 -115.702)
(1812.26 1535.63 -71.8339)
(1870.15 1515.55 1.85425)
(1959.93 1478.45 59.6644)
(2022.85 1458.05 27.6082)
(2109.46 1349.27 -13.2439)
(-473.176 1296.48 -3.41016)
(-393.863 1567.41 -11.3749)
(-435.733 1894.31 4.79136)
(-597.447 2181.89 -18.9474)
(-370.193 2359.14 -25.8261)
(-98.0514 2313.37 -22.4979)
(101.465 2337.21 -18.6349)
(387.544 2353.48 -16.7546)
(677.702 2338.22 -51.92)
(950.882 2259.23 -15.9633)
(1192.88 2162.06 59.5513)
(1411 2058.52 50.1047)
(1524.09 1945.85 -57.5033)
(1571.07 1776.81 -105.955)
(1670.63 1686.62 -63.6075)
(1755.27 1623.6 21.2095)
(1833.54 1606.43 74.45)
(1894.35 1591.04 64.0087)
(1921.45 1557.96 -0.208171)
(2004.92 1452.82 -25.6708)
(-432.203 1353.51 11.9099)
(-373.588 1631.49 -3.73156)
(-416.594 1953.26 -19.7323)
(-562.196 2187.46 -20.0137)
(-344.29 2360.9 -27.4559)
(-96.355 2309.61 -23.3367)
(100.187 2338.41 -19.9815)
(368.424 2361.58 -31.0258)
(639.252 2341.02 -27.8495)
(880.172 2277.93 26.3528)
(1124.4 2189.98 37.2074)
(1333.89 2097.22 -27.5834)
(1467.94 1983.49 -84.898)
(1538.26 1839.46 -61.9185)
(1617.01 1774.79 21.9965)
(1714.78 1734.9 91.8762)
(1815.95 1717.17 91.9969)
(1872.18 1682.96 23.3422)
(1860.8 1633.53 -35.6466)
(1917.98 1558.46 -31.5568)
(-393.399 1366.6 12.8468)
(-329.731 1663.68 7.85628)
(-370.284 1997.16 -24.1666)
(-512.368 2207.49 -24.173)
(-319.252 2363.14 -24.1404)
(-94.0356 2305.62 -24.4058)
(99.4087 2340.1 -20.9934)
(352.076 2364.4 -29.137)
(600.237 2359.79 -0.0206241)
(839.668 2307.99 16.5181)
(1064.66 2237.3 -26.9458)
(1253.74 2146.75 -77.102)
(1410.75 2026.42 -62.1084)
(1504.74 1886.09 8.60945)
(1598.49 1835.45 70.0366)
(1689.52 1826.69 81.8)
(1784.3 1805.47 36.6368)
(1825.89 1738.84 -38.5592)
(1822.28 1698.13 -39.8832)
(1880.67 1639.18 -1.67084)
(-361.827 1373.91 4.63851)
(-286.144 1653.47 7.71008)
(-324.269 1983.25 -18.4203)
(-457.003 2192.23 -21.1689)
(-301.509 2351 -22.2089)
(-90.1479 2299.48 -24.478)
(99.8597 2342.3 -21.4652)
(338.061 2358.35 -18.9082)
(571.3 2358.18 -0.351348)
(791.148 2318.8 -27.0866)
(990.715 2263.42 -62.5553)
(1175.68 2167.45 -51.5451)
(1334.58 2074.39 10.6222)
(1455.68 1962.59 64.1093)
(1568.13 1875.54 65.1199)
(1655.92 1847.95 20.4309)
(1723.28 1823.63 -40.6355)
(1767.2 1768.73 -56.7252)
(1792.54 1754.85 -12.7991)
(1867.12 1712.38 36.824)
(-332.034 1355.93 3.99524)
(-218.336 1625.3 5.47283)
(-242.9 1975.3 -12.7112)
(-388.204 2203.95 -19.3614)
(-279.114 2343.53 -22.7922)
(-82.9698 2298.69 -24.4798)
(100.53 2343.06 -22.5395)
(323.348 2360.77 -15.1038)
(547.695 2365.99 -18.5799)
(750.413 2332.35 -42.1199)
(950.054 2283.64 -35.9247)
(1123.77 2207.83 -1.4565)
(1289.52 2129.35 26.9507)
(1427.1 2009.22 33.472)
(1527.32 1899.6 5.55122)
(1603.98 1832.61 -32.684)
(1683.84 1799.47 -43.9811)
(1741.4 1777.73 -13.3176)
(1791.54 1804.05 38.7771)
(1850.17 1773.43 44.5535)
(-300.393 1362.76 6.13675)
(-186.559 1551.42 7.89793)
(-157.875 1861.14 -4.21728)
(-208.443 2116.5 -12.8969)
(-195.67 2278.43 -19.3954)
(-54.5736 2281.87 -23.1117)
(106.339 2337.39 -22.4969)
(307.39 2351.38 -17.4138)
(505.476 2366.62 -22.9821)
(692.351 2348.01 -27.6424)
(872.682 2319.65 -12.5864)
(1034.7 2262.03 4.92143)
(1193.87 2190.73 3.7268)
(1321.69 2090.09 -6.12921)
(1424.53 1988.69 -16.2257)
(1526.8 1895.15 -25.9861)
(1616.64 1845.49 -10.4567)
(1680.75 1832.66 25.7742)
(1745.8 1832.42 40.3244)
(1800.44 1791.59 30.9311)
(-475.17 -478.744 40.8117)
(-356.343 -541.078 49.4538)
(-457.882 -747.041 52.6657)
(-583.574 -1011.63 11.9657)
(-346.642 -1161.01 -3.18613)
(-101.251 -1150.09 -7.88435)
(100.469 -1140.13 -5.59245)
(368.53 -1157.7 -4.78792)
(656.995 -1133.49 4.57576)
(881.467 -1022.68 7.20469)
(1033.43 -875.468 12.5675)
(1144.88 -747.31 22.4817)
(1210.83 -635.337 17.6026)
(1259.58 -541.331 14.301)
(1300.31 -474.905 32.3671)
(1357.81 -431.172 47.8038)
(1370.45 -390.608 48.6756)
(1378.31 -358.844 38.8804)
(1360.37 -328.838 36.0798)
(1366.67 -298.129 26.2305)
(-530.522 -359.813 51.2394)
(-523.764 -531.731 93.7485)
(-867.875 -925.471 23.5849)
(-740.393 -1141.33 -12.5524)
(-396.572 -1160.84 -8.70629)
(-105.232 -1162.15 -9.70472)
(109.639 -1149.5 -4.03624)
(411.943 -1174.32 -6.52822)
(792.191 -1107.62 7.88241)
(1086.6 -923.223 19.8548)
(1254.22 -710.868 15.1908)
(1353.2 -564.862 35.4798)
(1452.25 -494.194 33.0801)
(1514.77 -419.478 29.8632)
(1584.33 -390.252 38.4263)
(1650.41 -363.182 46.1977)
(1682.19 -315.85 53.9127)
(1670.9 -274.863 50.5174)
(1643.15 -213.855 52.4253)
(1569.35 -186.21 39.322)
(-716.335 -443.483 63.9005)
(-914.641 -871.305 36.3329)
(-955.706 -966.624 -2.12669)
(-806.145 -1112.14 1.51727)
(-413.392 -1142.97 -3.84034)
(-118.834 -1162.94 -7.54547)
(120.111 -1149.59 -4.95035)
(444.439 -1161.85 -1.55117)
(878.282 -1004.54 5.68354)
(1179.71 -731.669 28.8737)
(1381.37 -559.344 27.3549)
(1553.2 -453.211 5.2669)
(1706.89 -439.645 26.2743)
(1833.39 -442.52 29.9062)
(1939.8 -448.67 40.0914)
(2011.52 -432.435 20.821)
(2055.82 -382.057 19.304)
(2038.07 -333.539 23.6482)
(2027.93 -248.972 33.7055)
(1906.39 -158.804 34.4611)
(-995.265 -569.26 26.4179)
(-1129.84 -751.178 6.85887)
(-1085.67 -827.288 25.313)
(-1004.25 -1040.66 -3.76165)
(-574.617 -1148.2 -9.92415)
(-214.674 -1159.12 -3.3222)
(45.3067 -1137.59 -8.81689)
(329.707 -1136.04 -2.51189)
(873.539 -1062.76 11.4172)
(1805.49 -709.6 10.6668)
(2029.34 -725.368 12.1825)
(2126.29 -687.326 -1.92514)
(2184.88 -660.483 11.1255)
(2221.75 -635.848 7.75637)
(2259.54 -612.474 13.7824)
(2269.1 -582.245 14.946)
(2285.26 -537.303 15.5835)
(2267.54 -484.614 18.8711)
(2276.25 -415.456 26.3054)
(2186.12 -225.603 37.2925)
(-1155.94 -354.123 1.30614)
(-1160.01 -411.661 -4.23669)
(-1140.44 -435.65 0.716022)
(-1151.9 -619.143 4.75812)
(2021.21 -708.502 6.08613)
(2384.03 -468.114 -0.656642)
(2403.11 -462.208 -0.369406)
(2415.11 -447.795 0.926279)
(2426.98 -428.665 1.96411)
(2432.32 -404.713 4.43486)
(2442.38 -380.779 0.268641)
(2444.41 -355.256 -2.56618)
(2447.37 -329.278 2.42157)
(2435.9 -311.545 7.4832)
(2426.68 -291.742 11.3207)
(2362.53 -212.558 21.1006)
(-1151.15 -104.304 -3.30276)
(-1163.97 -109.504 -6.45351)
(-1164.4 -121.124 -7.45737)
(-1157.95 -216.443 -5.48117)
(2381.22 -216.589 -8.00022)
(2409.14 -114.744 -3.42071)
(2407.66 -110.772 -3.80077)
(2405.54 -108.492 -3.72258)
(2404.11 -106.391 -3.37695)
(2402.27 -103.725 -2.20944)
(2399.9 -100.413 0.909968)
(2395.49 -98.516 3.31821)
(2390.56 -96.6085 5.57927)
(2382.96 -93.8613 6.39432)
(2380.74 -87.5673 6.10768)
(2365.59 -61.9807 10.369)
(-1142.99 99.2907 -7.35433)
(-1152.36 106.507 -6.36835)
(-1150.48 118.055 -6.87329)
(-1137.37 43.9961 -10.9881)
(2393.23 32.4698 -9.07829)
(2417.91 121.004 -0.617331)
(2417.3 114.979 -0.32301)
(2418.2 109.594 -2.74378)
(2419.43 105.501 -2.48754)
(2419.68 102.252 0.750286)
(2420.61 100.369 4.86793)
(2421.76 98.8633 5.40459)
(2421.95 98.7601 4.62314)
(2421.84 99.4942 4.03706)
(2422.01 99.8952 5.34718)
(2416.32 106.047 8.81416)
(-1160.97 368.23 -9.51731)
(-1177.18 412.766 -10.1525)
(-1163.26 445.552 -4.67576)
(-1140.21 327.435 -5.64286)
(2404.33 300.548 -8.67411)
(2434.73 480.428 7.78985)
(2446.54 460.162 -11.2731)
(2446.38 443.616 -9.15057)
(2449.35 426.989 7.239)
(2452.4 407.933 16.6193)
(2451.3 393.395 7.93062)
(2451.66 373.275 -7.65742)
(2451.81 357.733 -6.87929)
(2445.52 346.007 6.19811)
(2446.14 332.652 13.5458)
(2437.32 316.236 13.2388)
(-1136.64 659.602 -7.31253)
(-1107.07 796.821 -10.3082)
(-998.57 882.593 -12.0915)
(-1049.06 892.521 -3.94175)
(-694.773 2087.98 -3.71823)
(-214.996 2345.36 -20.9031)
(36.2324 2357.6 -17.0738)
(312.366 2372.74 -12.8244)
(1576.65 1853.01 14.7584)
(2206.5 1099.95 -76.0656)
(2303.12 944.054 3.47891)
(2366.69 868.721 44.4917)
(2393.7 812.663 31.6653)
(2424.58 758.921 -6.05653)
(2440.57 702.374 -28.2617)
(2440.13 661.929 -9.41876)
(2457.39 624.529 24.0059)
(2457.69 592.249 36.8575)
(2460.25 571.032 18.4424)
(2457.03 523.864 8.33827)
(-1023.47 882.974 -5.81055)
(-920.761 1090.65 -4.25477)
(-728.729 1185.82 -2.7225)
(-704.657 1807.57 -13.3142)
(-468.844 2359.38 -20.5567)
(-111.476 2385.81 -19.2888)
(126.679 2394.18 -14.909)
(492.986 2411.37 -2.35597)
(1029.21 2236.11 -63.6067)
(1589.5 1663.72 1.48864)
(1998.15 1369.91 124.905)
(2151.89 1218.2 22.3532)
(2222.91 1105.25 -55.3399)
(2273.37 1034.46 -59.2511)
(2324.92 981.868 -10.5327)
(2363.11 920.112 50.1415)
(2403.41 875.527 58.0752)
(2414.18 829.001 21.6703)
(2421 778.984 -9.43742)
(2433.42 714.378 2.11717)
(-878.208 1037.43 -3.22239)
(-710.836 1256.82 -11.1624)
(-554.851 1377.72 1.58838)
(-713.204 2018.1 -22.2485)
(-461.097 2375.55 -14.6641)
(-107.521 2382.07 -18.8799)
(120.284 2390.66 -14.5798)
(468.383 2414.99 -21.5725)
(921.477 2313.32 -10.3393)
(1309.4 2029.46 113.851)
(1675.37 1725.78 26.1307)
(1933.32 1490.14 -149.011)
(2013.04 1363.09 -107.072)
(2084.99 1276.37 5.09764)
(2191.79 1227.28 76.2172)
(2249.04 1164.09 78.9298)
(2301.21 1105.57 23.9051)
(2333.49 1021.81 -31.0853)
(2355.85 979.219 -11.7653)
(2392.85 901.048 20.6118)
(-750.399 1147.37 7.99472)
(-569.993 1357.52 8.79566)
(-447.115 1544.68 -7.77887)
(-672.57 2106.35 -20.3825)
(-445.752 2386.13 -12.2444)
(-105.301 2378.35 -18.8738)
(114.446 2389.72 -15.6421)
(447.46 2410.59 -21.9557)
(845.142 2350.51 38.4066)
(1189.63 2181.13 32.338)
(1465.57 1992.16 -136.785)
(1743.5 1780.65 -142.972)
(1854.72 1566.82 28.8183)
(1938.4 1442.49 115.487)
(2052.37 1422.72 94.0448)
(2113.07 1350.96 21.0834)
(2177.81 1273.1 -48.0867)
(2211.27 1197.71 -36.5718)
(2260.07 1157.67 29.464)
(2323.3 1068.89 48.5933)
(-638.427 1212.6 5.19847)
(-497.413 1448.78 6.36065)
(-448.912 1698.13 10.7115)
(-655.702 2165.87 1.54038)
(-425 2397.17 -10.7303)
(-103.385 2374.75 -18.9242)
(109.58 2390.99 -14.8482)
(428.263 2409.96 -4.98846)
(791.324 2366.98 30.5244)
(1089.83 2236.07 -43.7818)
(1370.93 2072.56 -97.3119)
(1563.72 1913.13 31.1126)
(1702.9 1735.33 163.665)
(1799.83 1577.73 110.658)
(1922.14 1524.37 -8.58937)
(1983.22 1467.54 -66.0813)
(2040.83 1426.64 -50.4422)
(2099.54 1364.43 32.2465)
(2176.5 1329.83 77.6359)
(2244.08 1233.91 55.8248)
(-540.986 1256.76 1.97647)
(-425.249 1513.25 5.16059)
(-449.121 1823.9 13.4899)
(-631.632 2199.72 -1.23435)
(-400.295 2401.48 -9.17772)
(-100.772 2370.78 -17.8291)
(105.592 2390.76 -12.0618)
(407.051 2411.49 6.15019)
(739.946 2389.3 -8.80686)
(1017.79 2272.18 -57.6679)
(1274.34 2117.15 5.75561)
(1465.41 1991.99 129.22)
(1574.36 1850.87 118.321)
(1632.63 1668.02 12.5102)
(1751.52 1577.89 -72.897)
(1833.26 1540.36 -52.043)
(1898.18 1527.29 27.7137)
(1990.14 1490.02 108.074)
(2053.51 1469.9 88.7256)
(2137.97 1362.06 45.1801)
(-474.739 1298.34 17.7391)
(-397.61 1581.53 18.5905)
(-444.206 1922.79 32.5806)
(-605.614 2230.85 5.89201)
(-375.965 2410.65 -14.3066)
(-97.5292 2366.58 -15.0345)
(103.5 2389.62 -9.04977)
(391.802 2411.5 -2.52186)
(683.464 2396.25 -36.7417)
(959.29 2304.49 -16.351)
(1205.76 2200.25 78.1523)
(1422.88 2089.24 111.916)
(1537.17 1975.65 21.1366)
(1576.25 1800.93 -60.203)
(1678.81 1695.2 -50.7573)
(1766.86 1632.67 33.2677)
(1848.17 1618.1 113.155)
(1908.8 1595.41 117.324)
(1942.35 1564.26 58.0157)
(2031.01 1460.38 31.2462)
(-433.468 1356.38 32.844)
(-373.694 1647.06 30.6334)
(-426.299 1989.78 17.9794)
(-574.178 2236.9 7.25257)
(-350.259 2411.29 -16.7795)
(-95.5336 2360.92 -14.2569)
(101.769 2389.15 -8.76845)
(371.678 2415.24 -18.2638)
(644.326 2393.29 -20.6594)
(893.045 2326.91 40.5131)
(1138.11 2238.59 81.8292)
(1345.16 2127.66 40.8839)
(1474.73 2016.18 -35.352)
(1546.75 1866.1 -34.2654)
(1632.26 1789.14 40.1386)
(1726.5 1742.88 126.456)
(1819.37 1719.2 137.257)
(1876.4 1677.85 75.3043)
(1876.6 1634.21 15.274)
(1937.49 1562.49 21.7172)
(-393.129 1372.28 37.0423)
(-327.358 1680.4 43.2994)
(-379.101 2034.45 19.3449)
(-528.475 2253.47 8.04872)
(-324.669 2413.06 -10.3329)
(-93.9436 2355.22 -11.7296)
(100.375 2388.94 -8.4994)
(354.349 2416.15 -18.8783)
(608.705 2409.54 10.7134)
(849.476 2361.61 48.3785)
(1081.05 2278.55 26.5249)
(1261.11 2177.43 -34.7855)
(1422.25 2062.91 -29.549)
(1520.74 1918.95 44.334)
(1612.65 1858.98 123.83)
(1694.63 1835.69 136.762)
(1781.03 1806.83 87.0117)
(1831.12 1737.55 8.54683)
(1832.48 1702.81 9.84012)
(1892.38 1642.97 50.6053)
(-360.936 1379.72 30.0799)
(-283.266 1670.42 41.3743)
(-332.926 2019.25 22.9788)
(-476.305 2236.92 12.6832)
(-306.699 2401 -4.72041)
(-91.2601 2347.35 -10.7619)
(100.741 2388.83 -8.47784)
(342.959 2408.35 -7.33504)
(577.525 2409.6 22.8665)
(806.354 2369.24 14.4235)
(999.44 2302.24 -30.2124)
(1182.56 2204.01 -29.0847)
(1351.31 2108.8 41.8939)
(1469.44 1997.58 120.11)
(1576.98 1902.93 132.521)
(1654.71 1862.44 83.9862)
(1719.14 1834.84 14.7424)
(1774.09 1778.77 -4.9416)
(1802.33 1760.6 46.9193)
(1874.84 1713.34 94.213)
(-331.278 1360.66 29.7224)
(-215.575 1641.81 43.8935)
(-250.269 2010.26 30.9313)
(-409.739 2244.86 21.4653)
(-287.029 2391.28 0.710459)
(-85.1059 2344.06 -9.69839)
(100.595 2388.22 -7.53867)
(328.18 2408.26 0.576314)
(556.177 2414.25 6.75682)
(759.702 2376.44 -16.0114)
(957.001 2322.78 -15.3686)
(1135.81 2243.28 26.5462)
(1303.63 2165.67 79.114)
(1443.28 2044.43 100.609)
(1542.29 1928.64 73.9221)
(1610.83 1856.52 27.0331)
(1690.37 1817.64 12.8697)
(1746.82 1788.97 48.4834)
(1796.89 1809.94 108.637)
(1855.6 1779.64 110.204)
(-299.638 1365.64 23.0278)
(-182.808 1564 33.6203)
(-157.653 1888.9 32.0501)
(-225.719 2155.29 34.4215)
(-209.392 2325.79 13.7976)
(-59.6403 2326.57 -2.70735)
(105.722 2381.01 -3.95808)
(310.034 2397.14 2.71265)
(511.414 2411.57 -0.412345)
(698.045 2388.68 -6.32578)
(881.664 2356.29 12.3378)
(1046.22 2295.61 41.5386)
(1208.56 2222.84 55.5316)
(1338.6 2120.81 51.4886)
(1438.77 2018.49 39.8277)
(1537.14 1921.34 29.362)
(1624.47 1862.9 47.4476)
(1685.62 1840.24 87.9418)
(1749.73 1838.87 106.976)
(1805.73 1800.16 99.866)
(-482.035 -483.45 34.2692)
(-364.033 -549.442 45.8845)
(-498.564 -799.911 57.437)
(-607.374 -1059.4 18.7787)
(-347.071 -1184.46 1.48639)
(-99.2603 -1175.39 -1.70991)
(105.426 -1164.74 -4.59192)
(374.487 -1183.3 -4.69928)
(663.392 -1155.81 5.7771)
(890.856 -1043.71 10.3847)
(1044.06 -895.465 9.50127)
(1156.9 -763.899 23.313)
(1227.56 -651.642 21.3947)
(1274.23 -553.483 16.535)
(1311.79 -481.411 33.6865)
(1370.51 -438.186 49.4645)
(1389.35 -395.821 50.6653)
(1400.14 -361.659 40.7208)
(1381.88 -333.367 38.0298)
(1382 -300.454 25.6881)
(-535.784 -365.059 45.9371)
(-614.484 -613.82 111.967)
(-908.133 -980.635 22.3686)
(-730.533 -1170.07 5.49766)
(-398.093 -1176.07 -1.05731)
(-103.514 -1187.02 -0.992448)
(114.147 -1173.38 -3.48635)
(419.052 -1199.97 -4.5172)
(801.342 -1126.32 7.61828)
(1100.18 -940.108 24.4419)
(1276.98 -728.022 14.6908)
(1376.49 -574.294 34.5917)
(1482.61 -503.489 35.688)
(1544.22 -425.539 29.7895)
(1612.63 -391.047 42.4696)
(1685.67 -367.919 52.2501)
(1728.63 -320.072 57.8904)
(1721.45 -278.621 51.2158)
(1697.5 -217.724 54.8149)
(1616.82 -185.674 40.4794)
(-767.815 -478.347 61.8329)
(-984.502 -903.174 19.1916)
(-985.865 -981.108 -12.4729)
(-811.581 -1114.17 37.6661)
(-418.334 -1169.13 3.41068)
(-117.705 -1187.49 -4.3269)
(122.327 -1173.09 -5.22012)
(451.645 -1187.14 1.01983)
(893.307 -1024.34 6.37563)
(1190.24 -735.114 22.4507)
(1426.21 -580.997 45.5524)
(1607.22 -475.129 15.7193)
(1755.97 -435.722 31.8214)
(1878.02 -432.975 29.2017)
(1985.84 -446.608 44.4171)
(2071.11 -444.152 27.4567)
(2127.84 -397.427 25.331)
(2115.4 -350.277 25.4904)
(2109.3 -266.393 33.3638)
(1984.04 -165.16 33.7995)
(-1042.83 -598.956 18.5685)
(-1164.64 -746.101 -9.2029)
(-1098.92 -836.941 10.4297)
(-1020.95 -1065.36 -11.4931)
(-570.921 -1177.98 3.68738)
(-211.675 -1183.57 -5.35196)
(47.0482 -1161.02 -8.42628)
(333.65 -1163.68 -1.62367)
(886.509 -1085.78 10.7539)
(1860.47 -699.218 17.4348)
(2087.27 -719.028 31.8259)
(2199.91 -710.982 18.7703)
(2252.64 -674.414 28.3358)
(2287.67 -641.486 18.3526)
(2327.97 -620.113 19.9698)
(2346.19 -592.869 18.3638)
(2364.66 -551.738 18.4115)
(2350.45 -503.768 19.5489)
(2356.75 -441.548 26.5391)
(2273.87 -255.673 38.5214)
(-1182.55 -353.928 0.742426)
(-1176.88 -412.442 -5.29609)
(-1165.92 -438.051 -1.76728)
(-1175.91 -624.012 1.77217)
(2059.61 -727.781 21.7186)
(2447.81 -472.462 12.5507)
(2470.55 -467.096 11.0198)
(2487.18 -451.598 11.042)
(2501.35 -433.023 11.5485)
(2508.02 -410.239 13.0746)
(2517.68 -387.574 8.14411)
(2520.94 -362.642 0.81196)
(2525.77 -336.372 2.15436)
(2517.47 -317.446 6.28536)
(2508.63 -300.861 9.22982)
(2450.96 -232.329 18.7664)
(-1175 -105.016 -3.06457)
(-1185.25 -108.475 -3.88579)
(-1183.05 -120.998 -5.45035)
(-1187.38 -216.589 -3.69172)
(2416.17 -216.353 5.93127)
(2475.89 -115.669 6.33721)
(2478.02 -111.54 7.65077)
(2478.47 -107.766 8.13215)
(2478.72 -106.57 6.30476)
(2477.99 -104.313 4.41855)
(2476.17 -101.312 4.7109)
(2472.59 -99.3385 5.48806)
(2468.15 -97.3025 6.71932)
(2461.08 -95.495 7.44019)
(2457.56 -90.937 6.32271)
(2444.98 -69.8573 9.68437)
(-1165.53 98.7566 -2.34291)
(-1173.81 108.3 0.279761)
(-1171.71 119.645 -1.74572)
(-1161.35 46.9435 -5.49275)
(2435.24 33.7688 6.3545)
(2486.07 121.612 10.7296)
(2489.91 115.599 12.7634)
(2492.67 111.124 10.6166)
(2495.23 106.589 8.31516)
(2497.24 102.448 7.83866)
(2499.17 101.244 9.53896)
(2501.41 99.8672 10.1229)
(2502.29 98.8984 8.23241)
(2502.16 99.7095 5.83168)
(2501.85 100.201 5.49927)
(2497.91 103.92 7.42293)
(-1184.03 369.37 -4.43256)
(-1198.76 413.145 -3.43755)
(-1184.23 445.006 1.7161)
(-1159.72 331.482 -2.40694)
(2448.91 303.515 9.72674)
(2502.37 482.803 24.4003)
(2520.07 467.445 6.96152)
(2522.98 446.648 -0.354167)
(2523.36 430.319 10.884)
(2529.85 411.095 25.5303)
(2535.12 396.306 22.5282)
(2534.93 379.851 5.05631)
(2532.58 359.925 -5.06434)
(2526.05 349.038 2.88085)
(2527.39 336.515 13.223)
(2520.37 319.203 14.1809)
(-1158.91 659.963 -2.2655)
(-1128.28 793.525 -4.62883)
(-1030.29 878.619 -4.15186)
(-1084.32 874.908 -9.05617)
(-726.077 2048.06 -2.28796)
(-212.536 2403.33 -15.529)
(37.6091 2420.22 -11.3239)
(310.699 2437.78 -8.31948)
(1791.75 1712.03 -0.186367)
(2297.11 1090.18 -46.4671)
(2369.29 932.524 -5.3617)
(2434.5 863.408 50.8379)
(2475.84 814.222 58.3417)
(2505.48 770.976 25.7407)
(2518.46 712.14 -15.0485)
(2512.88 663.674 -14.9176)
(2525.59 631.689 12.8419)
(2540.88 596.922 38.174)
(2547.93 579.53 27.3495)
(2542.17 535.14 12.7177)
(-1048.21 888.671 1.55593)
(-943.96 1092.35 7.23326)
(-745.197 1175.71 0.705031)
(-716.486 1821.27 -0.205845)
(-466.276 2423.95 -9.83841)
(-110.88 2452.53 -12.0462)
(127.067 2462.17 -8.66478)
(493.941 2478.08 7.29577)
(1065.63 2282.91 -59.5037)
(1657.9 1678.57 -62.5647)
(2053.66 1362.84 134.059)
(2235.6 1237.53 90.1637)
(2316.77 1136.56 -5.60284)
(2353.25 1043.17 -47.9267)
(2389.35 983.738 -26.9301)
(2425.9 928.571 34.6789)
(2482.17 884.071 67.5132)
(2506.01 845.13 46.8896)
(2506.31 797.672 1.32131)
(2512.33 726.384 -0.78417)
(-903.91 1045.91 -4.30288)
(-737.022 1268.71 -4.07827)
(-593.342 1407.87 20.1967)
(-729.964 2057.2 -0.60158)
(-462.266 2446.19 -7.93313)
(-106.545 2454.38 -11.8433)
(120.7 2465.08 -6.57785)
(474.799 2493.39 -11.7881)
(926.736 2354.94 -25.6038)
(1323.5 2039.55 120.02)
(1724.61 1737.63 130.622)
(1998.56 1515.56 -70.8248)
(2084.15 1371.57 -104.479)
(2143.34 1282.53 -23.2637)
(2245.13 1233.68 65.7526)
(2328.16 1179.43 103.229)
(2387.02 1130.4 65.1508)
(2411.12 1043.4 -10.719)
(2426.68 987.034 -22.5034)
(2464.15 915.318 9.54394)
(-772.283 1156.99 5.18006)
(-586.917 1369.59 12.8094)
(-486.919 1587.42 3.83047)
(-717.499 2175.22 -11.817)
(-447.975 2463.26 -6.37477)
(-103.805 2454.3 -13.2018)
(115.912 2467.37 -8.95417)
(451.953 2493.7 -20.0844)
(854.952 2411.8 33.931)
(1221.79 2227 79.6709)
(1501.8 2000.69 -70.2436)
(1743.68 1757.37 -159.987)
(1887.76 1564.63 -22.9011)
(2000.56 1451.45 128.426)
(2116.84 1439.97 141.688)
(2188.97 1382.14 80.7964)
(2249.06 1296.34 -21.3205)
(2277.79 1202.09 -46.0896)
(2319.93 1171.13 10.792)
(2395.43 1087.14 49.0501)
(-660.537 1228.48 7.57891)
(-513.444 1471.67 11.4266)
(-454.048 1740.93 10.4285)
(-684.998 2232.78 9.12397)
(-429.177 2477.52 -6.40551)
(-101.989 2453.9 -15.3914)
(111.287 2471.2 -11.5965)
(434.181 2492.24 -8.0531)
(804.797 2451.13 42.1285)
(1128.88 2310.14 -15.4113)
(1373.85 2097.03 -106.051)
(1556.27 1907.31 -20.2652)
(1755.41 1768.73 164.558)
(1889.93 1637.25 187.145)
(1998.46 1565.86 80.34)
(2054.68 1488.67 -32.5335)
(2106.16 1434.51 -54.9047)
(2153.04 1374.64 9.83441)
(2241.89 1348.56 91.2058)
(2319.26 1258.67 75.4053)
(-558.855 1269.98 5.23675)
(-438.915 1540.16 5.31804)
(-448.791 1866.52 0.251109)
(-650.897 2266.58 2.32492)
(-406.215 2483.76 -5.42894)
(-99.947 2452.44 -15.9462)
(107.647 2472.56 -10.5999)
(413.911 2498.08 7.64824)
(761.735 2480.03 8.30359)
(1036.96 2342.68 -61.981)
(1280.8 2149.65 -30.1246)
(1466.88 2025.18 131.675)
(1639.02 1909.16 190.101)
(1733.16 1748.19 103.307)
(1826.98 1613.34 -40.8135)
(1892.48 1543.82 -55.1572)
(1949.24 1534.82 13.7488)
(2046.17 1505.17 123.656)
(2124.04 1496.7 124.203)
(2214.22 1393.62 63.5089)
(-483.376 1306.34 19.1913)
(-407.883 1610.09 21.0879)
(-455.839 1970.95 26.8397)
(-625.497 2303.49 5.78298)
(-383.317 2492.66 -10.7823)
(-97.1552 2450.48 -14.2678)
(105.331 2472.03 -7.73046)
(398.555 2504.26 4.35041)
(703.487 2487.96 -33.4163)
(972.089 2367.28 -41.2017)
(1219.03 2240.91 60.4186)
(1441.38 2134.71 147.499)
(1589.32 2024.62 92.8559)
(1626.95 1862.83 -34.6149)
(1704.09 1715.48 -64.6319)
(1785.66 1627.63 16.957)
(1872.52 1623.48 125.115)
(1957.17 1607.19 153.174)
(2006.24 1590.86 84.1182)
(2105.25 1487.76 34.4875)
(-443.298 1365.26 33.0493)
(-387.123 1683.12 32.8592)
(-451.657 2053.9 18.513)
(-595.931 2320.38 5.91947)
(-358.853 2495.06 -15.4004)
(-94.9514 2446.65 -12.6797)
(103.547 2472.81 -5.72187)
(380.511 2505.25 -12.7222)
(655.886 2477.79 -32.1535)
(911.593 2395.7 20.5958)
(1160.55 2315.5 95.4567)
(1381.98 2196.68 83.1074)
(1516.12 2078.82 -21.3679)
(1571.06 1924.31 -48.8464)
(1639.49 1807.67 20.5345)
(1730.87 1734.72 133.977)
(1828.72 1716.67 162.805)
(1904.98 1676.59 106.22)
(1929.23 1646.62 18.9292)
(1997.92 1579.75 21.938)
(-402.023 1389.95 39.3668)
(-339.737 1729.16 43.9494)
(-406.888 2112.12 20.3971)
(-554.75 2338.91 6.72689)
(-332.601 2499.72 -12.1439)
(-93.0767 2441.79 -11.1051)
(101.69 2473.85 -5.96608)
(360.726 2502.4 -19.696)
(622.188 2487.97 -2.78208)
(865.92 2448.21 51.2883)
(1112.74 2368.86 53.7775)
(1293.24 2247.91 -25.2294)
(1447.48 2121.92 -49.1882)
(1546.79 1971.4 23.9654)
(1636.85 1893.6 137.155)
(1716.8 1846.09 167.743)
(1795.36 1808.82 114.108)
(1859.65 1740.79 17.536)
(1869 1707.56 7.25429)
(1933.97 1654.15 54.7242)
(-367.541 1402.73 33.9055)
(-293.937 1725.06 40.3074)
(-360.258 2102.47 21.1336)