/*--------------------------------*- C++ -*----------------------------------*\
  =========                 |
  \\      /  F ield         | OpenFOAM: The Open Source CFD Toolbox
   \\    /   O peration     | Website:  https://openfoam.org
    \\  /    A nd           | Version:  9
     \\/     M anipulation  |
\*---------------------------------------------------------------------------*/
FoamFile
{
    format      ascii;
    class       volScalarField;
    location    "0.005";
    object      alpha.C4;
}
// * * * * * * * * * * * * * * * * * * * * * * * * * * * * * * * * * * * * * //

dimensions      [0 0 0 0 0 0 0];

internalField   nonuniform List<scalar> 
9720
(
0.999778
0.999878
0.999901
0.999917
0.999926
0.99993
0.999933
0.999935
0.999938
0.999937
0.999934
0.999929
0.99992
0.999907
0.999888
0.99986
0.999823
0.99977
0.999713
0.999566
0.999875
0.999927
0.999935
0.999939
0.999942
0.999943
0.999945
0.999947
0.99995
0.99995
0.999948
0.999946
0.999942
0.999935
0.999924
0.999908
0.999885
0.999851
0.999812
0.999711
0.999898
0.999933
0.999938
0.99994
0.999941
0.999942
0.999945
0.999947
0.99995
0.99995
0.999948
0.999946
0.999942
0.999938
0.999931
0.99992
0.999903
0.999878
0.99985
0.999777
0.999917
0.999938
0.999938
0.999893
0.999894
0.999894
0.999899
0.999903
0.999908
0.999906
0.999897
0.999896
0.999898
0.999901
0.999902
0.999899
0.999889
0.999871
0.999849
0.999784
0.999928
0.999943
0.999943
0.999894
0.999833
0.999671
0.999678
0.999688
0.9997
0.999715
0.999734
0.999754
0.999769
0.999773
0.999771
0.999731
0.999934
0.999947
0.999947
0.999902
0.999542
0.999328
0.999324
0.999324
0.999329
0.999339
0.99936
0.999391
0.999433
0.999481
0.999525
0.99952
0.999938
0.999951
0.999951
0.999909
0.999184
0.998798
0.998796
0.998796
0.998798
0.998801
0.99881
0.998831
0.998871
0.998933
0.99902
0.999072
0.999941
0.999953
0.999953
0.999914
0.998639
0.998117
0.998126
0.998141
0.998144
0.998139
0.998125
0.998123
0.998133
0.998167
0.99824
0.998313
0.999945
0.999957
0.999957
0.999923
0.999881
0.999679
0.99943
0.999063
0.998102
0.997573
0.997494
0.997451
0.997419
0.997391
0.997359
0.997324
0.99728
0.997251
0.997268
0.997285
0.999945
0.999958
0.999959
0.99993
0.999775
0.99954
0.999176
0.99874
0.998063
0.997542
0.997185
0.996939
0.99678
0.996675
0.996587
0.996494
0.996377
0.996245
0.996171
0.996073
0.999943
0.999958
0.999958
0.999925
0.999776
0.999527
0.999162
0.998732
0.998127
0.997506
0.996993
0.996586
0.996263
0.996016
0.995811
0.99561
0.995386
0.995135
0.994945
0.994672
0.999939
0.999956
0.999957
0.999924
0.999778
0.999518
0.999149
0.99872
0.998131
0.997465
0.996835
0.996284
0.995802
0.995381
0.994995
0.994626
0.994264
0.993893
0.993591
0.993094
0.999931
0.999953
0.999954
0.999924
0.999782
0.999512
0.999138
0.998701
0.998122
0.997437
0.996707
0.996003
0.995335
0.994687
0.994046
0.993465
0.992968
0.992498
0.992093
0.991314
0.999918
0.999947
0.999951
0.999925
0.99979
0.999515
0.999128
0.998675
0.998099
0.997407
0.996617
0.995766
0.994858
0.993913
0.992986
0.992181
0.991525
0.990913
0.990359
0.989222
0.999899
0.999937
0.999944
0.999924
0.9998
0.999524
0.999123
0.998644
0.99806
0.997362
0.996529
0.995551
0.9944
0.993152
0.991951
0.990876
0.989947
0.989039
0.988223
0.98665
0.999873
0.999922
0.999934
0.99992
0.999811
0.99954
0.999128
0.998618
0.998011
0.997292
0.996415
0.99534
0.994027
0.99256
0.99107
0.989608
0.988217
0.986771
0.985526
0.983466
0.999837
0.9999
0.999919
0.999909
0.999817
0.999564
0.999144
0.9986
0.997952
0.997189
0.996258
0.995114
0.993727
0.992134
0.990373
0.988445
0.986416
0.984207
0.982376
0.979752
0.999786
0.999867
0.999896
0.999892
0.999816
0.99959
0.999175
0.998606
0.997898
0.997066
0.996064
0.994859
0.993428
0.991743
0.989728
0.987291
0.984513
0.981415
0.978904
0.975463
0.999731
0.999831
0.999871
0.999871
0.999809
0.999608
0.999218
0.998626
0.997871
0.996976
0.995903
0.994633
0.993143
0.991361
0.989143
0.986342
0.983037
0.979306
0.976142
0.971504
0.999589
0.999735
0.999802
0.999809
0.999764
0.99959
0.99922
0.998619
0.997805
0.996816
0.995617
0.994191
0.992504
0.99046
0.987909
0.984729
0.980979
0.976576
0.972369
0.964685
0.999859
0.999928
0.999945
0.999957
0.999964
0.999966
0.999968
0.999969
0.99997
0.99997
0.999967
0.999963
0.999957
0.999947
0.999933
0.999914
0.999888
0.999851
0.999812
0.999707
0.999926
0.999966
0.999974
0.999981
0.999983
0.999983
0.999984
0.999984
0.999985
0.999983
0.99998
0.999976
0.999971
0.999965
0.999957
0.999946
0.999931
0.999908
0.999882
0.999814
0.999942
0.999974
0.999982
0.99999
0.999991
0.999991
0.999991
0.999992
0.999991
0.999985
0.999979
0.999973
0.999969
0.999965
0.99996
0.999953
0.999941
0.999925
0.999906
0.999855
0.999956
0.99998
0.999989
0.999997
0.999999
0.999999
0.999999
0.999999
0.999997
0.999927
0.999906
0.999898
0.999899
0.999903
0.999908
0.999912
0.999911
0.999905
0.999894
0.999852
0.999965
0.999983
0.999991
0.999999
0.999823
0.999568
0.999581
0.999598
0.999617
0.999641
0.999672
0.999706
0.999741
0.999766
0.999776
0.999759
0.999968
0.999985
0.999992
0.999999
0.999345
0.999118
0.999116
0.999117
0.999125
0.999141
0.999172
0.999218
0.999286
0.999361
0.999435
0.999475
0.99997
0.999986
0.999992
0.999999
0.998801
0.998446
0.998449
0.998453
0.998456
0.998461
0.998474
0.998502
0.998557
0.998649
0.998765
0.998887
0.999972
0.999986
0.999993
0.999999
0.99802
0.997624
0.997646
0.99767
0.997672
0.997666
0.997648
0.997643
0.997656
0.997704
0.997799
0.997938
0.999974
0.999987
0.999993
0.999997
0.999856
0.999515
0.999089
0.998469
0.99729
0.996857
0.996851
0.996822
0.996781
0.996754
0.996727
0.996692
0.99664
0.996609
0.996635
0.996699
0.999974
0.999986
0.999988
0.999937
0.999639
0.999262
0.998688
0.997992
0.997089
0.996593
0.996253
0.99606
0.995962
0.995887
0.995804
0.995702
0.99557
0.995422
0.995354
0.995295
0.999972
0.999984
0.999983
0.999922
0.999652
0.999264
0.998702
0.998042
0.997195
0.996396
0.995863
0.995565
0.995317
0.995075
0.994854
0.994645
0.994419
0.994152
0.993954
0.993689
0.999969
0.999981
0.999979
0.999917
0.999668
0.999269
0.998714
0.998083
0.99726
0.996388
0.995706
0.995195
0.994706
0.994263
0.993868
0.993504
0.993148
0.992745
0.992404
0.991889
0.999963
0.999978
0.999976
0.999919
0.999686
0.999278
0.998724
0.998093
0.997294
0.996418
0.995589
0.994809
0.994069
0.99341
0.992779
0.992198
0.991693
0.99118
0.990729
0.989927
0.999954
0.999972
0.999973
0.999923
0.999708
0.999295
0.998732
0.998088
0.997299
0.996429
0.995489
0.994496
0.993497
0.992514
0.991573
0.990758
0.990095
0.989454
0.988855
0.987672
0.999941
0.999966
0.999969
0.999927
0.999734
0.999322
0.998745
0.998073
0.997286
0.996411
0.995396
0.994253
0.992991
0.991659
0.99043
0.989326
0.988391
0.987476
0.986608
0.984948
0.999924
0.999956
0.999962
0.999929
0.999762
0.99936
0.998768
0.998064
0.997256
0.996352
0.995283
0.994043
0.992593
0.991002
0.989439
0.987926
0.986554
0.985129
0.983816
0.98162
0.999899
0.999941
0.999953
0.999928
0.999789
0.999415
0.998812
0.998072
0.997208
0.996242
0.995126
0.993825
0.992282
0.990543
0.988676
0.986698
0.984704
0.982504
0.980574
0.977785
0.999864
0.99992
0.999938
0.999922
0.999807
0.999471
0.998883
0.998106
0.997166
0.996111
0.994923
0.993545
0.991938
0.990105
0.987979
0.98549
0.982718
0.979587
0.976981
0.973427
0.999827
0.999897
0.999921
0.999911
0.999811
0.999527
0.99897
0.998175
0.997184
0.996053
0.994771
0.993286
0.991599
0.989657
0.987312
0.984431
0.981081
0.977305
0.974115
0.969452
0.999726
0.999834
0.999875
0.999872
0.999794
0.999547
0.999046
0.998248
0.997195
0.995974
0.994532
0.992844
0.990932
0.988693
0.98598
0.982679
0.978858
0.974451
0.970283
0.962664
0.99995
0.99998
0.999986
0.999991
0.999993
0.999994
0.999994
0.999995
0.999995
0.999995
0.999993
0.999992
0.999989
0.999984
0.999978
0.999969
0.999956
0.999936
0.999915
0.99985
0.99998
0.999995
0.999998
0.999999
0.999999
0.999999
0.999999
0.999999
0.999999
0.999998
0.999997
0.999996
0.999995
0.999992
0.999988
0.999983
0.999976
0.999967
0.999955
0.99992
0.999986
0.999997
0.999999
1
1
1
1
1
1
0.999995
0.99999
0.999986
0.999984
0.999983
0.999983
0.999982
0.999979
0.999973
0.999966
0.999942
0.999991
0.999999
1
1
1
1
1
1
0.999999
0.999893
0.999863
0.999855
0.999861
0.999873
0.99989
0.999908
0.999923
0.999927
0.999927
0.999914
0.999994
0.999999
1
1
0.999789
0.999391
0.999397
0.999411
0.999434
0.999469
0.999516
0.999576
0.999642
0.999697
0.999742
0.999757
0.999994
0.999999
1
1
0.999233
0.99879
0.998768
0.998752
0.998754
0.998767
0.998799
0.99886
0.99896
0.999078
0.999188
0.999308
0.999995
0.999999
1
1
0.998572
0.9979
0.997888
0.997878
0.997868
0.997867
0.997874
0.997899
0.997961
0.998076
0.998221
0.998432
0.999995
0.999999
1
1
0.997625
0.996869
0.99689
0.996896
0.996889
0.996873
0.996847
0.996816
0.99682
0.996859
0.996955
0.997149
0.999996
0.999999
1
0.999999
0.999794
0.999291
0.998685
0.99782
0.996319
0.995876
0.995884
0.99586
0.995817
0.995779
0.995737
0.995677
0.995601
0.995516
0.995528
0.995603
0.999995
0.999999
0.999996
0.999903
0.999467
0.998935
0.998134
0.997199
0.996058
0.995441
0.995041
0.994869
0.994808
0.994742
0.994632
0.994489
0.994324
0.994137
0.994025
0.993934
0.999994
0.999998
0.999991
0.999881
0.999479
0.998926
0.998137
0.997231
0.996139
0.995164
0.994506
0.994227
0.994003
0.993731
0.993448
0.993205
0.992977
0.992702
0.992452
0.992095
0.999993
0.999997
0.999988
0.999878
0.999499
0.998928
0.998142
0.997261
0.996182
0.995076
0.994301
0.99376
0.993197
0.99266
0.992234
0.99189
0.991557
0.991134
0.990711
0.990059
0.99999
0.999996
0.999987
0.999884
0.999525
0.998935
0.998149
0.997269
0.996202
0.995089
0.994131
0.993221
0.992331
0.991628
0.99104
0.990477
0.989936
0.989325
0.988778
0.987873
0.999986
0.999994
0.999987
0.999895
0.999557
0.998953
0.998157
0.997264
0.996196
0.995082
0.993932
0.992723
0.991621
0.99068
0.989774
0.988885
0.988093
0.987312
0.98666
0.985458
0.999981
0.999991
0.999987
0.99991
0.999599
0.998986
0.998171
0.997249
0.996178
0.995033
0.993737
0.992371
0.991051
0.989742
0.988449
0.987201
0.986127
0.985126
0.984274
0.98265
0.999972
0.999986
0.999986
0.999925
0.999648
0.999039
0.998199
0.997229
0.996139
0.994938
0.99357
0.99212
0.990561
0.988864
0.987151
0.985507
0.984086
0.982696
0.981447
0.979243
0.99996
0.999981
0.999983
0.999936
0.999701
0.999121
0.998253
0.997235
0.996078
0.994808
0.993404
0.991881
0.990134
0.988157
0.986091
0.984045
0.982128
0.980067
0.978178
0.97525
0.999941
0.999972
0.999979
0.99994
0.999745
0.999215
0.998349
0.99727
0.996021
0.994659
0.993192
0.99156
0.98965
0.987505
0.98519
0.982707
0.980084
0.977089
0.974419
0.970632
0.999921
0.999962
0.999973
0.99994
0.999782
0.999307
0.998468
0.997354
0.99604
0.994588
0.993011
0.991228
0.989207
0.986968
0.984468
0.981592
0.978315
0.974534
0.971219
0.966432
0.999858
0.999928
0.999952
0.999929
0.999795
0.999409
0.998644
0.997513
0.99611
0.99454
0.992753
0.990717
0.988476
0.985987
0.983131
0.979738
0.975799
0.971236
0.966995
0.959582
0.999982
0.999995
0.999997
0.999998
0.999999
0.999999
0.999999
0.999999
0.999999
0.999999
0.999998
0.999998
0.999996
0.999994
0.999991
0.999986
0.999978
0.999965
0.999949
0.999896
0.999995
1
1
1
1
1
1
1
1
1
1
0.999999
0.999999
0.999998
0.999997
0.999994
0.99999
0.999985
0.999979
0.999954
0.999997
1
1
1
1
1
1
1
1
0.999992
0.999984
0.99998
0.99998
0.999982
0.999985
0.999987
0.999988
0.999987
0.999985
0.999972
0.999998
1
1
1
1
1
1
1
0.999996
0.999823
0.999777
0.99978
0.999793
0.999817
0.999847
0.999879
0.999904
0.999919
0.999928
0.999924
0.999999
1
1
1
0.999607
0.999074
0.999094
0.999131
0.999178
0.999236
0.999308
0.999397
0.999495
0.99958
0.99965
0.999703
0.999999
1
1
1
0.998744
0.998259
0.998247
0.998248
0.998257
0.998282
0.99833
0.998412
0.998545
0.998707
0.99886
0.999054
0.999999
1
1
1
0.99783
0.997119
0.997112
0.997111
0.997112
0.997118
0.997133
0.997169
0.997245
0.997379
0.997552
0.997849
0.999999
1
1
1
0.996603
0.995853
0.995875
0.995892
0.995891
0.995884
0.995869
0.99584
0.995842
0.995874
0.995966
0.996207
0.999999
1
1
0.999997
0.999697
0.998981
0.998166
0.997062
0.995244
0.994765
0.99473
0.994696
0.994652
0.99461
0.994566
0.994499
0.994417
0.994302
0.994295
0.994364
0.999999
1
0.999994
0.999867
0.99929
0.998609
0.997622
0.996505
0.995054
0.994279
0.993822
0.993606
0.993509
0.993423
0.993299
0.99314
0.992963
0.992755
0.992599
0.992457
0.999998
1
0.999988
0.999834
0.999301
0.998594
0.997622
0.996538
0.995165
0.994025
0.99325
0.992878
0.992607
0.992304
0.991987
0.991703
0.991451
0.991167
0.990889
0.990457
0.999998
1
0.999985
0.999831
0.999324
0.998591
0.997622
0.996562
0.99523
0.99392
0.992984
0.992358
0.991759
0.991162
0.990661
0.990267
0.989917
0.989497
0.989058
0.988311
0.999997
0.999999
0.999985
0.999839
0.999355
0.998596
0.997622
0.99656
0.995265
0.993908
0.992774
0.991795
0.990866
0.990063
0.989395
0.988799
0.988243
0.98761
0.987021
0.986
0.999995
0.999999
0.999986
0.999856
0.999395
0.998612
0.997625
0.99655
0.99526
0.993889
0.992543
0.991223
0.990033
0.989035
0.98811
0.987206
0.986368
0.985495
0.984764
0.983477
0.999991
0.999997
0.999988
0.999878
0.999448
0.998646
0.997635
0.99653
0.99524
0.993837
0.99232
0.990769
0.989329
0.988016
0.98675
0.985493
0.984336
0.983189
0.982267
0.980643
0.999986
0.999994
0.99999
0.999902
0.999513
0.998708
0.997659
0.996493
0.995192
0.993746
0.992131
0.990452
0.988757
0.987044
0.98535
0.983682
0.982166
0.980669
0.979426
0.977311
0.999978
0.999991
0.99999
0.999922
0.999588
0.998808
0.997715
0.996485
0.995124
0.993625
0.991961
0.990198
0.988289
0.986226
0.984101
0.981993
0.980036
0.978008
0.976241
0.973423
0.999965
0.999986
0.99999
0.999934
0.999654
0.998931
0.997815
0.996506
0.995036
0.993472
0.991762
0.989902
0.987801
0.985459
0.982967
0.980409
0.977858
0.975067
0.97258
0.968807
0.99995
0.99998
0.999988
0.999942
0.999711
0.999052
0.997948
0.996575
0.995036
0.993361
0.991568
0.989594
0.987365
0.984879
0.982171
0.979235
0.976081
0.972516
0.96929
0.96444
0.999897
0.999957
0.999976
0.999939
0.999758
0.999214
0.998189
0.996765
0.9951
0.99328
0.991278
0.989066
0.986615
0.983908
0.980904
0.977477
0.973584
0.969029
0.96472
0.957383
0.999986
0.999996
0.999998
0.999999
0.999999
0.999999
0.999999
0.999999
0.999999
0.999999
0.999999
0.999998
0.999997
0.999995
0.999992
0.999987
0.99998
0.999968
0.999953
0.999901
0.999996
1
1
1
1
1
1
1
1
1
1
1
0.999999
0.999999
0.999997
0.999995
0.999991
0.999986
0.999981
0.999957
0.999997
1
1
1
1
1
1
1
1
0.999991
0.999983
0.999978
0.999979
0.999981
0.999984
0.999986
0.999988
0.999988
0.999986
0.999975
0.999999
1
1
1
1
1
1
1
0.999995
0.999796
0.999746
0.999748
0.999762
0.999789
0.999822
0.999857
0.999888
0.999908
0.999921
0.999919
0.999999
1
1
1
0.999513
0.998916
0.998937
0.998978
0.999033
0.999101
0.999184
0.999285
0.999399
0.999502
0.999583
0.999651
0.999999
1
1
1
0.99841
0.997898
0.997894
0.997899
0.997916
0.997951
0.998012
0.998112
0.998267
0.998458
0.998639
0.998874
0.999999
1
1
1
0.997249
0.996492
0.996501
0.996514
0.996532
0.996555
0.996588
0.996642
0.996738
0.996892
0.997089
0.997449
0.999999
1
1
1
0.995757
0.99495
0.994993
0.995033
0.995062
0.995088
0.995093
0.995091
0.995102
0.995146
0.99525
0.995544
0.999999
1
1
0.999996
0.999648
0.998798
0.997857
0.996625
0.994325
0.993782
0.993721
0.993688
0.993654
0.993626
0.993592
0.993542
0.993477
0.993379
0.993376
0.99347
0.999999
1
0.999992
0.999835
0.999133
0.998334
0.99722
0.995999
0.994307
0.993344
0.992869
0.992598
0.992414
0.992278
0.992156
0.992019
0.991864
0.991675
0.99151
0.99137
0.999999
1
0.999985
0.999791
0.999145
0.998316
0.997221
0.996041
0.994452
0.993196
0.99238
0.991857
0.991455
0.991098
0.990779
0.990489
0.99022
0.989937
0.989661
0.989235
0.999998
1
0.999981
0.999789
0.999171
0.998315
0.997223
0.99607
0.994563
0.993146
0.992085
0.991322
0.990669
0.990032
0.98945
0.988968
0.988567
0.988153
0.987753
0.987023
0.999997
0.999999
0.999981
0.999799
0.999211
0.998322
0.997227
0.996072
0.994629
0.993134
0.991855
0.990825
0.989899
0.988995
0.988154
0.987447
0.986856
0.986245
0.985684
0.984644
0.999995
0.999999
0.999983
0.999821
0.999262
0.998343
0.997234
0.996066
0.994669
0.993134
0.991658
0.990315
0.989081
0.987937
0.986872
0.985906
0.985045
0.984151
0.983388
0.982038
0.999992
0.999997
0.999986
0.999848
0.999327
0.998387
0.997249
0.99605
0.994659
0.993117
0.991497
0.989871
0.988313
0.986895
0.985579
0.984313
0.983109
0.981851
0.980833
0.979146
0.999987
0.999995
0.999988
0.999878
0.999408
0.998463
0.997281
0.996017
0.99462
0.993062
0.991349
0.98955
0.987731
0.985975
0.984294
0.982626
0.981002
0.979312
0.977967
0.975847
0.99998
0.999991
0.999989
0.999904
0.9995
0.998582
0.997347
0.99601
0.994559
0.992968
0.991198
0.989304
0.987303
0.985224
0.983104
0.980943
0.978828
0.976642
0.974855
0.972085
0.999968
0.999987
0.999989
0.999922
0.999583
0.99873
0.997458
0.996029
0.99447
0.992831
0.991018
0.989047
0.986883
0.984501
0.981937
0.979253
0.97658
0.973779
0.971361
0.967594
0.999953
0.999982
0.999988
0.999935
0.999651
0.998872
0.997605
0.996095
0.99446
0.992709
0.99083
0.988789
0.986509
0.983945
0.981114
0.978048
0.974854
0.97136
0.968174
0.963214
0.999902
0.999959
0.999978
0.999933
0.999712
0.999067
0.997887
0.996304
0.994521
0.992604
0.990536
0.98829
0.985787
0.982989
0.97988
0.97639
0.972504
0.967955
0.963554
0.956063
0.999986
0.999996
0.999998
0.999999
0.999999
0.999999
0.999999
0.999999
0.999999
0.999999
0.999999
0.999998
0.999997
0.999995
0.999992
0.999987
0.99998
0.999968
0.999953
0.999901
0.999996
1
1
1
1
1
1
1
1
1
1
1
0.999999
0.999999
0.999997
0.999995
0.999991
0.999986
0.999981
0.999957
0.999997
1
1
1
1
1
1
1
1
0.999991
0.999983
0.999979
0.999979
0.999981
0.999984
0.999987
0.999988
0.999987
0.999986
0.999974
0.999999
1
1
1
1
1
1
1
0.999994
0.999793
0.999745
0.999747
0.999761
0.999787
0.99982
0.999855
0.999886
0.999906
0.999919
0.999916
0.999999
1
1
1
0.999499
0.998889
0.998911
0.998953
0.99901
0.99908
0.999164
0.999266
0.999383
0.999488
0.999568
0.999639
0.999999
1
1
1
0.99828
0.99782
0.997816
0.997821
0.99784
0.997877
0.997941
0.998044
0.998205
0.998403
0.998589
0.998832
0.999999
1
1
1
0.99694
0.996328
0.996339
0.996355
0.996377
0.996404
0.996441
0.996499
0.996601
0.996763
0.996968
0.997346
0.999999
1
1
1
0.995245
0.994672
0.994721
0.994768
0.994805
0.994838
0.994853
0.994855
0.99487
0.994922
0.995035
0.995354
0.999999
1
1
0.999997
0.999554
0.998529
0.997477
0.99614
0.993687
0.993469
0.993389
0.993343
0.993307
0.993284
0.993257
0.993211
0.99315
0.993063
0.993066
0.993183
0.999999
1
0.999991
0.999808
0.99902
0.99816
0.996981
0.99572
0.993952
0.992992
0.992519
0.992229
0.992018
0.991862
0.991737
0.991606
0.991457
0.991279
0.991116
0.990995
0.999999
1
0.999982
0.999759
0.999042
0.998161
0.997001
0.995786
0.994141
0.992883
0.992066
0.991499
0.99104
0.990645
0.990312
0.990019
0.98975
0.989469
0.989195
0.988784
0.999998
1
0.999978
0.999763
0.999083
0.998168
0.99702
0.995827
0.994286
0.992865
0.991786
0.990976
0.990273
0.989591
0.98897
0.988459
0.98804
0.987625
0.987235
0.986522
0.999997
0.999999
0.999979
0.999777
0.999135
0.998186
0.99704
0.995859
0.994377
0.992873
0.991569
0.990503
0.989542
0.988585
0.987675
0.986913
0.986293
0.98568
0.98513
0.984099
0.999995
0.999999
0.999981
0.999803
0.999198
0.99822
0.997061
0.995862
0.994448
0.992894
0.991392
0.990029
0.988767
0.987564
0.986417
0.985385
0.984485
0.983574
0.982805
0.981448
0.999992
0.999997
0.999984
0.999834
0.999273
0.998276
0.997088
0.995857
0.994446
0.992887
0.991257
0.989626
0.988042
0.986563
0.98517
0.983839
0.982583
0.981274
0.98022
0.978502
0.999987
0.999995
0.999987
0.999868
0.999365
0.998366
0.997133
0.995839
0.994419
0.992847
0.991132
0.989332
0.987489
0.985687
0.983949
0.982225
0.980525
0.978739
0.977316
0.975121
0.99998
0.999991
0.999988
0.999897
0.999468
0.9985
0.997213
0.995841
0.994368
0.992766
0.990995
0.989096
0.987077
0.984971
0.98282
0.98061
0.978396
0.976062
0.974146
0.971257
0.999968
0.999987
0.999989
0.999917
0.999558
0.99866
0.997338
0.995868
0.994289
0.992639
0.990821
0.988841
0.986665
0.984272
0.981694
0.978959
0.976169
0.97318
0.970595
0.966675
0.999953
0.999982
0.999988
0.99993
0.999629
0.998813
0.997496
0.995944
0.994286
0.992521
0.990634
0.988584
0.986296
0.983728
0.980884
0.977764
0.974445
0.970752
0.967386
0.962264
0.999902
0.999959
0.999978
0.999929
0.999695
0.99902
0.997796
0.996169
0.994354
0.992419
0.990339
0.988084
0.985576
0.982775
0.979645
0.97609
0.972074
0.967347
0.962799
0.955142
0.999982
0.999995
0.999997
0.999998
0.999999
0.999999
0.999999
0.999999
0.999999
0.999999
0.999998
0.999998
0.999996
0.999994
0.999991
0.999986
0.999978
0.999964
0.999949
0.999894
0.999995
1
1
1
1
1
1
1
1
1
1
1
0.999999
0.999998
0.999997
0.999994
0.99999
0.999985
0.999978
0.999953
0.999997
1
1
1
1
1
1
1
1
0.999992
0.999985
0.999981
0.999981
0.999983
0.999985
0.999987
0.999988
0.999987
0.999985
0.999971
0.999998
1
1
1
1
1
1
1
0.999994
0.999812
0.999767
0.999771
0.999784
0.999809
0.999839
0.999872
0.999899
0.999914
0.999923
0.999919
0.999999
1
1
1
0.999511
0.998979
0.999001
0.999042
0.999095
0.99916
0.99924
0.999338
0.999446
0.999538
0.99961
0.999671
0.999999
1
1
1
0.998327
0.998008
0.997999
0.998003
0.998018
0.998051
0.99811
0.998209
0.998363
0.998547
0.998716
0.998935
0.999999
1
1
1
0.997052
0.996647
0.996648
0.996653
0.996662
0.996677
0.996704
0.996755
0.996851
0.99701
0.997209
0.997558
0.999999
1
1
1
0.995418
0.995112
0.995149
0.995175
0.995193
0.995194
0.995189
0.995179
0.99519
0.995242
0.99536
0.995665
0.999999
1
1
0.999995
0.999582
0.998587
0.997532
0.99618
0.994011
0.993829
0.993788
0.993751
0.993716
0.993686
0.993648
0.993588
0.993508
0.993414
0.993424
0.993547
0.999999
1
0.999993
0.99984
0.999142
0.998324
0.997176
0.995925
0.994266
0.993329
0.992822
0.992562
0.992415
0.992294
0.992159
0.992002
0.991829
0.991634
0.991482
0.991378
0.999998
1
0.999986
0.999799
0.999156
0.998313
0.997188
0.995985
0.994429
0.993149
0.992316
0.991822
0.991429
0.991045
0.990691
0.990389
0.990124
0.989836
0.989555
0.989144
0.999998
1
0.999982
0.999797
0.999184
0.998316
0.997201
0.996023
0.994545
0.993151
0.992095
0.991316
0.990591
0.989887
0.989287
0.988814
0.988411
0.987972
0.987543
0.986813
0.999997
0.999999
0.999982
0.999807
0.999224
0.998328
0.997216
0.996052
0.994618
0.993168
0.991907
0.990802
0.989769
0.988817
0.987975
0.987242
0.986599
0.985936
0.98535
0.984324
0.999994
0.999999
0.999984
0.999828
0.999277
0.998355
0.997233
0.996052
0.994672
0.993181
0.991711
0.990296
0.988999
0.987825
0.986698
0.98562
0.984658
0.983709
0.982944
0.981619
0.999991
0.999997
0.999986
0.999855
0.999344
0.998405
0.997257
0.996046
0.994667
0.993162
0.991548
0.989913
0.988347
0.986858
0.98539
0.983948
0.982625
0.98132
0.980298
0.978593
0.999986
0.999994
0.999988
0.999885
0.999428
0.99849
0.997301
0.99603
0.994635
0.9931
0.991408
0.989644
0.987823
0.985955
0.984091
0.98225
0.980508
0.978747
0.977326
0.975072
0.999978
0.99999
0.999989
0.999909
0.999521
0.998619
0.997382
0.996036
0.994579
0.993001
0.991266
0.98941
0.987383
0.985197
0.982944
0.98066
0.978414
0.976046
0.974043
0.971029
0.999965
0.999985
0.999988
0.999924
0.9996
0.998771
0.997511
0.996072
0.994509
0.992866
0.99108
0.989124
0.986922
0.984484
0.981877
0.979114
0.976241
0.973092
0.970334
0.966296
0.999949
0.99998
0.999987
0.999933
0.999665
0.998913
0.997671
0.996161
0.994517
0.99276
0.990886
0.988826
0.986516
0.983946
0.981112
0.977951
0.974483
0.970567
0.967046
0.961887
0.999897
0.999956
0.999974
0.99993
0.999722
0.999104
0.997958
0.996392
0.994604
0.992681
0.990589
0.988303
0.985783
0.982993
0.979844
0.976188
0.972005
0.967119
0.962527
0.954861
0.999951
0.999981
0.999987
0.999991
0.999994
0.999994
0.999995
0.999995
0.999995
0.999995
0.999994
0.999992
0.999989
0.999985
0.999978
0.999969
0.999956
0.999936
0.999914
0.999848
0.999979
0.999995
0.999998
0.999999
0.999999
0.999999
0.999999
0.999999
0.999999
0.999999
0.999998
0.999997
0.999995
0.999992
0.999989
0.999983
0.999976
0.999966
0.999955
0.999918
0.999985
0.999997
0.999999
1
1
1
1
1
1
0.999995
0.999989
0.999986
0.999984
0.999984
0.999983
0.999982
0.999979
0.999973
0.999965
0.99994
0.999991
0.999999
1
1
1
1
1
1
0.999996
0.999871
0.999842
0.999839
0.999846
0.999862
0.999882
0.999902
0.999917
0.999922
0.999922
0.999908
0.999993
0.999999
1
1
0.999619
0.999246
0.999261
0.999289
0.999326
0.999374
0.999435
0.999509
0.999588
0.999651
0.999702
0.999724
0.999994
0.999999
1
1
0.998653
0.998474
0.998458
0.998459
0.998468
0.998493
0.998542
0.998624
0.998753
0.998898
0.999028
0.999177
0.999995
0.999999
1
1
0.997589
0.997356
0.997348
0.997348
0.997351
0.997359
0.997378
0.99742
0.997507
0.997655
0.997833
0.998103
0.999995
0.999999
1
1
0.996179
0.996053
0.996075
0.996098
0.996102
0.996095
0.996075
0.996061
0.996076
0.996137
0.996267
0.996531
0.999995
0.999999
1
0.999998
0.999672
0.998863
0.997939
0.996703
0.994882
0.994896
0.994857
0.994809
0.994764
0.994735
0.994698
0.99464
0.994553
0.99449
0.994521
0.994653
0.999995
0.999999
0.999995
0.999878
0.999338
0.998693
0.997743
0.996655
0.995248
0.994438
0.993894
0.993653
0.993568
0.993484
0.993352
0.993188
0.993002
0.992811
0.992709
0.992661
0.999994
0.999998
0.999989
0.999852
0.999352
0.998682
0.997746
0.996695
0.995387
0.994168
0.993349
0.992969
0.992662
0.992308
0.991954
0.991667
0.991414
0.991119
0.990855
0.990503
0.999993
0.999997
0.999986
0.99985
0.999378
0.998683
0.997751
0.996727
0.99546
0.994164
0.993199
0.9925
0.991786
0.991111
0.990578
0.990167
0.989787
0.989314
0.988846
0.988156
0.99999
0.999996
0.999985
0.999857
0.99941
0.998692
0.997758
0.996738
0.995497
0.994206
0.99306
0.991952
0.990873
0.99
0.989282
0.988608
0.987967
0.98726
0.986644
0.985674
0.999986
0.999994
0.999985
0.999872
0.999451
0.998713
0.997768
0.996733
0.99551
0.994216
0.992874
0.991455
0.990147
0.989026
0.987949
0.98688
0.985923
0.985005
0.984269
0.982981
0.99998
0.99999
0.999985
0.99989
0.999503
0.998754
0.997786
0.996717
0.995495
0.99418
0.992695
0.991124
0.989597
0.988081
0.98656
0.985073
0.983789
0.982617
0.981657
0.979912
0.999972
0.999985
0.999984
0.999909
0.999566
0.998821
0.997822
0.9967
0.995454
0.99409
0.992539
0.990892
0.98912
0.987183
0.985212
0.983311
0.981651
0.980049
0.978647
0.976276
0.999959
0.999979
0.999982
0.999923
0.999633
0.998927
0.997893
0.996709
0.995389
0.993957
0.992377
0.990658
0.988681
0.986452
0.984129
0.981824
0.979639
0.97732
0.975234
0.972107
0.999941
0.99997
0.999977
0.999929
0.999688
0.999045
0.998012
0.996755
0.995335
0.993804
0.992161
0.990325
0.988184
0.985798
0.983236
0.980477
0.977546
0.974251
0.971358
0.967355
0.99992
0.99996
0.99997
0.99993
0.999733
0.999155
0.998156
0.996855
0.995358
0.993725
0.991963
0.989979
0.987744
0.985284
0.982535
0.979351
0.975729
0.971624
0.968078
0.96308
0.999856
0.999926
0.999949
0.999919
0.999756
0.999285
0.998375
0.997053
0.995447
0.993674
0.991682
0.989444
0.987005
0.984305
0.981181
0.977446
0.973153
0.968261
0.96379
0.956165
0.999861
0.99993
0.999946
0.999958
0.999965
0.999967
0.999969
0.999971
0.999972
0.999971
0.999969
0.999965
0.999958
0.999948
0.999935
0.999916
0.999889
0.999852
0.999813
0.999706
0.999925
0.999966
0.999975
0.999981
0.999983
0.999984
0.999985
0.999985
0.999986
0.999984
0.999981
0.999977
0.999973
0.999966
0.999959
0.999947
0.999931
0.999908
0.999882
0.999812
0.999941
0.999973
0.999983
0.99999
0.999991
0.999991
0.999992
0.999992
0.999992
0.999986
0.99998
0.999975
0.999971
0.999967
0.999961
0.999954
0.999942
0.999925
0.999906
0.999852
0.999955
0.999979
0.99999
1
1
1
1
1
0.999999
0.999927
0.999907
0.999899
0.9999
0.999904
0.99991
0.999912
0.999911
0.999904
0.999892
0.999847
0.999963
0.999983
0.999991
1
0.999755
0.99954
0.999553
0.99957
0.999589
0.999614
0.999648
0.999686
0.999724
0.999751
0.999763
0.999745
0.999966
0.999983
0.999991
1
0.999085
0.999006
0.999005
0.999008
0.999015
0.999033
0.999066
0.99912
0.9992
0.999285
0.999365
0.999413
0.999968
0.999984
0.999992
1
0.998279
0.998183
0.998197
0.99821
0.99822
0.998228
0.998244
0.998275
0.998339
0.998447
0.998576
0.998718
0.99997
0.999985
0.999992
1
0.997143
0.997151
0.997211
0.997263
0.997291
0.997286
0.997268
0.997263
0.997278
0.997336
0.997446
0.997604
0.999973
0.999986
0.999992
0.999998
0.999757
0.999183
0.998524
0.997596
0.99618
0.996204
0.996231
0.996223
0.996205
0.996193
0.996173
0.996139
0.996076
0.996049
0.996083
0.996161
0.999972
0.999985
0.999987
0.999921
0.999564
0.999127
0.99846
0.997667
0.99663
0.995975
0.995505
0.995293
0.995225
0.995165
0.995081
0.994966
0.994811
0.994648
0.994592
0.994548
0.999971
0.999983
0.999981
0.999902
0.999576
0.999121
0.998468
0.997705
0.996765
0.995772
0.99507
0.994731
0.99447
0.994204
0.993951
0.993718
0.99347
0.99318
0.992976
0.992704
0.999967
0.99998
0.999976
0.999895
0.999592
0.999121
0.998471
0.997728
0.996799
0.99575
0.994918
0.994318
0.993747
0.993237
0.992791
0.992396
0.992015
0.991569
0.991184
0.990625
0.999962
0.999976
0.999973
0.999898
0.999611
0.999125
0.99847
0.997724
0.996791
0.995766
0.994794
0.993867
0.992987
0.992231
0.991532
0.990903
0.990356
0.989773
0.989256
0.988383
0.999952
0.99997
0.99997
0.999904
0.999636
0.999138
0.99847
0.997707
0.996775
0.995762
0.994669
0.993499
0.992326
0.9912
0.990148
0.98925
0.988521
0.987802
0.987126
0.985844
0.999939
0.999963
0.999966
0.99991
0.999667
0.999164
0.998476
0.997679
0.996743
0.995722
0.99454
0.993209
0.991753
0.990228
0.988841
0.987605
0.98657
0.985568
0.984614
0.98283
0.999921
0.999953
0.999959
0.999915
0.999701
0.999207
0.998496
0.997649
0.996692
0.995631
0.994384
0.992951
0.991288
0.989472
0.987704
0.986008
0.984504
0.982968
0.981546
0.979215
0.999896
0.999938
0.999949
0.999915
0.999736
0.999272
0.998542
0.997653
0.996623
0.995484
0.994181
0.992679
0.99091
0.988933
0.986833
0.984639
0.982469
0.980106
0.978036
0.97513
0.999861
0.999917
0.999933
0.99991
0.999761
0.999341
0.998624
0.997686
0.996564
0.995317
0.993928
0.992337
0.9905
0.988432
0.986058
0.983315
0.980302
0.976942
0.974186
0.970567
0.999824
0.999893
0.999916
0.999899
0.999773
0.999409
0.998724
0.997761
0.996579
0.99524
0.99374
0.992027
0.990112
0.987935
0.985326
0.982148
0.978497
0.974458
0.971133
0.966443
0.999722
0.999828
0.999868
0.99986
0.999759
0.999451
0.998831
0.997862
0.996602
0.995151
0.993464
0.991526
0.98937
0.986874
0.983864
0.980228
0.976088
0.971426
0.967122
0.959424
0.999781
0.999881
0.999904
0.99992
0.999929
0.999933
0.999936
0.999939
0.999942
0.999941