/*--------------------------------*- C++ -*----------------------------------*\
  =========                 |
  \\      /  F ield         | OpenFOAM: The Open Source CFD Toolbox
   \\    /   O peration     | Website:  https://openfoam.org
    \\  /    A nd           | Version:  9
     \\/     M anipulation  |
\*---------------------------------------------------------------------------*/
FoamFile
{
    format      ascii;
    class       volScalarField;
    location    "0.005";
    object      p;
}
// * * * * * * * * * * * * * * * * * * * * * * * * * * * * * * * * * * * * * //

dimensions      [1 -1 -2 0 0 0 0];

internalField   nonuniform List<scalar> 
9720
(
6.49236e+06
6.68554e+06
6.85337e+06
5.92609e+06
5.34338e+06
5.02604e+06
4.60017e+06
3.91968e+06
3.13193e+06
2.53066e+06
2.07079e+06
1.79694e+06
1.67202e+06
1.59593e+06
1.57313e+06
1.58479e+06
1.60015e+06
1.60105e+06
1.59544e+06
1.55969e+06
6.66511e+06
6.82853e+06
6.97021e+06
5.03596e+06
4.66376e+06
4.90864e+06
4.64284e+06
3.76611e+06
2.54928e+06
1.72446e+06
1.27546e+06
1.14217e+06
1.17012e+06
1.22945e+06
1.27423e+06
1.31066e+06
1.3426e+06
1.34603e+06
1.34252e+06
1.31533e+06
6.78196e+06
6.9455e+06
5.58428e+06
3.90853e+06
4.23666e+06
4.90672e+06
4.8136e+06
3.75233e+06
2.1064e+06
1.18674e+06
872601
895216
992368
1.16097e+06
1.30013e+06
1.38335e+06
1.44948e+06
1.459e+06
1.44956e+06
1.39931e+06
5.89782e+06
5.01175e+06
3.90619e+06
3.05427e+06
3.46323e+06
5.04066e+06
5.23693e+06
4.41352e+06
2.1113e+06
569438
604271
680933
803479
996899
1.24292e+06
1.47808e+06
1.58973e+06
1.58558e+06
1.56212e+06
1.49084e+06
5.29139e+06
4.56696e+06
4.09163e+06
3.37857e+06
430734
550604
610436
678923
765980
895688
1.12668e+06
1.42538e+06
1.66675e+06
1.74427e+06
1.73288e+06
1.66196e+06
4.91711e+06
4.74803e+06
4.72978e+06
4.89432e+06
738421
789710
793106
803155
828244
881568
983934
1.18598e+06
1.49798e+06
1.71102e+06
1.7426e+06
1.70224e+06
4.48603e+06
4.47684e+06
4.6425e+06
5.08022e+06
919489
867568
849015
825105
820963
832790
872893
966399
1.16595e+06
1.43794e+06
1.63393e+06
1.70074e+06
3.81848e+06
3.63669e+06
3.60606e+06
4.25733e+06
782681
583631
615976
641162
662258
685864
723634
785383
900801
1.10626e+06
1.35574e+06
1.58603e+06
3.0483e+06
2.45447e+06
2.00321e+06
1.90227e+06
401956
727079
888979
744356
105505
161207
249817
332226
402576
457830
500326
550982
626346
755439
944392
1.23664e+06
2.46254e+06
1.66578e+06
1.1474e+06
563645
548290
773236
832638
569186
174456
79900
99323.4
151571
219793
284153
339625
390947
453133
546282
680326
950968
2.01602e+06
1.2362e+06
859236
603949
612220
776500
816658
601606
266699
105270
82406.9
90989.9
119299
165505
221398
279446
335613
406029
498539
716251
1.75715e+06
1.12106e+06
880785
683856
682003
787749
800742
627266
349337
164520
94668.3
86288
89833.6
108796
149372
203057
255566
307090
368756
538632
1.63886e+06
1.1509e+06
973605
804082
767643
814316
803588
650581
416400
236923
130205
91637.3
91880.1
99693.4
120786
155376
195087
236464
282203
416542
1.565e+06
1.2113e+06
1.13758e+06
986849
892755
869513
820598
676962
469330
302293
180803
115374
101566
104765
113731
128830
155003
192781
231555
338419
1.53983e+06
1.25642e+06
1.28235e+06
1.21873e+06
1.10966e+06
972840
866893
718210
511203
357460
238046
161178
127668
116427
117646
126856
144502
174228
207039
292959
1.5498e+06
1.29002e+06
1.36286e+06
1.43795e+06
1.39236e+06
1.17256e+06
964450
783171
562273
408490
296970
218267
167111
136754
129641
133571
147423
171082
196243
261769
1.56254e+06
1.31699e+06
1.42354e+06
1.55159e+06
1.62534e+06
1.47336e+06
1.16364e+06
901538
639638
470929
354078
272417
209742
166422
150124
151282
158590
174983
193572
241726
1.56231e+06
1.31836e+06
1.4302e+06
1.55172e+06
1.7106e+06
1.67836e+06
1.42133e+06
1.10551e+06
771137
565943
426272
326153
253312
205095
183091
178265
180299
186864
197413
232415
1.55583e+06
1.31392e+06
1.42044e+06
1.53254e+06
1.70196e+06
1.71232e+06
1.60651e+06
1.34279e+06
955530
700162
520457
390236
301473
246148
219472
207669
201815
202034
207509
235481
1.52137e+06
1.28702e+06
1.37182e+06
1.46693e+06
1.63536e+06
1.67593e+06
1.67883e+06
1.56802e+06
1.23905e+06
965698
738567
563955
441019
360636
313849
281623
257690
242612
243149
257946
6.17196e+06
6.35192e+06
6.47598e+06
5.47106e+06
4.92017e+06
4.67974e+06
4.30496e+06
3.67471e+06
2.92221e+06
2.35243e+06
1.91301e+06
1.64943e+06
1.53394e+06
1.46426e+06
1.43884e+06
1.45125e+06
1.4713e+06
1.47466e+06
1.47024e+06
1.43658e+06
6.34755e+06
6.47544e+06
6.55487e+06
4.5883e+06
4.3091e+06
4.58729e+06
4.38661e+06
3.56329e+06
2.39559e+06
1.60798e+06
1.17656e+06
1.03811e+06
1.06207e+06
1.11758e+06
1.16151e+06
1.19745e+06
1.23464e+06
1.24306e+06
1.2408e+06
1.21636e+06
6.43922e+06
6.59618e+06
4.866e+06
3.46034e+06
4.01152e+06
4.70748e+06
4.5908e+06
3.57242e+06
1.98318e+06
1.10724e+06
801083
816097
892286
1.03422e+06
1.17341e+06
1.25808e+06
1.3336e+06
1.35441e+06
1.34957e+06
1.30812e+06
5.49842e+06
4.59514e+06
3.45682e+06
2.74537e+06
3.38341e+06
4.81607e+06
5.00808e+06
4.19462e+06
1.99986e+06
524078
555390
621179
725582
887737
1.10216e+06
1.32178e+06
1.46182e+06
1.47558e+06
1.46034e+06
1.40248e+06
4.89241e+06
4.21104e+06
3.82316e+06
3.08776e+06
393533
502923
555351
615867
691795
801189
989699
1.2611e+06
1.49585e+06
1.6202e+06
1.62174e+06
1.573e+06
4.56946e+06
4.43496e+06
4.51309e+06
4.64593e+06
676737
719850
717726
722334
739652
781194
862680
1.02547e+06
1.30439e+06
1.53403e+06
1.62309e+06
1.60145e+06
4.18568e+06
4.22519e+06
4.42211e+06
4.84252e+06
840769
789952
767836
743968
731822
739476
768462
838522
997412
1.24505e+06
1.44849e+06
1.5631e+06
3.56304e+06
3.43335e+06
3.43726e+06
4.04859e+06
719985
531638
554874
573010
588316
605442
635034
683841
772024
940313
1.16146e+06
1.40999e+06
2.82911e+06
2.29891e+06
1.89408e+06
1.86644e+06
380572
678297
823245
684123
98693.5
147697
224862
292376
350531
399938
438322
479902
538700
637355
790883
1.06884e+06
2.27387e+06
1.53919e+06
1.06298e+06
521381
506015
716966
766835
517605
157878
67833.5
85418.5
130148
187052
243149
293656
337481
386885
459945
566689
809788
1.84804e+06
1.11912e+06
771267
552668
558002
712206
747571
542937
237984
89926.3
66981.5
74766.4
100019
140673
189480
238200
283024
339982
416105
606363
1.60519e+06
1.00651e+06
785034
614948
616088
715885
724786
560233
308167
140759
76855.3
71632.9
74792.7
90942.4
124083
167472
212150
258427
311564
456122
1.50163e+06
1.03781e+06
862952
713175
686525
731518
717943
576141
365804
203095
107601
75903.8
75616.8
80472.6
95125.9
126339
165305
202791
240558
351370
1.43576e+06
1.10067e+06
1.01219e+06
869701
789671
772085
727033
594657
412705
261728
153572
95789.9
81742
83569.6
92517.2
108440
133158
164815
196143
283997
1.40783e+06
1.14547e+06
1.16157e+06
1.08497e+06
972142
853256
758588
626296
448775
311843
204764
134161
100885
94294.5
97557.6
107004
122290
145857
171262
244904
1.41758e+06
1.17827e+06
1.24208e+06
1.29444e+06
1.24041e+06
1.01874e+06
832561
677945
489440
354917
255263
181670
136557
115196
109376
112819
124220
142242
162682
223186
1.43319e+06
1.2091e+06
1.30864e+06
1.43284e+06
1.47343e+06
1.2946e+06
996523
771318
549757
404787
302195
229693
179175
144262
127570
127806
132658
145099
164032
212369
1.4342e+06
1.21345e+06
1.32402e+06
1.44722e+06
1.59468e+06
1.51939e+06
1.23947e+06
944527
652967
480456
362089
279653
220849
178191
155231
148671
149720
157409
171020
203811
1.42844e+06
1.2098e+06
1.31758e+06
1.43195e+06
1.59365e+06
1.60086e+06
1.43587e+06
1.16034e+06
808434
590581
441315
335717
261980
212512
184738
172825
171889
175471
181822
204752
1.3957e+06
1.18479e+06
1.27579e+06
1.37399e+06
1.54117e+06
1.5785e+06
1.55069e+06
1.40493e+06
1.08244e+06
833275
635008
486006
379707
308199
265929
240829
227030
215157
211215
221013
6.0546e+06
6.26556e+06
6.3663e+06
5.24619e+06
4.66969e+06
4.49566e+06
4.16185e+06
3.54828e+06
2.82239e+06
2.27016e+06
1.83855e+06
1.57678e+06
1.4684e+06
1.40953e+06
1.38613e+06
1.39746e+06
1.41785e+06
1.42314e+06
1.42008e+06
1.38944e+06
6.26646e+06
6.39757e+06
6.37503e+06
4.32571e+06
4.09878e+06
4.41189e+06
4.24754e+06
3.44641e+06
2.31744e+06
1.56075e+06
1.14091e+06
991161
1.01298e+06
1.06806e+06
1.11883e+06
1.15738e+06
1.19741e+06
1.20961e+06
1.2078e+06
1.18412e+06
6.30588e+06
6.44382e+06
4.29096e+06
3.19239e+06
3.84015e+06
4.55306e+06
4.44303e+06
3.45324e+06
1.90543e+06
1.08114e+06
788898
796208
851393
972824
1.11903e+06
1.2121e+06
1.29031e+06
1.32015e+06
1.3178e+06
1.28156e+06
5.20664e+06
4.25474e+06
3.11386e+06
2.52749e+06
3.2488e+06
4.63585e+06
4.82825e+06
4.02888e+06
1.86349e+06
489663
528993
600770
700402
849460
1.05245e+06
1.26562e+06
1.42559e+06
1.4535e+06
1.44066e+06
1.3849e+06
4.60509e+06
3.96559e+06
3.6677e+06
2.95408e+06
342191
459604
507028
569060
647889
754419
924715
1.18754e+06
1.42505e+06
1.58261e+06
1.60205e+06
1.55938e+06
4.38141e+06
4.26848e+06
4.38552e+06
4.48151e+06
625450
664260
661466
665732
681027
717657
788941
931396
1.19538e+06
1.46227e+06
1.60487e+06
1.5912e+06
4.05172e+06
4.1161e+06
4.3133e+06
4.67937e+06
769886
724753
704881
684743
676053
682581
706355
763931
894518
1.13305e+06
1.36198e+06
1.51487e+06
3.45033e+06
3.34488e+06
3.36521e+06
3.91261e+06
657667
489203
509654
525782
542521
558279
583012
623556
694588
833061
1.04005e+06
1.31907e+06
2.73286e+06
2.23702e+06
1.85174e+06
1.82511e+06
351189
631989
760990
627346
89454.9
139206
211238
272617
322864
368201
406326
442685
491467
569244
697089
970860
2.18831e+06
1.48381e+06
1.02056e+06
472099
459187
666413
709382
468118
138210
58783.4
75104.3
116822
170692
223461
270365
312604
354588
414088
499369
721892
1.76881e+06
1.07163e+06
739211
506413
503193
661518
691161
492827
210144
75924.4
53525.6
61968.9
87608.9
125909
171582
217159
260138
306920
367980
536273
1.52498e+06
946272
749405
573710
560725
665353
672313
509331
274556
120943
63100.3
59773.4
63246.2
78530
108189
149266
193095
235470
279248
403338
1.4262e+06
975887
810962
668515
631830
679664
666047
526649
328520
179789
92884.8
63942.6
64519.7
69232.9
83063.5
111241
149216
186562
218151
311382
1.36957e+06
1.03895e+06
941080
809679
728558
714692
672995
544714
376067
237569
136333
82568.8
70331.6
72327.9
80146.7
95067.6
118836
148112
175959
252307
1.3449e+06
1.0948e+06
1.10405e+06
1.01633e+06
887872
782364
696895
572973
414818
286671
185513
117641
88182.4
81515.2
84668.3
93213.8
107273
129727
154187
219236
1.35617e+06
1.13513e+06
1.20014e+06
1.23164e+06
1.15326e+06
920732
755612
617977
451110
328712
233628
163984
121787
100758
94961.2
98207
109224
129047
149037
203208
1.37497e+06
1.17178e+06
1.27391e+06
1.40338e+06
1.40422e+06
1.18098e+06
887816
693436
500590
370971
278654
212046
164261
129140
111719
112252
118600
132823
150995
196560
1.37856e+06
1.17954e+06
1.29733e+06
1.43679e+06
1.56668e+06
1.45058e+06
1.12533e+06
836025
581018
432335
328231
257242
204395
161072
137793
134348
136433
144030
157869
189559
1.37523e+06
1.17599e+06
1.29148e+06
1.42131e+06
1.57783e+06
1.58352e+06
1.34869e+06
1.04185e+06
712479
521768
393210
302965
238132
190802
165077
156443
157281
161418
168320
190141
1.34715e+06
1.15159e+06
1.25161e+06
1.35999e+06
1.5311e+06
1.5667e+06
1.50203e+06
1.31746e+06
987248
748729
567002
432711
337042
272898
236182
216520
208259
199130
195251
204233
5.99926e+06
6.21505e+06
6.26545e+06
5.04765e+06
4.48219e+06
4.36574e+06
4.0602e+06
3.45828e+06
2.73483e+06
2.20426e+06
1.78589e+06
1.52867e+06
1.42799e+06
1.37755e+06
1.3592e+06
1.37247e+06
1.39348e+06
1.39765e+06
1.39308e+06
1.35935e+06
6.2288e+06
6.36548e+06
6.08793e+06
4.09648e+06
3.94154e+06
4.30188e+06
4.17076e+06
3.37542e+06
2.24249e+06
1.49745e+06
1.09535e+06
958410
983831
1.04236e+06
1.10126e+06
1.14665e+06
1.18828e+06
1.19976e+06
1.1965e+06
1.1683e+06
6.22732e+06
6.2901e+06
3.90267e+06
3.00905e+06
3.71069e+06
4.45994e+06
4.37024e+06
3.39223e+06
1.83584e+06
1.02131e+06
757898
769097
826267
949669
1.10951e+06
1.21143e+06
1.28674e+06
1.31651e+06
1.31334e+06
1.27237e+06
5.02492e+06
4.0312e+06
2.93745e+06
2.40527e+06
3.05206e+06
4.51238e+06
4.70283e+06
3.91548e+06
1.73236e+06
450078
492110
568236
670207
823763
1.04145e+06
1.26099e+06
1.43031e+06
1.45817e+06
1.44317e+06
1.3802e+06
4.42304e+06
3.83232e+06
3.61035e+06
3.01881e+06
329361
433102
476462
536275
612907
717267
880276
1.14333e+06
1.39935e+06
1.57543e+06
1.6087e+06
1.56465e+06
4.27289e+06
4.18466e+06
4.3357e+06
4.39104e+06
588966
637049
635825
640182
654960
688480
750495
870096
1.10623e+06
1.41353e+06
1.60976e+06
1.60182e+06
3.97531e+06
4.07016e+06
4.26843e+06
4.58079e+06
720451
690179
673652
657293
648303
653563
672335
718430
820019
1.02587e+06
1.30346e+06
1.49446e+06
3.38851e+06
3.30344e+06
3.32938e+06
3.83058e+06
612868
456006
479060
496661
514714
531350
553175
587567
644478
751497
936320
1.24895e+06
2.67745e+06
2.20355e+06
1.81695e+06
1.73943e+06
345520
597267
716818
587464
79458.3
124609
194038
254478
305281
350402
390765
424886
465412
526142
627687
890968
2.14644e+06
1.46067e+06
996847
444418
434951
635050
676386
445248
130110
52353.9
66416.5
105764
159141
213993
261794
304817
342777
390639
458208
657007
1.72931e+06
1.05773e+06
724910
480656
474791
631610
661458
472099
200287
68673.1
44446.3
52254.7
79004.8
118919
163329
208658
252740
295767
344743
488827
1.47211e+06
911458
732529
549808
529194
635339
646560
489665
261279
111685
54046.9
51285.9
54794.4
70152.4
99913.3
139836
185879
230482
265700
369056
1.36892e+06
933714
778901
641699
598417
648103
638936
506667
312440
168733
84690.1
55476.7
56139.3
61475.9
76160.4
103133
140849
180651
210138
289297
1.31676e+06
988607
888620
774089
692309
679126
644267
523872
357631
225735
127772
73300.9
62160.9
64589.7
71925.7
85287.5
108819
140696
167774
234709
1.29405e+06
1.04568e+06
1.04232e+06
967554
837589
737734
662563
547263
397466
273447
173506
106059
79043.7
72623.9
75108.5
82486.1
96590.5
119415
144141
203862
1.30432e+06
1.08823e+06
1.14763e+06
1.17797e+06
1.08159e+06
850453
708701
583970
430918
313948
218439
148895
109535
88997.9
83336.7
86564.9
97828
118435
139858
190053
1.32386e+06
1.12855e+06
1.22493e+06
1.3575e+06
1.33708e+06
1.07701e+06
809772
643395
471090
350269
261601
195920
150053
115607
98882.7
99304.7
106035
122622
142066
185126
1.33032e+06
1.14293e+06
1.26057e+06
1.40413e+06
1.5222e+06
1.37861e+06
1.01394e+06
752878
532864
398218
304102
240066
190361
148371
123586
120767
124242
133815
148490
179689
1.32801e+06
1.14089e+06
1.25879e+06
1.39289e+06
1.56302e+06
1.5694e+06
1.28108e+06
937501
637027
468726
355452
276002
219363
174584
147903
142567
144782
150541
158791
179544
1.30199e+06
1.11828e+06
1.22371e+06
1.33565e+06
1.52164e+06
1.56072e+06
1.46687e+06
1.24432e+06
902436
673275
505661
384248
301602
243205
209617
195297
191396
186701
182780
190196
5.94533e+06
6.15914e+06
6.17304e+06
4.90251e+06
4.36821e+06
4.2908e+06
3.99699e+06
3.40066e+06
2.67159e+06
2.14567e+06
1.73223e+06
1.48141e+06
1.38725e+06
1.3445e+06
1.33239e+06
1.34928e+06
1.37594e+06
1.3842e+06
1.38137e+06
1.35032e+06
6.18983e+06
6.34533e+06
5.91948e+06
3.96094e+06
3.86295e+06
4.24574e+06
4.12586e+06
3.33351e+06
2.18824e+06
1.44593e+06
1.05274e+06
920680
947981
1.01106e+06
1.07485e+06
1.12792e+06
1.17719e+06
1.1942e+06
1.19225e+06
1.16562e+06
6.14621e+06
6.13467e+06
3.70338e+06
2.91499e+06
3.67114e+06
4.41278e+06
4.32855e+06
3.36364e+06
1.78819e+06
972304
725690
738916
794662
916787
1.08226e+06
1.19497e+06
1.27359e+06
1.30696e+06
1.30471e+06
1.26915e+06
4.90706e+06
3.91346e+06
2.85796e+06
2.33257e+06
3.03513e+06
4.44233e+06
4.64096e+06
3.87727e+06
1.71326e+06
432566
473968
550163
647907
793289
1.0098e+06
1.23697e+06
1.4248e+06
1.46093e+06
1.44668e+06
1.38346e+06
4.34121e+06
3.77351e+06
3.55589e+06
2.92873e+06
335674
431483
473481
529118
599283
696412
848252
1.1053e+06
1.37368e+06
1.56437e+06
1.6147e+06
1.57295e+06
4.21366e+06
4.13529e+06
4.3097e+06
4.35597e+06
581890
643373
641252
644280
654545
681367
734516
838152
1.05058e+06
1.36639e+06
1.60187e+06
1.60926e+06
3.93349e+06
4.04252e+06
4.24881e+06
4.54903e+06
712775
696204
680967
665439
648895
650138
661542
697649
782502
958751
1.24706e+06
1.47444e+06
3.34913e+06
3.27442e+06
3.31005e+06
3.80517e+06
601798
455534
482012
499312
513873
528173
546423
575760
624022
713254
872325
1.19186e+06
2.64109e+06
2.17481e+06
1.78557e+06
1.69715e+06
329838
572157
696406
578151
75978.5
121489
191728
253828
304576
347428
385781
418082
454937
507737
592325
837413
2.11627e+06
1.43952e+06
978605
428704
420242
622639
672316
447243
131127
51268.3
64439
102565
157336
213074
259022
301471
338179
379692
436874
615621
1.70496e+06
1.04412e+06
716141
466191
458453
618505
657745
473123
202913
68770.5
40299.9
48624.2
77071.3
117867
161353
205348
248058
289101
331115
459746
1.4486e+06
897182
724615
536086
510939
621264
643196
488605
263797
111451
50654.1
47645.4
51546.5
66754.7
96717
136811
182762
226279
257910
350779
1.34537e+06
917423
769672
628677
578348
631837
629377
501601
312043
167103
81769.8
51871.2
52256.5
57788.3
73993.3
100554
136907
176877
205547
277720
1.29477e+06
968870
872671
762503
671698
659066
631850
515791
352724
221358
124105
68668.4
58143.4
61062.7
68462
80797.7
103124
135347
162618
224395
1.27238e+06
1.02532e+06
1.02038e+06
955939
815286
712630
645095
534761
389023
266612
167680
100494
75439.4
68779.6
70712.3
76810.5
90017.5
114144
139516
195409
1.28168e+06
1.06865e+06
1.12445e+06
1.16167e+06
1.05225e+06
814771
683547
565304
419523
306495
210461
141095
103676
82914.3
77152.1
79847.7
91083.6
115170
138266
183676
1.3004e+06
1.10868e+06
1.19743e+06
1.33537e+06
1.30098e+06
1.01959e+06
770132
615810
455554
340826
251900
186335
141216
107172
90887.7
91352.5
100560
121859
141628
178810
1.30731e+06
1.12388e+06
1.23371e+06
1.38452e+06
1.48949e+06
1.32136e+06
944580
707398
508911
382437
291547
228857
181358
139815
115085
115540
122135
134508
147213
174892
1.30526e+06
1.12238e+06
1.23352e+06
1.37575e+06
1.54642e+06
1.54437e+06
1.22378e+06
870482
596029
441842
335266
262173
209574
165935
140153
139009
142551
147961
155202
175061
1.27932e+06
1.10063e+06
1.2036e+06
1.32284e+06
1.50951e+06
1.55005e+06
1.43302e+06
1.18224e+06
843206
626105
469862
360282
284294
228396
197731
186365
182022
178907
177488
184932
5.94287e+06
6.15981e+06
6.16975e+06
4.8882e+06
4.35638e+06
4.29348e+06
3.99973e+06
3.40273e+06
2.67145e+06
2.14325e+06
1.72806e+06
1.47681e+06
1.38375e+06
1.34255e+06
1.3315e+06
1.34923e+06
1.37877e+06
1.38911e+06
1.38665e+06
1.35629e+06
6.18663e+06
6.3463e+06
5.92836e+06
3.94626e+06
3.85972e+06
4.25599e+06
4.13371e+06
3.33607e+06
2.19114e+06
1.44614e+06
1.05161e+06
915662
942067
1.00546e+06
1.07254e+06
1.12732e+06
1.17799e+06
1.19778e+06
1.19628e+06
1.17052e+06
6.14111e+06
6.10413e+06
3.68195e+06
2.89835e+06
3.68792e+06
4.42707e+06
4.33877e+06
3.36425e+06
1.78963e+06
974291
725635
737431
788133
905555
1.0742e+06
1.19456e+06
1.27661e+06
1.31239e+06
1.31051e+06
1.27445e+06
4.90582e+06
3.90888e+06
2.85703e+06
2.30066e+06
3.10864e+06
4.41441e+06
4.61731e+06
3.85349e+06
1.68227e+06
431243
472716
548261
643831
785297
998244
1.22868e+06
1.42111e+06
1.46474e+06
1.45176e+06
1.38965e+06
4.34012e+06
3.76103e+06
3.53056e+06
2.8112e+06
316209
424409
465823
521623
591202
687052
836768
1.09231e+06
1.36237e+06
1.56078e+06
1.61796e+06
1.57758e+06
4.21129e+06
4.12714e+06
4.30277e+06
4.35114e+06
587536
633999
631561
634705
645059
671699
724800
828131
1.04059e+06
1.35875e+06
1.60063e+06
1.61195e+06
3.93162e+06
4.04012e+06
4.24749e+06
4.54552e+06
723835
688239
672932
657817
641429
642568
653872
690270
775465
951849
1.24073e+06
1.47342e+06
3.3438e+06
3.26808e+06
3.30542e+06
3.7953e+06
609277
454161
479377
496550
510870
525032
542939
571799
619571
708219
867300
1.18891e+06
2.64028e+06
2.17466e+06
1.78782e+06
1.72595e+06
316995
572658
701007
584037
77848.9
124365
195253
256998
306819
348571
386113
417512
453422
505334
589237
834317
2.11982e+06
1.44276e+06
981487
427756
421515
627754
673523
443494
128188
51442.9
65527.4
104746
158534
212573
259030
300671
336081
376680
433940
612709
1.7096e+06
1.04624e+06
719856
466891
461821
625069
660553
469939
199364
68017.5
39969.9
48172.3
76323.4
117536
160980
204355
245814
285652
327995
457345
1.45548e+06
903006
729104
539541
516355
628229
647297
487608
260899
109905
49827.3
47044.5
51021.5
66691.9
96620.2
135667
179529
222085
254748
348170
1.35364e+06
924467
776107
634922
585968
639184
635313
503758
310735
165517
80383.3
51531
52204.6
57802.8
73289.4
99348.3
134705
174560
203183
275039
1.30287e+06
976872
881959
774327
681983
667051
638098
519797
353644
221065
123643
69055.1
58214.1
60832
68051.2
80150.2
101877
133933
160805
221461
1.2809e+06
1.03292e+06
1.02945e+06
972469
829531
721476
652013
539528
391570
267918
169034
101190
75183
68503.3
70470.1
76422.2
89489.4
113194
137829
192815
1.28943e+06
1.0761e+06
1.13312e+06
1.17878e+06
1.07258e+06
825498
691720
570939
423275
308775
213039
142523
104226
83072.3
77002.1
79578.4
90677
114177
137044
181822
1.30622e+06
1.11476e+06
1.20708e+06
1.347e+06
1.32119e+06
1.03454e+06
780640
622630
460227
344288
254739
189214
143159
108041
91051.9
91417.7
100348
121216
140775
177590
1.31076e+06
1.12689e+06
1.23953e+06
1.38789e+06
1.50463e+06
1.3364e+06
957439
716145
514689
386789
295051
233051
184211
141677
115748
115747
122152
134251
146847
174596
1.3073e+06
1.12449e+06
1.23764e+06
1.37782e+06
1.55171e+06
1.55864e+06
1.23279e+06
877313
602781
446828
339565
265907
213147
168357
141343
139663
142979
148188
155353
174895
1.27804e+06
1.10018e+06
1.20389e+06
1.3223e+06
1.51154e+06
1.55869e+06
1.44435e+06
1.18814e+06
850095
631099
474867
364422
288263
231590
200246
188381
183631
180120
178124
185123
5.99025e+06
6.20977e+06
6.26017e+06
5.01823e+06
4.46159e+06
4.37457e+06
4.06677e+06
3.46238e+06
2.72865e+06
2.19635e+06
1.7776e+06
1.52033e+06
1.42128e+06
1.37305e+06
1.35754e+06
1.37372e+06
1.40075e+06
1.40817e+06
1.40473e+06
1.3733e+06
6.23003e+06
6.36693e+06
6.08909e+06
4.06815e+06
3.9462e+06
4.32689e+06
4.18981e+06
3.38478e+06
2.23468e+06
1.4854e+06
1.08686e+06
948054
973020
1.03191e+06
1.09329e+06
1.14331e+06
1.19303e+06
1.21016e+06
1.20744e+06
1.18076e+06
6.22015e+06
6.26365e+06
3.87091e+06
2.98442e+06
3.75953e+06
4.49491e+06
4.39643e+06
3.40525e+06
1.8226e+06
1.00407e+06
745813
757538
812521
932214
1.09385e+06
1.20337e+06
1.2839e+06
1.32072e+06
1.32007e+06
1.28452e+06
5.02231e+06
4.01186e+06
2.91492e+06
2.34032e+06
3.1756e+06
4.48666e+06
4.68346e+06
3.90388e+06
1.70776e+06
444040
487175
563322
662700
809793
1.02234e+06
1.24782e+06
1.42606e+06
1.46381e+06
1.45093e+06
1.39087e+06
4.41328e+06
3.79386e+06
3.54015e+06
2.83432e+06
316721
425562
470493
530134
603716
703439
859649
1.1185e+06
1.37974e+06
1.5672e+06
1.61419e+06
1.57328e+06
4.25405e+06
4.15248e+06
4.31178e+06
4.37057e+06
564699
623640
623608
628485
642954
674864
734475
849640
1.08209e+06
1.39533e+06
1.60753e+06
1.60451e+06
3.96181e+06
4.04904e+06
4.25398e+06
4.56514e+06
693603
675887
661464
647095
637685
642097
659272
703433
801953
1.00312e+06
1.28616e+06
1.4886e+06
3.37018e+06
3.27875e+06
3.30725e+06
3.81211e+06
589205
451925
475051
492910
510814
527779
549085
582047
636720
739522
920137
1.23799e+06
2.66541e+06
2.18122e+06
1.78733e+06
1.68933e+06
317740
577473
700114
578955
76265.6
127890
198580
258911
308120
351416
390190
423243
462111
520310
618427
881142
2.14537e+06
1.45509e+06
990685
444534
433131
634864
680334
446382
127175
53089.7
68439
109269
162997
217622
262930
302899
339284
385067
450730
648931
1.73424e+06
1.05888e+06
730490
484520
476373
634060
665327
471535
197494
68886.8
44354.2
53150
81738.7
121982
165354
208780
250400
291178
338758
481330
1.4851e+06
925130
740644
558109
533917
638488
650347
489537
259506
110727
53703.9
50990.6
54779.2
71136.1
101353
140763
185749
227514
260607
362064
1.38566e+06
949831
794205
656249
606712
652500
641823
507614
311100
166834
83771.2
54906.5
55825.1
61443.6
76420.3
103669
140319
177890
206293
283860
1.33355e+06
1.00799e+06
911711
801880
706167
684788
646771
525142
357218
224660
126670
72592
61665.9
64396.5
71895.9
84731.4
107035
137941
164056
229421
1.31044e+06
1.06293e+06
1.06607e+06
1.00859e+06
863220
745236
664861
548247
397843
273650
173550
105621
78241.4
72370.1
74705.2
81525.9
95283.6
117239
140645
198983
1.31802e+06
1.10264e+06
1.16379e+06
1.21796e+06
1.11966e+06
862625
711630
584581
432139
316116
220430
149089
109044
88125.9
82425.1
85647.5
96865.8
117139
138262
186692
1.33294e+06
1.13874e+06
1.23634e+06
1.38192e+06
1.36719e+06
1.09633e+06
814765
644257
473194
353735
265133
198201
150780
115504
98563
99000.8
105653
122004
141141
183292
1.33544e+06
1.14701e+06
1.26227e+06
1.40883e+06
1.54028e+06
1.40057e+06
1.02154e+06
755037
535400
402197
308546
244337
193519
151105
124925
121230
124569
133894
148466
179596
1.33061e+06
1.14328e+06
1.25783e+06
1.39429e+06
1.56859e+06
1.58342e+06
1.29499e+06
941264
640305
472766
360431
281290
224727
178850
150472
143960
145735
151046
159332
179487
1.29868e+06
1.11585e+06
1.21827e+06
1.33242e+06
1.52255e+06
1.5693e+06
1.47525e+06
1.24963e+06
907306
678893
512019
391189
308194
248433
213889
198568
193881
188801
184075
190600
6.04601e+06
6.24619e+06
6.34516e+06
5.21945e+06
4.66017e+06
4.50969e+06
4.17175e+06
3.55529e+06
2.81661e+06
2.26644e+06
1.83885e+06
1.58056e+06
1.4713e+06
1.41193e+06
1.38782e+06
1.39973e+06
1.42289e+06
1.43141e+06
1.42983e+06
1.40221e+06
6.2642e+06
6.39152e+06
6.32875e+06
4.30475e+06
4.11387e+06
4.44392e+06
4.27131e+06
3.46118e+06
2.30351e+06
1.54472e+06
1.13164e+06
991026
1.01388e+06
1.06951e+06
1.12114e+06
1.16012e+06
1.20185e+06
1.21768e+06
1.21688e+06
1.19577e+06
6.297e+06
6.44955e+06
4.25359e+06
3.17923e+06
3.87989e+06
4.59596e+06
4.47796e+06
3.47522e+06
1.88388e+06
1.05746e+06
772987
783293
843861
970021
1.12082e+06
1.21477e+06
1.29357e+06
1.32707e+06
1.32598e+06
1.29226e+06
5.19696e+06
4.21821e+06
3.07141e+06
2.42221e+06
3.23993e+06
4.58739e+06
4.77457e+06
3.98797e+06
1.77327e+06
480618
520044
590287
689877
842233
1.05139e+06
1.26402e+06
1.42555e+06
1.45985e+06
1.4486e+06
1.3947e+06
4.57492e+06
3.90628e+06
3.59686e+06
2.85942e+06
326736
453247
501640
562484
638086
741708
911003
1.17682e+06
1.41783e+06
1.58117e+06
1.60742e+06
1.5667e+06
4.34912e+06
4.22101e+06
4.34508e+06
4.39803e+06
588430
654229
651680
655726
670211
705196
774179
914794
1.17904e+06
1.45178e+06
1.60643e+06
1.59555e+06
4.02767e+06
4.08285e+06
4.28603e+06
4.59825e+06
716807
710188
691618
672166
662075
667841
690504
747237
876276
1.11369e+06
1.35131e+06
1.51332e+06
3.42799e+06
3.31621e+06
3.33642e+06
3.84694e+06
605808
476239
498361
516349
534045
550513
575521
615702
685636
820700
1.02651e+06
1.31296e+06
2.71857e+06
2.21269e+06
1.81581e+06
1.76879e+06
329498
604150
731149
607251
85494.7
137014
208632
270363
321520
367834
406261
442022
489439
564995
690662
966227
2.18381e+06
1.4755e+06
1.00909e+06
469978
459148
671050
717927
477567
140726
58789.6
74772
116867
172018
226241
273254
314383
355161
413351
497657
720462
1.76758e+06
1.06588e+06
736350
507086
506143
666200
699246
500747
214793
76496.8
53300.8
62825.4
90128.5
129081
174360
219363
261837
307994
368335
535405
1.52958e+06
949995
747330
576612
565670
669717
679526
517452
279126
121767
63526.8
59348.8
62883.2
78991.8
109783
151256
195033
236925
279496
401915
1.43445e+06
981681
814296
675315
639154
683670
671428
534682
331732
180617
93488
63217.5
63658.7
68699.8
83402.6
111985
149931
186949
217803
309573
1.38026e+06
1.04907e+06
953282
827886
739790
718431
678041
551929
378865
238677
136701
81701.9
69391.2
71731.6
79737.5
94623.6
118163
147054
174411
249920
1.35648e+06
1.10506e+06
1.11925e+06
1.04578e+06
908362
786808
701769
578899
418101
288281
185928
116743
86877.4
80739.7
84041.2
92393.2
106397
128168
152180
216596
1.36703e+06
1.1453e+06
1.21305e+06
1.26332e+06
1.18272e+06
927740
760749
622618
454898
330822
234635
163324
120189
99366.2
93942.4
97248.7
108544
128813
148474
201463
1.38345e+06
1.18041e+06
1.28428e+06
1.42646e+06
1.43258e+06
1.19122e+06
893178
697274
504439
373218
280099
212014
163464
128222
110862
111570
118399
132969
150943
196142
1.38471e+06
1.18567e+06
1.30235e+06
1.44377e+06
1.58607e+06
1.46794e+06
1.1342e+06
839798
584293
434455
329540
257909
205248
161327
137386
134486
136718
144422
158536
190034
1.37898e+06
1.18102e+06
1.29582e+06
1.42639e+06
1.59286e+06
1.60333e+06
1.36549e+06
1.04821e+06
715585
523453
394297
304264
239895
191928
165571
157022
157915
162221
169163
190429
1.34532e+06
1.15192e+06
1.25228e+06
1.36149e+06
1.54154e+06
1.58315e+06
1.51425e+06
1.32592e+06
991964
751420
568850
434822
339040
274455
237281
217874
209833
200619
195893
204331
6.15829e+06
6.33067e+06
6.4728e+06
5.4851e+06
4.93633e+06
4.70072e+06
4.31633e+06
3.68426e+06
2.92941e+06
2.35875e+06
1.92113e+06
1.658e+06
1.54091e+06
1.46892e+06
1.44166e+06
1.45275e+06
1.47349e+06
1.47894e+06
1.4759e+06
1.44443e+06
6.33292e+06
6.45048e+06
6.52789e+06
4.62142e+06
4.36058e+06
4.62421e+06
4.40462e+06
3.57812e+06
2.40253e+06
1.61493e+06
1.18499e+06
1.04683e+06
1.07017e+06
1.12347e+06
1.16322e+06
1.19575e+06
1.23305e+06
1.24433e+06
1.24352e+06
1.22216e+06
6.40534e+06
6.57805e+06
4.82832e+06
3.49741e+06
4.0716e+06
4.75666e+06
4.61443e+06
3.5885e+06
1.98492e+06
1.11497e+06
806294
819693
893836
1.03336e+06
1.16635e+06
1.25095e+06
1.32824e+06
1.35278e+06
1.34948e+06
1.31129e+06
5.44602e+06
4.5193e+06
3.38036e+06
2.57708e+06
3.34539e+06
4.75403e+06
4.921e+06
4.11646e+06
1.91546e+06
523043
556152
622153
727264
894386
1.11089e+06
1.32179e+06
1.45271e+06
1.46981e+06
1.45623e+06
1.40292e+06
4.84061e+06
4.13046e+06
3.75005e+06
2.94465e+06
351655
493080
544410
605889
684629
799440
995856
1.26519e+06
1.49133e+06
1.61498e+06
1.61811e+06
1.57126e+06
4.52492e+06
4.37901e+06
4.46846e+06
4.52448e+06
626972
703584
701342
706212
724538
767872
854035
1.02666e+06
1.31025e+06
1.53525e+06
1.62257e+06
1.60148e+06
4.15531e+06
4.18696e+06
4.39326e+06
4.71718e+06
768025
770109
749204
724957
717071
725924
757784
832849
1.00009e+06
1.2516e+06
1.45172e+06
1.56598e+06
3.5376e+06
3.40557e+06
3.4153e+06
3.94969e+06
656800
523895
546551
564910
581366
599596
630811
682055
774253
946335
1.16744e+06
1.41429e+06
2.80705e+06
2.27783e+06
1.88187e+06
1.80555e+06
340344
647123
782237
648540
93052.8
150711
227859
294634
352067
401618
440559
482925
542820
643330
798550
1.07624e+06
2.25878e+06
1.52315e+06
1.04999e+06
515271
501077
717384
772113
519298