/*--------------------------------*- C++ -*----------------------------------*\
  =========                 |
  \\      /  F ield         | OpenFOAM: The Open Source CFD Toolbox
   \\    /   O peration     | Website:  https://openfoam.org
    \\  /    A nd           | Version:  9
     \\/     M anipulation  |
\*---------------------------------------------------------------------------*/
FoamFile
{
    format      ascii;
    class       surfaceScalarField;
    location    "0.005";
    object      phi;
}
// * * * * * * * * * * * * * * * * * * * * * * * * * * * * * * * * * * * * * //

dimensions      [0 3 -1 0 0 0 0];

internalField   nonuniform List<scalar> 
28500
(
-184.306
-184.302
-12.0187
-147.411
-191.645
-9.47161
-127.533
-200.413
-12.1076
-100.719
-239.031
-14.8963
-53.4176
-284.705
-17.8868
7.64033
-296.089
-17.8956
74.6611
-293.742
-19.2622
149.969
-297.293
-17.0326
223.204
-285.935
-20.5439
278.006
-242.901
-15.8907
318.917
-191.137
-17.3677
345.074
-152.721
-19.3853
364.805
-126.602
-17.5072
381.821
-107.845
-15.5945
397.263
-98.1743
-17.9163
412.568
-90.8644
-18.4948
429.431
-82.4287
-18.2391
447.762
-77.5722
-18.6584
466.797
-72.6245
-21.0116
-67.8774
-24.0896
-191.341
-148.137
-9.0945
-154.124
-153.973
-5.54548
-157.925
-179.929
-7.11715
-136.389
-224.558
-12.8237
-71.6117
-286.514
-19.7916
-0.29076
-292.834
-17.7945
76.9564
-288.098
-18.1859
174.559
-290.813
-15.6626
275.699
-267.578
-17.3934
339.279
-200.053
-13.6757
374.001
-140.145
-15.5469
387.835
-104.285
-17.8045
394.185
-78.588
-15.7866
401.893
-61.3246
-13.3643
412.737
-51.1114
-15.8141
425.245
-49.7309
-16.8064
439.854
-46.0416
-16.992
456.469
-42.6948
-17.2153
474.309
-39.1247
-18.93
-36.9027
-22.5684
-199.422
-126.618
-10.3342
-180.405
-155.935
-5.11081
-203.536
-201.595
-4.15816
-160.408
-57.9611
-14.8603
-62.1913
-59.2902
-63.6216
-77.959
-67.8135
-19.7885
-70.7752
-68.9309
-71.7497
-1.61032
-71.2059
-17.2058
-69.9809
-72.0669
-70.8724
78.766
-69.6849
-16.3864
-69.521
-70.4179
-70.4062
191.265
-69.5693
-15.738
-69.3653
-70.2564
-70.3635
306.075
-61.7348
-12.6954
-49.3167
-62.8513
-50.1953
363.578
-155.238
-11.0619
388.971
-119.548
-17.6745
405.475
-95.3017
-17.5651
408.308
-71.4888
-16.0306
408.09
-52.9364
-14.8671
412.937
-37.4595
-15.6799
422.573
-22.3854
-14.8011
436.525
-21.9658
-13.2384
453.59
-20.8364
-12.9476
472.495
-17.5783
-12.1511
-14.6758
-14.4863
-238.471
-98.6691
-10.1559
-225.732
-134.729
-6.58292
-59.5051
-158.934
-9.96115
-63.556
-59.8556
-63.7395
-58.334
-57.2729
-3.87006
-32.3211
-5.27816
50.3769
-16.7318
-16.3455
-16.3405
-16.7081
20.2931
-8.84138
-4.85928
-17.472
-17.7595
-17.7868
-17.46
-0.632592
10.2461
-4.72355
-17.4369
-17.1689
-17.1989
-17.412
-21.6241
33.3798
-4.60776
-17.5632
-17.1918
-17.249
-17.5248
-56.8859
72.3592
-57.2276
-4.57531
444.327
-107.571
-17.8919
-95.217
-108.484
-95.2582
-109.664
459.006
-97.003
-16.4976
463.796
-84.9297
-21.2333
459.733
-69.0857
-22.019
443.404
-49.7964
-19.0661
427.648
-28.8401
-18.4954
425.501
-11.6192
-20.9599
434.362
-3.50269
-21.6598
450.247
2.06244
-23.4516
468.925
7.68934
-23.9859
12.0885
-24.5973
-283.411
-52.0108
-16.3348
-287.089
-70.9771
-17.3759
-68.9336
-77.7222
-17.1842
-71.3275
-69.5203
-71.9505
-32.228
-3.97621
51.5129
-17.2867
-17.2502
-17.4068
-17.2737
4.84418
27.5808
-5.70082
-1.50173
540.877
-59.6867
-25.6516
-129.767
-137.491
-131.962
-140.312
537.073
-55.5611
-26.1322
531.481
-49.1207
-27.5749
523.359
-41.2069
-28.8194
508.242
-29.7934
-28.1181
481.383
-14.534
-29.918
457.936
-1.08753
-27.8421
453.581
14.2257
-22.2274
458.448
23.8291
-22.6402
467.925
31.8037
-23.9028
35.8673
-25.9844
-296.325
8.87454
-17.888
-293.297
0.519115
-18.259
-70.8742
-1.48661
-17.9001
-69.9663
-71.6768
-70.7697
20.2124
-8.65329
-4.94276
-17.4855
-17.7547
-17.7749
-17.4621
3.31036
34.8632
-2.37401
-1.8914
574.693
0.858586
-28.992
-140.982
-142.917
-143.898
-145.861
574.915
0.402112
-30.2
574.339
2.01305
-30.7146
571.606
4.60751
-30.9802
565.91
8.81502
-30.1522
551.797
19.5742
-31.1794
523.208
32.3228
-30.5665
494.134
42.3842
-22.8605
488.058
53.115
-22.6105
490.135
63.6467
-25.7376
67.9019
-28.3277
-293.209
75.8409
-20.3099
-288.641
78.356
-19.8074
-69.842
80.1792
-17.736
-69.6547
-70.5674
-70.4963
-0.919495
10.5622
-5.01965
-17.4635
-17.187
-17.2175
-17.4363
-0.199423
35.8862
1.0741
-1.92721
595.362
78.48
-29.6893
-145.71
-147.907
-148.647
-150.817
597.564
78.2639
-30.1886
598.183
77.1778
-30.838
597.423
74.7811
-30.9917
594.513
73.9514
-30.467
588.213
74.7422
-30.2082
573.293
80.5297
-31.8392
545.089
89.5324
-28.7355
515.891
98.1567
-21.1989
509.065
104.561
-24.856
101.752
-26.1287
-297.38
150.944
-18.4397
-291.33
175.756
-17.8025
-69.4138
192.766
-17.8624
-69.4035
-70.2358
-70.2391
-21.9736
33.9455
-5.0991
-17.4523
-17.23
-17.2581
-17.3135
-4.38181
36.992
6.06768
-1.91039
613.251
208.948
-30.0563
-149.989
-151.299
-153.004
-154.135
617.746
193.98
-30.3393
620.063
182.527
-28.577
621.389
172.333
-28.268
622.095
160.778
-30.0635
619.619
149.293
-29.8798
613.982
143.941
-28.5443
601.259
143.061
-27.7174
577.95
146.752
-22.5971
555.802
152.1
-18.8643
142.858
-22.2404
-285.097
224.121
-22.6748
-266.409
277.105
-21.5071
-61.1662
307.535
-18.7748
-48.3054
-62.8486
-50.5971
-56.6069
-57.0352
73.5334
-5.72078
7.70366
-5.34153
30.3381
-2.80647
3.46831
-2.5297
34.2926
-1.91048
-0.158201
1.08588
35.2603
-1.85621
-4.60664
6.22834
36.4238
-1.76956
-11.1031
-13.7516
126.959
133.982
-7.11061
-17.5716
-10.2492
-16.7439
-18.6039
-15.7827
-19.4955
580.103
393.182
-26.8648
-139.145
-125.921
-141.407
-127.102
590.634
338.114
-24.0479
604.47
302.443
-33.0368
614.816
280.245
-36.7834
621.104
261.226
-32.9989
627.793
244.829
-28.9322
629.744
228.582
-27.9013
624.534
216.824
-28.0035
612.555
210.76
-26.3439
590.551
214.833
-22.5734
204.191
-22.1043
-241.723
278.718
-18.752
-198.417
340.115
-19.0037
-154.458
363.819
-18.7608
-111.516
442.801
-23.2027
-95.2422
-109.67
-95.5211
-109.574
-64.1008
532.663
-27.3296
-129.013
-135.507
-130.554
-137.339
0.1989
562.614
-28.9228
-138.269
-140.105
-140.326
-142.192
81.7628
584.053
-28.7956
-142.88
-145.213
-145.286
-147.852
213.793
602.462
-27.2762
-148.022
-149.495
-150.908
-153.215
375.492
575.181
-28.4715
-141.077
-130.889
-144.126
-133.126
514.259
515.245
-14.8933
554.009
450.567
-37.729
564.503
396.335
-37.055
581.089
359.922
-30.7173
597.404
339.044
-28.6558
612.578
319.993
-25.2854
624.68
300.584
-25.9347
629.689
280.573
-31.2073
627.206
265.304
-27.9075
615.44
263.226
-22.5027
253.141
-17.4719
-190.702
319.489
-20.6011
-139.386
374.503
-20.637
-119.602
388.911
-23.7076
-99.3133
455.918
-21.5362
-59.0363
529.283
-27.9098
-0.000683841
563.107
-30.0493
79.9486
586.793
-29.454
196.586
606.138
-27.4453
323.035
586.255
-20.8467
431.406
543.462
-42.7147
504.927
503.628
-41.9193
528.905
453.272
-23.8895
546.163
416.178
-19.866
566.947
399.39
-21.309
586.581
382.189
-21.9844
600.518
361.859
-23.9164
613.225
339.619
-28.2724
620.005
319.092
-28.1518
617.706
311.883
-21.0814
298.642
-17.4189
-152.23
345.298
-22.6997
-105.27
387.659
-22.6933
-96.323
405.595
-22.7011
-86.9496
460.276
-24.8849
-52.0274
524.091
-29.2337
1.67103
562.696
-30.6471
77.0585
587.961
-30.5737
183.342
607.848
-26.6627
292.898
598.616
-25.2077
375.899
558.559
-35.3795
439.946
519.274
-27.7275
488.433
489.311
-14.4058
524.438
462.508
-14.6927
545.734
438.824
-14.1543
561.924
417.154
-21.689
575.971
403.237
-25.0918
590.676
386.909
-24.1577
609.474
371.501
-26.1223
619.299
361.764
-23.7212
342.549
-19.266
-126.089
364.615
-20.3395
-80.3652
393.261
-19.1092
-73.3405
408.376
-19.4387
-71.4502
456.673
-24.4079
-43.8915
516.629
-29.326
4.59781
560.343
-30.9263
74.2214
587.553
-31.1761
171.493
608.761
-27.1757
274.544
607.94
-28.9849
348.841
577.004
-25.2643
400.68
536.77
-22.6289
449.071
519.67
-16.0195
492.842
496.018
-20.6317
513.606
467.51
-26.1147
526.002
439.639
-30.4107
542.424
429.061
-22.5517
565.243
422.684
-14.2961
591.584
415.303
-14.2141
608.288
406.913
-17.9129
382.303
-17.2265
-107.002
381.332
-18.3951
-63.0645
400.671
-16.5736
-55.134
407.22
-17.8482
-52.244
441.736
-20.2331
-31.5027
502.332
-27.6735
8.82055
555.199
-30.011
72.8049
585.108
-30.6094
159.341
609.643
-29.4229
255.77
613.619
-27.4266
331.896
593.398
-20.9522
390.89
560.988
-17.1368
429.096
541.793
-14.4302
459.559
512.966
-27.5155
483.401
487.552
-39.7698
503.632
462.544
-31.0574
527.657
451.8
-12.7246
550.602
449.495
-3.18893
573.032
443.553
-3.89154
592.833
439.318
-17.3807
417.261
-20.662
-97.5257
396.507
-20.8091
-52.0933
411.371
-19.3948
-40.1566
411.496
-19.4809
-32.3311
426.316
-18.14
-16.4742
476.895
-27.514
19.1274
542
-30.3469
73.2328
579.202
-30.155
147.513
607.569
-29.1072
239.388
619.623
-24.9826
313.728
607.786
-17.6492
375.794
582.873
-15.9163
411.049
559.551
-20.4804
433.818
524.22
-29.458
456.045
504.746
-30.5232
485.101
489.774
-7.62068
510.126
474.632
-2.98596
532.983
467.047
-1.38109
551.987
456.601
-6.14391
571.603
454.689
-20.7245
442.688
-20.7668
-90.4299
411.581
-21.7357
-50.283
423.924
-20.8696
-24.713
421.259
-19.1425
-15.0421
423.751
-21.8057
-3.99914
454.23
-24.2108
30.4049
515.185
-28.4426
78.8105
564.633
-31.067
142.186
602.54
-27.4954
223.602
621.197
-25.1674
294.804
618.85
-19.5078
356.215
597.272
-19.3307
398.979
573.996
-22.467
427.135
540.612
-21.5979
450.096
526.904
-12.8337
471.441
512.137
-3.98142
493.034
496.016
-12.9214
511.293
483.252
-8.21492
529.398
467.938
-11.225
548.901
465.84
-19.0986
463.585
-15.2416
-82.0428
428.28
-21.5331
-46.5749
438.526
-21.1134
-23.7619
435.425
-17.7222
-6.10997
432.88
-23.6553
11.5772
450.143
-21.1911
39.6559
488.781
-21.2832
87.2485
537.34
-26.725
141.147
590.711
-26.1005
212.182
615.871
-25.6903
275.463
623.54
-26.2518
334.27
609.806
-23.5121
382.581
588.554
-19.1403
420.323
563.469
-11.5034
448.616
550.392
-2.57787
466.044
534.606
-2.04305
481.472
514.132
-8.52277
496.05
498.634
-4.93459
514.412
481.392
-9.04433
532.498
480.681
-10.1071
484.78
-5.47403
-77.2693
446.567
-21.962
-43.2274
455.173
-21.2845
-22.1444
452.596
-17.2762
-0.142272
448.707
-25.6246
21.1817
455.443
-23.0454
50.6175
484.03
-22.7319
95.8603
510.433
-19.8175
144.135
569.089
-20.4328
206.227
604.12
-23.9138
260.413
621.008
-23.9244
314.513
616.338
-22.7238
367.021
606.587
-19.2893
411.923
589.343
-9.67082
443.759
573.863
-1.8396
458.631
554.553
-6.68798
469.065
532.493
-12.0662
481.39
516.905
-9.92712
498.524
497.994
-7.41747
517.841
499.972
1.21626
505.323
3.97423
-72.3747
465.596
-24.1967
-39.7638
473.073
-22.9196
-18.6889
471.534
-16.581
5.76504
467.335
-26.5435
29.1562
465.383
-25.4384
60.9414
486.679
-26.3618
101.485
504.994
-24.8953
147.788
550.575
-18.3145
209.344
583.88
-20.576
257.832
609.727
-18.8707
306.667
614.149
-16.1707
356.864
615.716
-17.7512
403.069
605.65
-13.4315
438.021
592.653
-14.3272
456.23
573.012
-19.266
468.831
551.192
-17.7456
483.574
534.007
-10.2526
504.511
517.3
1.20191
521.054
516.869
7.92187
520.85
0.381127
-67.6196
-26.8839
-37.5423
-26.0213
-15.7915
-18.4011
10.2286
-27.0811
33.477
-27.9348
65.0832
-29.093
98.7983
-26.2474
139.819
-21.8361
198.772
-20.9809
247.175
-15.139
292.78
-14.0323
336.925
-15.15
377.687
-13.6458
414.214
-17.3881
441.76
-17.9602
464.493
-12.4973
487.504
-3.43232
509.742
6.29969
525.478
2.66333
-6.15756
-184.023
-184.657
-4.7434
-147.151
-192.711
-1.21424
-129.726
-201.169
-0.882836
-104.092
-244.425
-1.09146
-55.1714
-294.52
-5.827
7.03824
-302.654
-7.18978
74.5756
-299.842
-8.55675
150.636
-302.499
-7.33289
224.472
-290.828
-9.94187
279.31
-247.546
-4.94207
320.317
-195.179
-5.83915
346.527
-155.708
-7.96495
366.411
-129.205
-6.27159
383.304
-109.615
-4.2317
398.315
-99.0659
-5.94607
413.122
-91.6278
-7.24418
429.716
-83.2067
-8.13123
448.031
-78.3436
-8.99278
467.212
-73.7031
-11.3305
-69.3244
-14.0111
-191.431
-148.395
-1.37422
-154.679
-154.619
3.45091
-162.884
-187.433
5.06782
-139.69
-234.879
1.2634
-72.4015
-296.987
-6.84581
0.152931
-300.417
-7.0684
77.0636
-295.315
-7.76746
175.525
-297.367
-6.31564
277.367
-273.571
-7.32265
341.392
-205.89
-2.56427
376.048
-144.85
-2.95359
390.721
-107.636
-5.96623
397.131
-81.886
-4.21031
404.187
-64.3549
-1.44078
414.193
-52.1836
-3.51043
425.988
-49.6942
-5.32029
440.073
-46.5058
-6.85176
456.527
-43.2768
-7.80929
474.408
-40.0597
-9.98028
-38.5006
-13.2047
-198.327
-128.522
-0.93913
-185.411
-161.085
3.72862
-212.614
-212
11.5968
-165.241
-61.1585
-2.03302
-66.3215
-61.3687
-66.4151
-77.227
-70.8481
-7.16827
-73.7196
-71.642
-74.2602
0.12374
-73.636
-7.87775
-72.6717
-74.2151
-73.1732
80.6843
-72.0546
-7.08883
-71.988
-72.5372
-72.6149
192.261
-71.9134
-6.60749
-72.0631
-72.4324
-72.4928
308.16
-64.4236
-1.66962
-52.0069
-64.3621
-51.7485
366.827
-160.596
-1.02663
390.873
-121.55
-4.45247
407.938
-96.5723
-5.76172
412.885
-73.0899
-4.72408
411.758
-54.5301
-2.14199
415.038
-39.354
-3.4784
423.506
-23.4824
-3.48294
436.445
-21.7425
-3.05325
453.316
-21.4106
-3.16714
471.963
-18.6381
-3.71561
-16.2326
-6.58423
-241.897
-101.402
-0.0286011
-233.133
-138.739
2.17336
-61.141
-163.759
-2.99578
-65.9767
-62.5569
-66.0692
2.12196
-59.9008
-59.367
-1.57704
4.03289
-31.5882
-2.41058
52.2193
-18.1621
-17.9693
-18.0079
-18.0755
3.61962
20.1026
-8.73945
-2.8254
-18.1268
-18.4699
-18.0927
-18.5001
3.52113
-0.733357
10.35
-2.72581
-18.1065
-17.8244
-18.0744
-17.8621
3.20532
-21.9289
33.5648
-2.39604
-18.2075
-17.9092
-18.1963
-18.0137
-57.1874
2.0266
72.6018
-60.0233
-1.4479
452.336
-111.683
-3.61669
-96.576
-111.254
-96.7514
-113.015
465.853
-98.7769
-1.34008
470.018
-86.0753
-4.70572
466.633
-70.8243
-7.56901
451.846
-51.6278
-4.54209
433.464
-31.0037
-2.81606
430.272
-12.8934
-8.12776
435.535
-4.41425
-11.2741
450.4
0.853231
-13.7121
468.793
6.51563
-15.4456
10.8043
-16.4761
-291.391
-53.7227
-6.27631
-295.011
-72.4898
-8.29659
-70.6042
-78.4061
-9.90351
-73.5072
-70.8698
-74.066
2.59089
-32.5977
-2.17313
50.963
-17.5493
-16.9665
-17.5514
-16.9857
0.851099
5.30822
27.7284
-6.09776
-0.718425
555.49
-61.9759
-17.0077
-134.788
-142.836
-135.341
-143.302
550.11
-57.7315
-15.3942
543.258
-51.1602
-15.6856
534.605
-43.3447
-16.3421
520.18
-32.0082
-15.0059
494.199
-16.5479
-15.7383
467.004
-3.11161
-12.7483
458.235
13.5983
-9.7761
461.631
23.6497
-12.5182
470.116
30.9638
-15.1886
34.6397
-18.0542
-302.751
7.79417
-7.45116
-300.373
0.230485
-7.8397
-73.1187
-0.349784
-9.48543
-72.3631
-73.756
-72.7371
3.57815
20.4745
-8.72631
-2.69855
-18.0612
-18.3622
-18.0634
-18.3973
1.41805
3.40494
36.3988
-2.47449
-1.29561
591.102
0.0263033
-17.3838
-146.542
-148.602
-147.017
-149.145
590.584
-0.249522
-16.9422
589.428
1.07757
-16.7464
586.093
3.76351
-16.7135
580.043
7.70228
-15.4235
566.905
17.7244
-16.507
540.223
30.9272
-15.6955
506.099
42.1543
-5.58621
495.177
53.2329
-6.98905
496.446
63.0566
-15.3271
67.2299
-19.8642
-299.587
75.2841
-9.79404
-295.844
77.7578
-9.36473
-72.1345
80.9021
-8.18389
-71.9751
-72.5453
-72.6005
3.75372
-0.876268
10.5463
-2.92379
-18.1082
-17.8255
-18.0833
-17.8567
1.44585
-0.0850259
37.4656
0.972805
-1.32243
613.071
78.9708
-17.4973
-151.42
-153.636
-152.169
-154.558
614.39
78.5164
-17.3111
614.89
77.3088
-17.2118
613.997
74.8269
-17.3773
611.143
73.8432
-16.8903
605.575
74.403
-15.8012
592.699
79.202
-16.2861
566.478
87.6603
-13.6656
532.973
97.2523
-2.18929
521.027
105.621
-7.05846
103.635
-14.4006
-303.03
151.36
-8.46483
-298.168
176.289
-7.9208
-71.7225
192.823
-8.73435
-71.8236
-72.244
-72.3468
3.67338
-22.053
33.7342
-2.8318
-18.0205
-18.034
-17.9482
-18.0627
1.45467
-4.28597
38.5258
5.93484
-1.32927
632.18
210.539
-17.1956
-155.931
-156.854
-156.871
-158.403
635.6
195.12
-14.8617
637.396
183.958
-13.5195
638.173
173.563
-13.5092
638.821
162.621
-15.1532
636.765
150.606
-15.1958
631.562
143.874
-13.1473
620.4
142.766
-11.947
598.436
144.987
-6.52638
571.582
152.594
0.998602
145.599
-5.9784
-290.845
225.328
-12.0389
-273.155
278.471
-11.167
-63.5496
308.811
-8.19244
-50.9718
-64.0247
-51.3813
-56.531
2.94396
-60.0085
73.1717
-2.77004
0.981656
7.72451
-5.81152
30.5813
-1.39781
1.46538
3.58091
-2.6504
35.6313
-1.34145
1.45802
-0.0311804
0.955259
36.7326
-1.34978
1.35322
-4.44411
6.03779
38.1265
-1.25887
-10.2284
-15.5045
4.73054
130.298
140.218
-3.52409
-16.8005
-10.1943
-16.7436
-20.2806
-14.7972
-19.7419
598.565
394.884
-13.8139
-143.865
-129.346
-145.691
-131.461
610.234
340.884
-8.59132
623.74
306.015
-13.9635
632.788
282.003
-17.6581
637.754
262.661
-15.5533
643.417
245.712
-12.6978
646.087
230.286
-12.9916
642.238
217.858
-13.0546
632.232
210.468
-10.5868
610.78
213.982
-3.66385
205.473
-3.91296
-247.603
280.317
-8.09526
-205.267
342.784
-8.03657
-159.755
367.614
-8.81501
-115.637
451.8
-11.481
-96.3213
-111.815
-96.5096
-113.048
-66.8269
549.968
-16.4153
-133.775
-140.585
-134.921
-142.11
-1.33478
583.055
-17.4304
-144.018
-145.965
-145.839
-147.87
81.3487
607.223
-16.496
-149.285
-152.094
-151.287
-154.125
217.649
627.539
-17.2675
-155.424
-157.62
-157.744
-160.026
376.591
600.013
-14.8832
-148.373
-136.546
-150.666
-137.774
523.1
530.177
-1.97967
574.343
457.388
-32.1406
584.822
404.355
-23.3757
598.192
364.123
-5.48981
612.051
339.751
-4.31716
626.783
321.416
-10.509
640.575
303.568
-12.2456
647.089
284.226
-16.5564
645.08
266.66
-12.7476
633.416
263.099
-4.50036
253.371
0.511246
-195.978
321.15
-9.46389
-146.178
377.422
-8.2285
-123.227
392.171
-9.22348
-102.256
464.82
-7.50209
-61.8917
544.854
-14.6688
-1.38607
582.091
-16.9007
79.4453
607.957
-16.7428
198.238
628.777
-14.6879
327.088
609.577
-9.74457
437.515
566.058
-35.2042
523.05
524.29
-39.998
546.25
465.036
1.01852
558.769
421.721
7.14008
578.479
401.264
-7.05756
601.149
386.182
-14.5736
617.059
366.458
-10.7375
629.097
343.896
-8.15666
635.961
320.341
-10.5002
633.379
311.766
-4.16023
298.729
-0.796617
-155.668
346.562
-11.4962
-110.505
390.566
-10.4425
-99.5329
408.967
-8.9052
-89.9212
468.301
-7.27918
-54.8305
537.983
-14.9701
0.198094
580.568
-16.4653
76.5693
608.197
-16.5767
185.133
629.649
-13.7636
296.837
620.904
-13.1086
384.788
578.395
-22.9087
453.043
537.854
-0.696117
499.78
499.626
10.5842
537.378
469.661
-10.3234
562.783
450.284
-12.7105
577.453
427.023
-7.8157
590.391
406.634
-1.51215
603.257
388.714
0.891483
620.403
370.991
-9.0177
631.551
362.376
-12.9026
343.824
-6.03073
-128.605
365.796
-9.72418
-84.0781
395.37
-8.48319
-76.5168
412.452
-7.19962
-75.2511
464.535
-7.02662
-46.94
529.372
-14.5945
2.86951
577.16
-16.0244
73.6623
607.107
-16.2792
173.108
629.655
-13.9433
276.626
628.472
-15.8979
352.327
594.222
-5.35158
406.097
551.036
4.72388
456.667
531.889
-10.3301
511.2
514.873
-22.4675
532.259
484.41
-6.60362
541.357
449.762
3.92238
553.725
430.584
1.40811
571.733
422.669
1.88686
598.817
415.764
-7.59631
620.71
410.416
-10.8144
385.404
-2.78862
-108.333
382.498
-7.67184
-65.765
402.157
-5.49581
-57.5716
409.926
-5.22515
-55.9317
449.675
-4.22
-35.1758
514.854
-12.6919
6.50203
571.177
-14.6901
72.2297
604.094
-15.5198
160.991
629.898
-15.286
257.346
632.302
-13.5214
332.75
608.728
-1.80861
392.747
572.236
-3.7107
440.361
557.057
-10.3826
476.697
530.228
-6.64237
498.257
501.098
-5.12138
513.792
469.321
-4.69934
533.588
453.698
-0.619711
556.392
452.341
4.6369
583.732
449.232
2.07422
604.8
443.926
-4.33248
419.389
-2.85042
-98.536
397.416
-8.93168
-53.2076
412.392
-6.59472
-42.4912
412.922
-5.5922
-35.6099
431.355
-2.57694
-19.7767
488.929
-12.7621
16.0416
558.232
-15.1475
72.4096
598.1
-14.2445
148.586
627.669
-14.849
240.467
637.073
-10.7493
315.85
622.892
-5.23266
380.784
597.286
-8.47171
419.877
573.516
-6.32178
442.652
538.404
2.52643
463.081
513.733
-4.71723
488.996
492.971
5.40278
517.159
480.614
4.92951
542.379
474.815
8.58584
562.52
462.223
12.2074
581.732
456.41
3.6569
441.879
-0.0960444
-91.4598
412.177
-9.89148
-50.9625
424.566
-7.84727
-27.0245
421.863
-5.00522
-17.3854
428.264
-7.65459
-6.7292
461.998
-9.48138
28.1373
531.594
-13.0279
76.7954
584.496
-14.4073
141.661
622.182
-12.2205
224.826
639.049
-10.8747
297.788
635.377
-6.92198
361.222
612.975
-6.25413
402.55
586.883
1.435
428.269
550.482
3.8555
451.594
530.855
0.361964
477.37
517.548
3.74585
501.349
503.543
-2.76366
521.218
490.151
8.062
538.609
470.959
16.2391
556.453
465.243
5.84907
461.859
1.64506
-83.1703
428.672
-10.4591
-47.8938
438.881
-9.09862
-24.4845
435.389
-4.72755
-7.71681
434.526
-11.6472
10.2401
454.002
-7.55988
38.73
499.331
-3.50928
85.1492
557.495
-10.7551
140.455
610.693
-10.4541
212.884
634.769
-11.1045
278.293
641.111
-12.033
338.118
624.652
-4.43296
384.09
599.598
5.8708
419.97
568.4
6.9085
450.817
553.526
6.84175
473.22
541.345
7.7551
488.686
522.283
7.79444
501.698
503.473
20.4076
518.106
482.921
20.3032
534.583
479.592
8.39372
483.636
6.35016
-78.4301
446.968
-11.1979
-44.6804
455.417
-10.0304
-23.5739
452.441
-5.34835
-1.81573
449.162
-14.1367
19.9138
458.014
-11.2575
49.4713
490.055
-6.55626
94.568
525.458
-0.206005
142.271
588.656
-4.20056
205.695
624.256
-8.41736
261.35
638.748
-8.97768
315.571
631.333
-5.83179
366.283
616.171
-2.20264
411.771
594.3
-1.61628
448.901
581.677
5.63277
463.959
562.331
11.2651
472.166
539.892
15.7997
483.316
519.789
19.4971
499.783
498.46
14.1966
517.39
498.416
13.4076
505.99
15.3294
-73.8635
466.153
-13.3109
-41.4903
473.425
-12.0539
-20.4584
471.234
-5.99697
3.95727
467.378
-16.0173
27.4485
467.178
-14.7745
59.3968
491.832
-14.9102
102.06
514.927
-6.95311
148.759
564.298
1.91176
208.668
603.193
-1.69133
257.512
626.963
-1.07754
306.487
628.85
1.05306
357.259
626.986
-5.70841
405.901
615.953
-4.78432
442.85
602.475
-0.357622
458.56
580.773
4.97725
468.725
556.969
8.66845
482.967
535.178
9.38421
503.327
515.63
13.1585
522.407
517.191
19.5398
523.312
16.1292
-69.4048
-15.7391
-39.7039
-15.0381
-17.7778
-8.65589
8.28453
-17.1019
31.5712
-18.0203
63.8463
-19.7134
99.6851
-14.1731
141.871
-5.54611
199.866
-2.77124
247.234
2.91458
292.531
2.91125
337.582
-1.20464
380.089
1.2188
416.679
1.13021
441.778
3.98033
463.22
6.9119
486.469
10.0176
510.961
17.7031
528.525
18.822
13.17
-186.921
-185.331
-1.46413
-151.023
-194.308
1.36463
-135.701
-203.802
1.8006
-109.615
-251.814
1.06086
-57.0202
-304.981
-2.41551
6.29773
-310.008
-2.87871
74.9454
-306.779
-3.98469
152.3
-309.975
-3.13641
226.409
-297.078
-5.42552
281.689
-252.711
-0.571852
323.323
-200.052
-0.479226
349.698
-160.571
-2.42708
369.556
-134.087
-1.01565
386.319
-114.429
0.636882
401.438
-102.613
-0.410594
416.101
-95.2248
-1.82902
432.247
-87.2992
-3.23055
450.129
-82.6846
-4.33416
469.003
-78.3206
-6.65846
-74.2044
-9.11873
-195.179
-150.454
1.60962
-162.346
-158.227
4.84734
-172.832
-197.799
5.9087
-144.588
-245.663
2.0196
-73.4327
-304.756
-3.0481
0.0401765
-306.043
-2.99312
77.9021
-301.221
-3.44366
177.554
-303.928
-2.42302
278.99
-277.929
-4.41381
343.683
-207.278
-0.135224
379.441
-144.868
1.83886
395.351
-109.478
0.00386072
401.781
-86.5407
1.10594
408.196
-68.7247
3.19712
417.755
-55.4423
1.86902
429.406
-51.9952
0.101286
443.014
-50.2279
-1.88583
458.845
-47.879
-3.06711
476.226
-45.2349
-5.31215
-43.7243
-8.28589
-198.29
-134.395
2.762
-197.653
-170.179
5.32472
-218.632
-219.721
9.17889
-170.83
-62.9719
-0.798737
-67.4473
-63.1101
-67.2726
-77.9605
-73.2335
-1.8463
-75.3384
-73.5135
-75.5671
1.75286
-75.0417
-3.13729
-74.0609
-75.3841
-74.0717
82.9607
-73.6231
-2.26136
-73.6108
-73.8276
-73.7401
193.105
-73.455
-2.62023
-73.5413
-73.4638
-73.4423
308.804
-65.7877
-1.54349
-52.2965
-64.7556
-51.0901
367.781
-163.934
-0.695501
391.572
-121.883
0.531837
409.079
-95.4616
1.35937
416.55
-72.6451
1.64444
416.244
-53.7546
3.31771
419.248
-40.4683
1.64188
427.431
-26.0957
1.17725
439.525
-21.4773
1.28778
455.405
-23.2031
1.31678
472.999
-22.3052
0.562443
-20.8963
-2.62282
-248.54
-108.111
2.72351
-243.977
-144.063
2.30877
-63.321
-169.579
-1.90593
-66.8374
-63.9387
-66.8622
1.08247
-61.3224
-60.6028
-0.743225
1.28259
-31.7464
-0.192073
52.6886
-18.9815
-18.6765
-18.9246
-18.8647
2.03725
20.2288
-8.77227
-1.33996
-18.5208
-18.8607
-18.4845
-18.9009
1.97578
-0.79737
10.4883
-1.36177
-18.5211
-18.2224
-18.4749
-18.2687
1.6837
-22.256
34.0034
-1.09263
-18.6698
-18.2935
-18.6348
-18.3797
-57.8257
0.845008
73.0594
-61.6125
0.222759
460.7
-116.791
-4.94255
-97.1703
-112.312
-96.9321
-114.452
471.983
-101.187
-0.0812676
475.39
-86.7547
-0.550504
473.504
-71.7583
-1.44682
461.655
-52.9046
2.38602
443.653
-33.3139
4.74151
438.153
-14.8726
-0.348832
440.897
-4.52344
-5.1967
453.386
0.954806
-7.69703
469.869
4.25641
-10.2627
7.01397
-11.5986
-303.12
-57.5746
-2.81564
-303.709
-74.5509
-4.73398
-71.6383
-78.8884
-5.19366
-75.1457
-72.3679
-75.2844
1.86807
-32.7849
-1.70558
51.3906
-18.0561
-17.2393
-17.9714
-17.3119
0.726917
5.16052
28.3804
-6.1576
-0.566089
568.759
-65.0048
-10.0052
-136.77
-144.424
-138.796
-147.117
564.333
-61.2607
-8.85162
557.473
-55.4191
-9.258
548.693
-48.5626
-10.0917
535.963
-38.0162
-8.17831
512.733
-22.0972
-8.31279
484.677
-6.23321
-6.43032
471.371
11.9496
-3.68209
472.872
23.197
-6.28006
479.416
29.0862
-9.09888
31.5622
-11.9845
-309.507
5.61135
-3.05783
-305.931
-0.88559
-3.23485
-74.8253
1.18153
-4.04612
-73.7034
-75.1782
-74.0282
2.07964
20.7179
-8.82991
-1.54021
-18.5286
-18.7879
-18.4648
-18.8366
0.953434
3.46353
36.6072
-2.53807
-0.854581
605.843
-2.6104
-9.84512
-148.105
-150.698
-151.067
-153.614
606.805
-2.90336
-10.0339
606.779
-1.41405
-9.99906
604.455
1.92394
-10.2157
599.383
5.71573
-9.14136
589.004
13.4191
-9.5425
566.782
26.9786
-10.8248
532.996
40.9031
-3.05977
515.481
50.6442
0.685434
513.813
59.84
-8.15292
63.6482
-12.5188
-306.56
74.0032
-4.68956
-301.146
76.4801
-4.04436
-73.568
81.7012
-2.9123
-73.5857
-73.7704
-73.8366
2.1934
-0.81703
10.5344
-1.56578
-18.5069
-18.2028
-18.4608
-18.2446
0.969564
-0.048661
37.9569
0.951592
-0.864079
631.953
78.0048
-9.75559
-154.293
-157.153
-157.416
-160.349
634.58
76.5418
-10.157
636.707
75.0609
-10.6552
636.885
73.5589
-10.7574
635.461
72.5489
-10.607
631.667
72.5658
-9.44087
622.436
75.3352
-8.71106
601.793
83.7949
-8.80387
568.832
94.3653
0.00894663
547.846
104.521
3.76041
103.618
-6.8083
-309.555
151.664
-3.8149
-303.723
176.536
-2.95108
-73.3917
192.536
-3.21303
-73.485
-73.7043
-73.7396
2.08843
-22.195
33.8138
-1.39082
-18.6908
-18.2884
-18.5919
-18.3532
0.919908
-4.28003
39.2803
5.90993
-0.799793
652.717
212.274
-9.53058
-159.929
-161.124
-163.215
-164.572
656.738
195.255
-7.74511
660.238
183.784
-8.07914
661.835
173.178
-9.14157
663.113
163.789
-9.41358
662.559
152.042
-9.70741
659.075
144.145
-7.80431
651.193
141.288
-6.53516
634.951
142.359
-3.68723
608.144
151.665
4.84457
147.688
1.39413
-297.954
226.602
-6.79661
-279.682
278.909
-5.38862
-65.872
308.084
-1.33953
-52.4936
-66.1416
-52.5324
-57.5499
2.87116
-61.2314
72.6608
-1.18851
1.09372
5.06372
-6.39223
28.4845
-0.872308
0.96017
3.66012
-2.71869
36.5015
-0.835427
0.959464
-0.00155988
0.919476
37.7985
-0.816524
0.91202
-4.40155
5.99953
39.4
-0.767325
-12.6256
-11.5941
2.84657
141.312
136.624
-2.24796
-17.5903
-11.9491
-17.3912
-18.6407
-11.4292
-18.2576
622.682
386.385
-5.14454
-150.632
-137.646
-152.443
-136.757
632.769
338.944
0.269021
644.265
305.692
-4.896
655.067
281.237
-8.12177
662.003
262.706
-8.15229
667.121
246.664
-5.381
671.404
232.042
-6.15632
669.934
218.41
-7.41488
663.52
208.814
-5.84433
647.59
210.442
-0.402623
206.143
1.61439
-254.646
282.558
-3.26071
-210.784
345.097
-2.41381
-169.978
368.718
-2.61594
-120.709
459.886
-4.41703
-96.6519
-111.939
-96.669
-112.71
-66.8341
564.285
-7.14415
-135.909
-143.119
-136.995
-144.738
-2.42185
600.032
-7.56307
-147.267
-149.792
-149.122
-151.797
80.1402
626.22
-7.11346
-153.407
-156.342
-155.54
-158.526
218.118
648.227
-7.82685
-159.87
-162.177
-161.985
-163.974
385.826
618.161
-7.81188
-149.888
-135.3
-153.229
-139.76
534.468
532.971
2.74178
592.183
454.324
-29.0299
603.891
405.487
-18.7298
619.176
368.468
1.31336
634.14
342.153
7.73275
648.825
324.192
-1.9394
661.998
304.616
-5.16746
670.901
287.466
-8.67186
671.995
267.984
-8.47682
664.836
261.318
-0.390114
253.321
4.7924
-202.191
323.842
-4.26615
-148.902
380.216
-1.86809
-130.261
392.128
-1.72434
-107.116
472.557
-1.78812
-62.3243
560.606
-6.32271
-2.80423
600.867
-7.69897
77.8944
628.994
-7.27169
199.318
650.721
-5.35761
335.442
631.668
-3.73361
448.144
582.465
-27.3863
541.87
538.74
-42.0491
572.805
479.896
4.12351
581.942
431.204
19.2344
599.86
405.079
3.88057
619.533
388.087
-11.4061
636.619
369.791
-7.65809
650.916
348.932
-1.50086
661.644
326.854
-1.73577
662.572
312.475
1.00395
299.138
3.22984
-161.098
349.358
-6.79694
-113.032
394.692
-4.94021
-104.314
409.534
-2.12381
-93.431
476.126
-0.929246
-56.292
554.245
-7.58515
-1.47557
600.994
-7.66361
75.311
631.115
-7.45936
187.593
653.796
-5.49877
302.213
644.798
-7.26499
393.269
596.151
-17.7191
474.311
560.947
4.05847
525.123
519.923
23.2873
559.621
483.067
-7.39767
577.291
454.318
-16.7708
596.177
433.998
-5.7754
613.023
415.099
2.90053
626.195
396.484
10.9088
641.911
376.002
3.97185
654.892
365.205
-8.02592
345.401
-3.38505
-133.913
368.592
-5.98532
-90.3659
399.718
-5.21504
-81.3927
417.341
-4.22336
-79.1636
474.752
-1.47039
-49.6013
546.287
-8.24571
1.34737
599.116
-7.90532
73.4903
631.154
-7.54758
175.327
655.081
-6.38589
279.53
653.791
-8.74777
359.72
615.127
0.386438
419.358
571.361
15.6746
475.888
550.653
-7.93589
523.751
522.046
-29.4086
550.718
498.433
-5.82868
562.52
462.197
15.4624
576.027
440.238
11.692
591.312
430.32
9.74254
612.89
416.981
-2.95515
636.386
413.284
-9.60079
388.589
-0.397756
-113.535
385.161
-4.39556
-71.6981
405.865
-2.73338
-61.2948
415.464
-2.96226
-60.3273
463.336
-0.224153
-40.1628
534.621
-6.8206
4.14987
594.559
-7.2367
72.3106
629.547
-7.53846
164.046
656.178
-6.6059
260.491
658.376
-7.11568
337.405
631.453
6.45737
398.537
593.293
3.51039
447.004
568.611
-14.0875
494.229
542.134
-6.4651
520.109
517.077
10.5145
535.041
483.366
13.2261
550.838
462.762
4.68092
569.529
459.134
4.01963
594.342
449.839
0.286666
619.954
449.092
-2.26134
424.664
1.98865
-102.387
400.131
-4.97019
-57.1576
415.452
-3.09637
-46.8982
417.289
-2.72038
-40.8557
443.869
-0.0866229
-25.2041
511.952
-8.09992
10.9404
584.812
-7.88786
71.994
625.45
-6.75687
151.336
655.512
-7.06935
243.395
662.628
-4.27822
320.576