/*--------------------------------*- C++ -*----------------------------------*\
  =========                 |
  \\      /  F ield         | OpenFOAM: The Open Source CFD Toolbox
   \\    /   O peration     | Website:  https://openfoam.org
    \\  /    A nd           | Version:  9
     \\/     M anipulation  |
\*---------------------------------------------------------------------------*/
FoamFile
{
    format      ascii;
    class       volScalarField;
    location    "0.005";
    object      rho;
}
// * * * * * * * * * * * * * * * * * * * * * * * * * * * * * * * * * * * * * //

dimensions      [1 -3 0 0 0 0 0];

internalField   nonuniform List<scalar> 
9720
(
12.9378
13.2456
13.496
12.072
11.1797
10.6702
9.95683
8.78086
7.34345
6.15328
5.17246
4.54883
4.2614
4.09294
4.02598
4.03936
4.06427
4.06506
4.05402
3.97905
13.2194
13.453
13.6425
10.6062
10.0535
10.4763
10.0251
8.50359
6.22854
4.50563
3.49129
3.15134
3.2055
3.32542
3.40982
3.48031
3.54829
3.5567
3.55083
3.49345
13.3923
13.6158
11.3714
8.62381
9.31253
10.4745
10.3088
8.46288
5.29126
3.24319
2.4939
2.54304
2.75833
3.12441
3.42521
3.59652
3.74875
3.77523
3.76077
3.6617
12.031
10.5739
8.6337
7.12696
7.92973
10.6988
11.0262
9.60774
5.29465
1.77144
1.86045
2.05057
2.34167
2.77789
3.30739
3.77882
4.02822
4.02579
3.98448
3.84157
11.0909
9.88513
9.05642
7.77408
1.41315
1.7455
1.89493
2.06331
2.27304
2.57411
3.08258
3.70326
4.18446
4.34958
4.32936
4.18924
10.4852
10.1996
10.1682
10.4496
2.23498
2.35001
2.35647
2.37919
2.43609
2.55898
2.79047
3.23154
3.86803
4.29288
4.36361
4.28566
9.76009
9.73791
10.0142
10.7622
2.65934
2.53578
2.49334
2.43999
2.42877
2.45689
2.55044
2.7651
3.20364
3.76983
4.15854
4.29446
8.60179
8.26874
8.19766
9.33596
2.33995
1.84974
1.93479
1.99991
2.0542
2.11261
2.20389
2.35134
2.62059
3.0768
3.6
4.06622
7.18601
6.04161
5.07999
4.86009
1.33677
2.20461
2.5894
2.24866
0.389716
0.590876
0.891362
1.15615
1.36728
1.52509
1.64245
1.77636
1.96848
2.28264
2.71695
3.34429
6.01894
4.38009
3.15585
1.75813
1.74097
2.30982
2.4532
1.81941
0.643734
0.304912
0.374353
0.558566
0.791982
1.00585
1.18325
1.33862
1.51384
1.76071
2.09765
2.71995
5.06297
3.40365
2.46172
1.86039
1.90095
2.31634
2.41634
1.90281
0.953968
0.397608
0.315526
0.345626
0.447712
0.612439
0.804503
0.99429
1.16873
1.37327
1.62873
2.17031
4.46698
3.10016
2.50834
2.05781
2.07186
2.34194
2.38073
1.96763
1.21447
0.606453
0.359199
0.334986
0.348473
0.416096
0.556098
0.73617
0.90971
1.07438
1.26092
1.71712
4.19148
3.15882
2.71422
2.34282
2.27737
2.40248
2.38687
2.02644
1.41165
0.851348
0.486123
0.354792
0.356059
0.382377
0.453262
0.570753
0.707593
0.848698
0.997003
1.37957
4.02725
3.28159
3.07025
2.75398
2.56709
2.52993
2.4266
2.09102
1.55946
1.06457
0.664178
0.438773
0.388589
0.39889
0.429358
0.480776
0.570551
0.696589
0.824059
1.14231
3.95404
3.3662
3.38179
3.25307
3.0457
2.76461
2.53456
2.19035
1.67239
1.23697
0.858061
0.594839
0.475263
0.437582
0.442241
0.473739
0.531682
0.627186
0.73333
0.993479
3.96382
3.43106
3.54783
3.69468
3.63561
3.20228
2.75868
2.34517
1.80511
1.38801
1.0475
0.783656
0.607181
0.505611
0.482156
0.494835
0.539149
0.611972
0.690838
0.889358
3.98405
3.49043
3.69134
3.94619
4.09912
3.81624
3.19626
2.62093
2.00025
1.56091
1.22173
0.959928
0.751712
0.606595
0.548528
0.550722
0.572256
0.621124
0.67849
0.822762
3.9828
3.49448
3.71145
3.95232
4.27741
4.22409
3.73266
3.07337
2.31799
1.80956
1.42789
1.12868
0.897396
0.735043
0.654111
0.632842
0.636554
0.654652
0.687274
0.789439
3.97002
3.48721
3.69685
3.91933
4.2627
4.29988
4.10079
3.57169
2.74038
2.14396
1.68435
1.31964
1.05107
0.868253
0.77079
0.724518
0.702023
0.700826
0.716579
0.796209
3.8977
3.43064
3.60088
3.7871
4.13037
4.22958
4.24734
4.02701
3.34773
2.75148
2.22197
1.78074
1.44398
1.2035
1.05239
0.946219
0.868354
0.818038
0.817583
0.854954
12.4108
12.6955
12.878
11.3177
10.4712
10.0804
9.44272
8.33647
6.94725
5.80392
4.85329
4.24557
3.97414
3.81895
3.74573
3.76194
3.79673
3.80284
3.79439
3.72297
12.6939
12.8718
12.9709
9.83542
9.43378
9.9225
9.57681
8.13345
5.92392
4.25549
3.26654
2.91557
2.96281
3.07777
3.16354
3.2343
3.31339
3.33357
3.3301
3.27797
12.8267
13.0439
10.2309
7.83488
8.90742
10.1246
9.92022
8.13492
5.03483
3.05961
2.32251
2.35618
2.52951
2.84438
3.15161
3.32888
3.49692
3.55175
3.54574
3.46369
11.3648
9.85002
7.8251
6.54599
7.78124
10.3111
10.6353
9.22357
5.05822
1.65143
1.73477
1.90201
2.15524
2.52812
3.00186
3.45117
3.75229
3.79137
3.76638
3.65113
10.4203
9.26419
8.57569
7.23669
1.29667
1.62155
1.75509
1.9066
2.09282
2.35171
2.77668
3.3547
3.8316
4.08955
4.09609
4.00167
9.88893
9.65802
9.78933
10.021
2.08046
2.18095
2.1754
2.18641
2.22628
2.32396
2.51253
2.87828
3.46632
3.92828
4.11543
4.07533
9.23281
9.29347
9.62766
10.3543
2.47286
2.35361
2.30221
2.24796
2.2176
2.23611
2.30546
2.47105
2.83241
3.36394
3.78139
4.0103
8.13395
7.89526
7.88709
8.96595
2.1865
1.71866
1.78271
1.83126
1.87176
1.91521
1.98855
2.10835
2.32084
2.70873
3.19
3.70505
6.76999
5.73128
4.85191
4.77974
1.26869
2.08311
2.42959
2.09659
0.356279
0.539238
0.812449
1.04217
1.2264
1.37235
1.48093
1.59385
1.74861
1.99805
2.36652
2.98409
5.64709
4.10672
2.96159
1.64763
1.63205
2.17275
2.29574
1.68629
0.580141
0.259294
0.32368
0.48668
0.690317
0.885288
1.05331
1.19152
1.33672
1.53842
1.81891
2.39973
4.72042
3.13757
2.25331
1.73015
1.76423
2.16024
2.25097
1.75414
0.860383
0.341588
0.257647
0.286207
0.38053
0.53064
0.705184
0.872342
1.01939
1.19306
1.41269
1.90516
4.15048
2.84018
2.28459
1.88839
1.90949
2.16934
2.19945
1.79981
1.09362
0.526502
0.294556
0.280665
0.293078
0.352368
0.471495
0.62465
0.779447
0.933308
1.10045
1.50472
3.90197
2.90453
2.46306
2.12809
2.08232
2.20589
2.18171
1.84093
1.27219
0.746119
0.408355
0.297064
0.296662
0.314182
0.366289
0.475362
0.612106
0.744147
0.872206
1.20349
3.75516
3.03693
2.79469
2.48924
2.32706
2.30171
2.20391
1.88742
1.40845
0.945171
0.575421
0.369749
0.318715
0.325019
0.35617
0.411083
0.49781
0.607804
0.715158
0.989156
3.67611
3.12449
3.12303
2.96588
2.74113
2.49056
2.27985
1.96565
1.50905
1.10803
0.755372
0.505861
0.385677
0.361855
0.373124
0.406004
0.4578
0.536524
0.622272
0.853834
3.68757
3.18801
3.29171
3.39808
3.31609
2.86395
2.45516
2.09231
1.61815
1.24107
0.925124
0.670658
0.508786
0.432877
0.4133
0.424879
0.462908
0.521212
0.587558
0.775345
3.71467
3.25547
3.44316
3.69387
3.78879
3.4459
2.82808
2.31714
1.77549
1.38519
1.07565
0.83338
0.655833
0.53341
0.474112
0.473902
0.489087
0.528281
0.588213
0.734704
3.71642
3.26685
3.48487
3.73276
4.03751
3.89726
3.34966
2.71569
2.03443
1.59125
1.2545
0.995628
0.798587
0.650466
0.56573
0.540198
0.541981
0.563857
0.605717
0.703127
3.70538
3.26101
3.47599
3.70595
4.03792
4.06917
3.75202
3.18496
2.40527
1.87718
1.47907
1.16854
0.934437
0.766246
0.664175
0.618195
0.611196
0.618923
0.637675
0.704575
3.6359
3.20791
3.39269
3.5884
3.93391
4.02614
3.98153
3.69094
3.01097
2.45195
1.97393
1.58193
1.27943
1.05794
0.915639
0.827476
0.777896
0.736244
0.723006
0.748654
12.1944
12.5228
12.6659
10.9249
10.0424
9.7587
9.18582
8.10041
6.75159
5.63587
4.69628
4.08826
3.82857
3.69574
3.62784
3.64183
3.67769
3.68849
3.68318
3.61842
12.527
12.7124
12.6557
9.37161
9.05839
9.61187
9.32556
7.91259
5.76217
4.14571
3.17797
2.80205
2.84523
2.96064
3.06293
3.13946
3.22447
3.25387
3.25146
3.20134
12.572
12.7661
9.28596
7.35031
8.59399
9.84732
9.65455
7.90889
4.86361
2.98711
2.28352
2.30123
2.42963
2.70232
3.02662
3.22096
3.39104
3.46899
3.46803
3.39741
10.8549
9.24427
7.20379
6.12566
7.52274
9.98871
10.3157
8.919
4.75916
1.55675
1.66206
1.84566
2.08901
2.43395
2.88609
3.32242
3.65749
3.73123
3.71121
3.60274
9.92444
8.8209
8.28466
6.97563
1.1473
1.50834
1.63066
1.78777
1.98248
2.23661
2.62423
3.18862
3.67095
3.9934
4.04221
3.96197
9.55741
9.36002
9.55686
9.72491
1.95231
2.04623
2.03875
2.04925
2.08528
2.17272
2.34005
2.66515
3.23233
3.76988
4.0653
4.04382
8.98966
9.09313
9.42882
10.0623
2.30858
2.20063
2.15332
2.10631
2.08436
2.1003
2.1579
2.2961
2.59964
3.1228
3.59899
3.90437
7.92158
7.72582
7.74783
8.71298
2.03806
1.61357
1.67048
1.7138
1.75798
1.79836
1.86052
1.96161
2.13625
2.46472
2.92847
3.51346
6.5815
5.60221
4.75689
4.68848
1.17805
1.96807
2.28519
1.96078
0.315683
0.507242
0.765546
0.98079
1.14856
1.28825
1.39788
1.49752
1.62765
1.82924
2.14704
2.7698
5.47246
3.98009
2.85319
1.51308
1.50679
2.04955
2.16053
1.55878
0.508177
0.221724
0.284953
0.440474
0.636338
0.823465
0.983429
1.11998
1.24736
1.41652
1.64841
2.19558
4.55197
3.02137
2.16698
1.60639
1.62073
2.03648
2.11715
1.6273
0.766569
0.290888
0.207777
0.238424
0.334192
0.476753
0.64284
0.804196
0.950002
1.09851
1.28052
1.72914
3.97571
2.69653
2.19205
1.78108
1.76771
2.04586
2.07399
1.67249
0.989581
0.458826
0.243515
0.233862
0.246436
0.302799
0.411675
0.559725
0.715123
0.860337
1.00248
1.36103
3.73399
2.75833
2.33732
2.0164
1.94534
2.07985
2.05683
1.71773
1.16624
0.670466
0.354518
0.249126
0.251064
0.268327
0.318303
0.418389
0.55235
0.685921
0.797926
1.08805
3.60537
2.89299
2.63158
2.34662
2.1785
2.16398
2.07411
1.76346
1.31062
0.870819
0.514552
0.317802
0.272354
0.279457
0.307018
0.358495
0.441676
0.545646
0.643727
0.890109
3.53481
3.00712
2.99268
2.81091
2.54595
2.32354
2.13244
1.83412
1.42109
1.03445
0.690762
0.445091
0.336123
0.311548
0.322358
0.352017
0.400015
0.475888
0.560147
0.769791
3.55061
3.08618
3.19361
3.25831
3.12239
2.64086
2.27394
1.94609
1.5198
1.16785
0.857597
0.608865
0.453802
0.377232
0.357433
0.368454
0.405487
0.470064
0.535897
0.706936
3.58545
3.16569
3.3544
3.61309
3.63423
3.20214
2.58187
2.13134
1.65078
1.29387
1.00675
0.774876
0.601007
0.475288
0.413884
0.414852
0.434904
0.479786
0.537756
0.677399
3.5934
3.18589
3.41719
3.69804
3.96424
3.74639
3.10388
2.46892
1.85761
1.46572
1.16026
0.926141
0.741433
0.587897
0.501379
0.485794
0.490577
0.512278
0.55462
0.649625
3.58792
3.18046
3.40991
3.67052
3.9929
4.02148
3.56821
2.92911
2.182
1.70559
1.35003
1.0714
0.858004
0.691106
0.594321
0.558231
0.556567
0.565241
0.585545
0.649896
3.52862
3.12934
3.33151
3.54819
3.90288
3.99154
3.87425
3.50619
2.80333
2.25747
1.80627
1.43894
1.15943
0.950495
0.819721
0.746529
0.712112
0.67805
0.664403
0.688427
12.0868
12.4204
12.483
10.58
9.71707
9.53016
9.00312
7.93302
6.58136
5.50013
4.58442
3.98236
3.73671
3.62179
3.56608
3.58448
3.62305
3.6322
3.62402
3.55322
12.4416
12.6522
12.169
8.96942
8.7766
9.41502
9.18577
7.7787
5.6097
4.00363
3.06974
2.72136
2.77354
2.89822
3.01965
3.11048
3.20001
3.22863
3.22338
3.16402
12.4192
12.4988
8.62578
7.01189
8.3587
9.68065
9.5231
7.79303
4.71613
2.84245
2.20091
2.22928
2.36527
2.64492
3.00035
3.21172
3.37597
3.45418
3.45204
3.37271
10.5365
8.84919
6.88179
5.88138
7.15289
9.77079
10.0942
8.71055
4.47451
1.44722
1.5613
1.7584
2.01113
2.36933
2.85546
3.30442
3.6555
3.72931
3.70611
3.58587
9.60717
8.57814
8.1765
7.08996
1.12586
1.43674
1.54975
1.7027
1.89392
2.14526
2.51934
3.08688
3.60449
3.96108
4.0439
3.96333
9.36453
9.20795
9.46413
9.55925
1.86241
1.97818
1.97482
1.98547
2.0202
2.101
2.24802
2.52299
3.03637
3.65809
4.06237
4.05532
8.85051
9.00758
9.34571
9.88436
2.19163
2.11587
2.07674
2.03863
2.01583
2.02903
2.07514
2.18702
2.4267
2.88641
3.47214
3.85634
7.80497
7.64638
7.67878
8.5609
1.92871
1.52345
1.58924
1.63792
1.68632
1.72968
1.78529
1.87202
2.01379
2.2731
2.69844
3.36413
6.47277
5.53225
4.67841
4.49862
1.16898
1.87959
2.17869
1.86122
0.279061
0.454843
0.705659
0.920416
1.09372
1.23687
1.35557
1.45044
1.55943
1.71918
1.97841
2.59074
5.38743
3.92584
2.78907
1.43422
1.4405
1.97003
2.07834
1.49857
0.482869
0.194535
0.252169
0.400303
0.596064
0.790716
0.954371
1.09449
1.21213
1.3513
1.53966
2.04052
4.46816
2.9847
2.12519
1.53374
1.54431
1.96113
2.0432
1.57285
0.735052
0.263482
0.174613
0.203387
0.302465
0.449883
0.611863
0.773542
0.924941
1.06456
1.21355
1.6064
3.86328
2.61436
2.14535
1.71454
1.68418
1.97063
2.00932
1.62112
0.947988
0.42577
0.210658
0.2013
0.213945
0.270516
0.379889
0.524812
0.687542
0.840985
0.958569
1.26535
3.61035
2.65997
2.25779
1.94503
1.85835
2.00118
1.99019
1.66646
1.11879
0.633599
0.324375
0.216714
0.218728
0.238033
0.290628
0.387379
0.520514
0.661717
0.767782
1.02135
3.48924
2.77729
2.51006
2.25781
2.08654
2.07644
2.00371
1.71088
1.25962
0.833449
0.483356
0.282678
0.24057
0.249091
0.275163
0.321898
0.403995
0.51599
0.612801
0.833851
3.42371
2.89569
2.85433
2.69644
2.42439
2.21591
2.04871
1.76991
1.37558
0.994758
0.64951
0.402824
0.301145
0.277539
0.286376
0.312343
0.360304
0.436796
0.52296
0.719527
3.43788
2.98097
3.07697
3.13676
2.95802
2.47648
2.16089
1.86196
1.46779
1.12534
0.808863
0.556868
0.409599
0.33427
0.314927
0.325906
0.363658
0.430663
0.501572
0.662442
3.47474
3.06804
3.24214
3.50286
3.48215
2.97314
2.39996
2.00956
1.575
1.23631
0.955764
0.721695
0.551247
0.426171
0.367404
0.368249
0.389673
0.441726
0.503938
0.637326
3.48973
3.10446
3.33577
3.6211
3.85536
3.58774
2.85782
2.27446
1.73638
1.37386
1.09197
0.872737
0.693542
0.541503
0.450101
0.43768
0.446671
0.474493
0.519299
0.613562
3.48659
3.10207
3.33649
3.6033
3.95465
3.98236
3.42318
2.69888
2.00072
1.56838
1.24608
0.99102
0.797135
0.635458
0.535075
0.510108
0.512289
0.525402
0.54937
0.61183
3.43186
3.05469
3.26846
3.4919
3.87627
3.97194
3.79781
3.352
2.6152
2.07931
1.6508
1.30743
1.05749
0.860338
0.737128
0.678712
0.656253
0.634513
0.62079
0.641136
11.9921
12.3201
12.3242
10.3311
9.51807
9.39834
8.89037
7.82701
6.45945
5.38149
4.47155
3.87969
3.64658
3.54779
3.50755
3.53389
3.58479
3.60323
3.59894
3.5341
12.3735
12.6205
11.8918
8.73359
8.63457
9.31412
9.10512
7.70129
5.50145
3.89187
2.97203
2.63305
2.69034
2.82663
2.96069
3.06875
3.1743
3.21602
3.21363
3.15774
12.2775
12.2392
8.2798
6.84092
8.28615
9.59618
9.44872
7.74013
4.61829
2.73028
2.12242
2.15571
2.29004
2.56951
2.93983
3.17498
3.34394
3.43161
3.43169
3.36434
10.3339
8.64282
6.73246
5.73552
7.12
9.64554
9.98496
8.64184
4.44538
1.40014
1.51272
1.71056
1.95451
2.296
2.78343
3.25263
3.63604
3.7292
3.70804
3.58893
9.46536
8.47299
8.07806
6.92046
1.13709
1.43018
1.5395
1.68186
1.85766
2.09298
2.44422
3.00217
3.54693
3.92749
4.04994
3.97478
9.26026
9.12031
9.41782
9.49718
1.83978
1.99064
1.98547
1.99326
2.01731
2.0822
2.20869
2.44775
2.91283
3.55583
4.03776
4.06458
8.775
8.95776
9.31042
9.82764
2.1682
2.1282
2.09296
2.05697
2.01638
2.01985
2.04815
2.13623
2.33788
2.73536
3.35096
3.81229
7.73166
7.59218
7.64229
8.51409
1.89761
1.52024
1.5957
1.64419
1.68388
1.72157
1.76822
1.84236
1.9631
2.18117
2.55278
3.24133
6.40158
5.47367
4.61126
4.41011
1.12128
1.81377
2.12568
1.83494
0.269825
0.442142
0.694584
0.914348
1.08842
1.22689
1.34196
1.4329
1.53231
1.67168
1.89006
2.46757
5.32625
3.87864
2.74317
1.39118
1.40146
1.939
2.06721
1.5029
0.484216
0.187869
0.243681
0.387655
0.588138
0.785768
0.944653
1.08389
1.19838
1.32055
1.48208
1.93915
4.41654
2.95237
2.1011
1.49423
1.50138
1.92819
2.03337
1.57493
0.739872
0.260941
0.15956
0.19067
0.294783
0.444377
0.603276
0.761304
0.909744
1.04482
1.17457
1.53036
3.81283
2.58089
2.12374
1.67719
1.63675
1.93548
1.99991
1.6177
0.95176
0.421753
0.198502
0.187097
0.201087
0.257366
0.367346
0.512658
0.674967
0.826502
0.934452
1.21485
3.56018
2.62243
2.23407
1.91012
1.8067
1.96076
1.96643
1.65278
1.11441
0.625414
0.313167
0.202946
0.204416
0.224337
0.281523
0.376791
0.505701
0.647374
0.75175
0.987584
3.44212
2.73274
2.47275
2.22744
2.03449
2.02699
1.97287
1.68978
1.244
0.818008
0.469201
0.265667
0.225612
0.235787
0.261713
0.305361
0.383882
0.496487
0.594654
0.8024
3.37725
2.85035
2.80584
2.66731
2.36959
2.15506
2.00554
1.73786
1.35218
0.973313
0.628954
0.382632
0.287168
0.262847
0.270204
0.292414
0.33796
0.41776
0.506191
0.693082
3.38949
2.9381
3.02637
3.09854
2.88903
2.39215
2.09942
1.81474
1.43757
1.10307
0.782623
0.529828
0.388622
0.312869
0.293595
0.303036
0.34095
0.417798
0.493899
0.642065
3.42492
3.02499
3.18259
3.45189
3.40084
2.8443
2.30573
1.94102
1.5343
1.20902
0.92584
0.690009
0.521663
0.39783
0.340875
0.34191
0.370882
0.435731
0.498987
0.617302
3.44121
3.06359
3.27862
3.57683
3.77958
3.46413
2.701
2.16503
1.67457
1.32992
1.05542
0.837918
0.663692
0.512298
0.421257
0.419436
0.43677
0.472654
0.512461
0.597843
3.43869
3.06228
3.2829
3.56505
3.917
3.92535
3.29959
2.54622
1.8986
1.4962
1.18904
0.949665
0.765989
0.606833
0.508876
0.496921
0.502202
0.514828
0.536073
0.596432
3.38425
3.01652
3.22562
3.46425
3.84894
3.94662
3.72599
3.21879
2.47926
1.96392
1.55745
1.24152
1.00774
0.816023
0.700755
0.650873
0.627492
0.609981
0.603199
0.623419
11.9887
12.3201
12.3168
10.3054
9.49673
9.40313
8.89557
7.83096
6.45939
5.37686
4.46228
3.86964
3.63885
3.543
3.50583
3.53418
3.59091
3.61388
3.61038
3.54689
12.3696
12.6234
11.9072
8.70779
8.62775
9.33067
9.11854
7.70619
5.50702
3.8924
2.96916
2.62191
2.67733
2.81453
2.95663
3.06878
3.17648
3.22448
3.22306
3.16881
12.2708
12.1925
8.24468
6.81268
8.31641
9.62097
9.46636
7.74141
4.61961
2.73418
2.12262
2.15287
2.27577
2.54555
2.92382
3.17619
3.35019
3.44403
3.44483
3.37603
10.3327
8.63719
6.73215
5.67544
7.2569
9.59561
9.9436
8.59922
4.37738
1.39659
1.50962
1.70572
1.94465
2.27776
2.75894
3.23756
3.62706
3.73781
3.71881
3.60182
9.46396
8.45132
8.03187
6.69907
1.07795
1.41067
1.51877
1.6621
1.83686
2.06978
2.41748
2.97423
3.52461
3.91934
4.05695
3.98439
9.25614
9.10615
9.40575
9.48935
1.85167
1.96698
1.96102
1.96925
1.99373
2.05841
2.18525
2.42437
2.89108
3.54018
4.03477
4.0704
8.77139
8.95339
9.30805
9.82143
2.19457
2.10905
2.07361
2.03847
1.99825
2.0014
2.02944
2.11842
2.32133
2.71993
3.33781
3.81088
7.72172
7.58033
7.63368
8.49498
1.91627
1.51938
1.59054
1.63809
1.67679
1.71404
1.75984
1.83286
1.95253
2.16951
2.54188
3.23596
6.39985
5.47279
4.61544
4.474
1.07686
1.81741
2.13849
1.85079
0.268873
0.453723
0.707473
0.925118
1.09575
1.23086
1.34388
1.43243
1.52924
1.66626
1.8831
2.46128
5.33297
3.88436
2.74821
1.38753
1.40516
1.95302
2.07187
1.49245
0.471402
0.187942
0.247589
0.395675
0.593405
0.78618
0.946514
1.08309
1.19365
1.31317
1.47507
1.93284
4.42607
2.95615
2.10856
1.49519
1.51066
1.94581
2.04176
1.56669
0.725861
0.257347
0.158213
0.189023
0.292684
0.443999
0.60307
0.759234
0.903857
1.03585
1.16704
1.52505
3.82711
2.59346
2.13318
1.68556
1.65119
1.95389
2.01119
1.61547
0.940917
0.415241
0.195148
0.184888
0.199383
0.2571
0.366952
0.509074
0.665518
0.814921
0.926293
1.20866
3.57792
2.63799
2.24847
1.92531
1.82646
1.97987
1.98199
1.65889
1.10935
0.618737
0.307696
0.201441
0.203625
0.223783
0.278688
0.372549
0.498859
0.640655
0.745245
0.980821
3.46017
2.75088
2.49397
2.25539
2.06019
2.04748
1.98918
1.70063
1.24617
0.815354
0.466342
0.266063
0.225244
0.234383
0.259881
0.302948
0.379871
0.492221
0.589328
0.794243
3.39666
2.86789
2.82684
2.70464
2.40312
2.17735
2.02347
1.7506
1.35917
0.975808
0.631449
0.383752
0.285512
0.261361
0.269119
0.291021
0.336372
0.415116
0.501242
0.685784
3.40708
2.95537
3.04558
3.13419
2.93374
2.4182
2.12028
1.82963
1.44782
1.10876
0.788884
0.533028
0.389327
0.312765
0.292934
0.302088
0.339777
0.415139
0.490762
0.637251
3.43845
3.03962
3.20516
3.47861
3.44256
2.87784
2.33164
1.95872
1.54688
1.21825
0.93309
0.697278
0.526708
0.399998
0.341305
0.342114
0.37038
0.434174
0.496874
0.614357
3.44919
3.07056
3.29128
3.58362
3.81177
3.49592
2.73103
2.18701
1.68984
1.34161
1.06464
0.849096
0.671331
0.517627
0.423096
0.420194
0.437068
0.472213
0.511585
0.59724
3.44355
3.06723
3.29167
3.56889
3.92726
3.95556
3.31965
2.56289
1.91599
1.50946
1.20044
0.959641
0.775603
0.614138
0.512338
0.498962
0.503665
0.515617
0.536541
0.595933
3.38174
3.01566
3.22627
3.4629
3.85311
3.96443
3.74993
3.23247
2.49612
1.97679
1.57064
1.25269
1.01848
0.825263
0.707988
0.656585
0.631902
0.613246
0.604762
0.623743
12.0728
12.4081
12.4708
10.5282
9.68022
9.54555
9.01556
7.94114
6.56958
5.48362
4.56552
3.96333
3.72123
3.61114
3.56318
3.58818
3.63896
3.6551
3.64931
3.58301
12.4457
12.6573
12.1734
8.92174
8.78236
9.45635
9.21864
7.7965
5.59453
3.97882
3.05148
2.69881
2.75001
2.87568
3.00395
3.10576
3.21118
3.25267
3.24849
3.19186
12.4096
12.4586
8.57584
6.97391
8.44533
9.74008
9.56801
7.81732
4.68896
2.8057
2.17501
2.20439
2.33523
2.60749
2.96835
3.19772
3.36898
3.46478
3.46781
3.39928
10.5325
8.81743
6.84052
5.75584
7.3812
9.72204
10.058
8.68913
4.43117
1.43272
1.54943
1.74623
1.99261
2.33673
2.81414
3.27953
3.64315
3.74079
3.72195
3.60779
9.59113
8.51091
8.0497
6.74213
1.0835
1.41508
1.53252
1.68526
1.86924
2.11039
2.47104
3.03262
3.56371
3.94019
4.05471
3.98012
9.33165
9.15173
9.42266
9.52411
1.79517
1.94299
1.94301
1.95521
1.98964
2.067
2.20902
2.47481
2.98256
3.61815
4.05561
4.05989
8.82611
8.97009
9.32077
9.85647
2.12263
2.08057
2.04684
2.01356
1.99007
2.00118
2.04345
2.15095
2.38417
2.83514
3.43515
3.84481
7.77119
7.60072
7.63783
8.52664
1.86714
1.51622
1.58132
1.63009
1.67791
1.72205
1.77624
1.85934
1.9957
2.24552
2.66306
3.34241
6.44872
5.48707
4.61693
4.39473
1.08665
1.82855
2.13769
1.83932
0.267299
0.469598
0.723025
0.936149
1.10427
1.24251
1.35691
1.44852
1.55274
1.70587
1.95711
2.56999
5.38385
3.9133
2.77559
1.43493
1.43525
1.96921
2.08889
1.49993
0.468196
0.195934
0.259534
0.413306
0.610361
0.804038
0.96053
1.09198
1.205
1.3383
1.52185
2.02259
4.47811
2.9878
2.13872
1.54355
1.54801
1.96752
2.05375
1.57066
0.72075
0.261742
0.173484
0.205809
0.311343
0.460362
0.619288
0.775369
0.919682
1.05302
1.19856
1.58851
3.89035
2.64578
2.16471
1.73462
1.69568
1.97863
2.01942
1.62046
0.938055
0.41934
0.208158
0.19932
0.21316
0.273159
0.384105
0.527279
0.686779
0.832838
0.944962
1.24799
3.64705
2.69705
2.29344
1.97922
1.87835
2.01214
1.99789
1.66883
1.11195
0.623926
0.319171
0.213755
0.216602
0.23676
0.290259
0.388083
0.51846
0.653816
0.756944
1.00736
3.52796
2.82211
2.56287
2.32158
2.11929
2.09045
2.0104
1.71423
1.25716
0.826394
0.476886
0.278698
0.237622
0.247112
0.273928
0.319266
0.398099
0.507629
0.601729
0.819008
3.46181
2.9359
2.90884
2.78675
2.48177
2.23414
2.05498
1.77272
1.37616
0.992314
0.646284
0.399142
0.296733
0.275474
0.284167
0.308816
0.356211
0.430308
0.512433
0.70556
3.46988
3.01552
3.11304
3.2179
3.0376
2.5045
2.16877
1.86403
1.47095
1.12948
0.811612
0.554823
0.406084
0.330483
0.311609
0.322704
0.360648
0.427182
0.497596
0.6535
3.49673
3.09396
3.27167
3.55785
3.54015
3.01308
2.41226
2.01245
1.58065
1.24474
0.963239
0.725853
0.551807
0.424996
0.366221
0.367169
0.388507
0.440127
0.501567
0.632512
3.50236
3.11502
3.34049
3.62865
3.89198
3.63049
2.87479
2.28057
1.7433
1.384
1.10237
0.883163
0.701173
0.548933
0.453704
0.438896
0.447664
0.474813
0.519129
0.613147
3.49344
3.1087
3.33536
3.60477
3.96311
4.01073
3.45256
2.70859
2.00961
1.57883
1.25843
1.00485
0.811477
0.648052
0.542513
0.514054
0.515132
0.526783
0.550632
0.611188
3.42542
3.05004
3.25736
3.48478
3.87738
3.98925
3.81515
3.3645
2.62764
2.09392
1.6675
1.32606
1.07542
0.87535
0.749259
0.687756
0.662984
0.639957
0.623765
0.641536
12.1801
12.488
12.6293
10.8794
10.0262
9.78351
9.20424
8.11371
6.74009
5.62654
4.69451
4.09378
3.83267
3.70043
3.63166
3.64778
3.6891
3.70634
3.7041
3.64528
12.5242
12.705
12.5808
9.33735
9.08362
9.66671
9.36731
7.94
5.73463
4.1116
3.15817
2.80238
2.84781
2.96436
3.06905
3.14684
3.23476
3.27218
3.27185
3.22679
12.5593
12.7766
9.22657
7.33115
8.66398
9.92106
9.71493
7.94907
4.82078
2.9358
2.24774
2.27244
2.41327
2.69643
3.03079
3.22765
3.39726
3.48421
3.48575
3.42011
10.839
9.1815
7.12823
5.91987
7.50218
9.90007
10.218
8.84137
4.57029
1.53333
1.63866
1.81865
2.06261
2.41597
2.88203
3.31895
3.65421
3.74362
3.72701
3.62275
9.87239
8.71605
8.15678
6.79172
1.11203
1.489
1.6142
1.76867
1.95611
2.20414
2.59032
3.16203
3.65048
3.98511
4.05105
3.97569
9.50079
9.27648
9.48582
9.57531
1.8568
2.01939
2.01298
2.02306
2.05733
2.14119
2.3035
2.6246
3.19262
3.74175
4.06463
4.05072
8.94693
9.03397
9.38118
9.91725
2.18115
2.16513
2.12109
2.07577
2.05019
2.06436
2.1195
2.25599
2.55635
3.07771
3.57329
3.89979
7.88082
7.67315
7.69507
8.59127
1.91046
1.57977
1.64191
1.69055
1.73755
1.77987
1.84271
1.9429
2.11495
2.43597
2.8982
3.50029
6.55353
5.55323
4.68071
4.56487
1.11054
1.89391
2.21134
1.90989
0.30132
0.499539
0.757382
0.974933
1.14652
1.28956
1.39978
1.49732
1.62354
1.81954
2.13255
2.76002
5.46244
3.96166
2.82603
1.50431
1.50435
2.05847
2.17937
1.58268
0.515311
0.220605
0.284366
0.441642
0.641659
0.832974
0.993075
1.12639
1.25045
1.41608
1.6455
2.19329
4.54958
3.00956
2.15971
1.60502
1.62617
2.04643
2.13568
1.64703
0.778712
0.29132
0.206064
0.240732
0.342353
0.487332
0.652312
0.811845
0.955963
1.10247
1.28229
1.72749
3.98534
2.70542
2.1868
1.78562
1.77776
2.05523
2.09073
1.69259
1.00099
0.459618
0.243814
0.231151
0.244345
0.304006
0.416788
0.565996
0.720999
0.86478
1.0034
1.35757
3.75276
2.77207
2.34469
2.03018
1.96072
2.08841
2.06991
1.73796
1.17413
0.670751
0.354831
0.245486
0.247167
0.26557
0.318584
0.420263
0.554394
0.687171
0.797039
1.0835
3.63116
2.91686
2.65875
2.38614
2.20255
2.17189
2.08633
1.78188
1.31784
0.871758
0.51339
0.313302
0.268004
0.276328
0.304713
0.356343
0.439127
0.542409
0.639122
0.883151
3.56281
3.03164
3.0271
2.87308
2.58877
2.33292
2.14423
1.84941
1.42979
1.03721
0.689337
0.440059
0.3304
0.307945
0.319374
0.348679
0.396853
0.470802
0.553807
0.761749
3.57676
3.11177
3.22213
3.31926
3.17971
2.65495
2.2862
1.95822
1.52995
1.17254
0.857971
0.604506
0.447179
0.3718
0.353464
0.364771
0.402907
0.469312
0.53441
0.701923
3.6061
3.18803
3.38061
3.66218
3.68461
3.22023
2.594
2.14154
1.66123
1.29937
1.00875
0.772674
0.596974
0.471339
0.410632
0.412173
0.43378
0.479807
0.537233
0.675697
3.6085
3.20154
3.42959
3.70915
4.00046
3.77787
3.12261
2.4791
1.86683
1.47122
1.16248
0.926477
0.742681
0.587816
0.499458
0.485716
0.490846
0.51268
0.555645
0.649968
3.59745
3.19331
3.42052
3.67958
4.02039
4.06086
3.60274
2.94482
2.19105
1.71037
1.35238
1.07423
0.862488
0.693981
0.595139
0.559366
0.557785
0.566563
0.586956
0.64967
3.52574
3.1311
3.33399
3.55137
3.9238
4.02502
3.89965
3.52551
2.8159
2.26549
1.81189
1.44507
1.16548
0.954718
0.822193
0.749533
0.715644
0.681219
0.665074
0.687533
12.3877
12.6587
12.871
11.3419
10.5013
10.1176
9.46326
8.35331
6.96012
5.81527
4.86831
4.26198
3.98731
3.82876
3.75194
3.76537
3.80077
3.8109
3.8053
3.73851
12.6703
12.831
12.928
9.89414
9.5246
9.98708
9.60899
8.15979
5.93663
4.26902
3.28451
2.93476
2.98044
3.09024
3.16657
3.23007
3.30891
3.3354
3.33494
3.28959
12.772
13.0137
10.17
7.90227
9.01362
10.2091
9.9611
8.16331
5.03618
3.07529
2.33403
2.36439
2.53337
2.84232
3.1351
3.31235
3.48368
3.54731
3.54406
3.46905
11.2765
9.71813
7.68921
6.22515
7.70661
10.1981
10.479
9.07734
4.87122
1.64692
1.73513
1.90275
2.1577
2.54118
3.0172
3.44798
3.73028
3.77782
3.75605
3.65051
10.3301
9.1215
8.4441
6.96081
1.17712
1.59347
1.72465
1.87919
2.07284
2.34431
2.78537
3.35768
3.81511
4.07459
4.08557
3.99612
9.8114
9.55968
9.71085
9.80474
1.95349
2.14004
2.13414
2.14593
2.18841
2.29057
2.49011
2.87715
3.47239
3.92423
4.11106
4.073
9.17959
9.22556
9.57727
10.1321
2.30383
2.30719
2.25807
2.20253
2.18155
2.20305
2.27952
2.45684
2.83583
3.37366
3.78333
4.0138
8.08795
7.84444
7.84745
8.7843
2.03653
1.70106
1.76277
1.81135
1.8546
1.90081
1.97824
2.104
2.32577
2.72133
3.20083
3.71213
6.72802
5.68922
4.82704
4.64494
1.14993
2.00507
2.33496
2.01274
0.329987
0.550502
0.823354
1.05056
1.23227
1.37794
1.48746
1.60208
1.75936
2.01295
2.38436
2.99953
5.61654
4.07205
2.93242
1.62978
1.61774
2.17436
2.31116
1.69236
0.572463
0.2599
0.328222
0.49496
0.700823
0.896379
1.06457
1.20261
1.34802
1.55206
1.8359
2.41719
4.69932
3.10789
2.23692
1.72069
1.7579
2.16288
2.26451
1.76159
0.855101
0.339457
0.257872
0.288863
0.385007
0.536263
0.712474
0.881322
1.02991
1.20489
1.42561
1.91836
4.14186
2.83321
2.27211
1.88863
1.91416
2.17334
2.21083
1.80948
1.08949
0.524221
0.295497
0.279153
0.292115
0.353008
0.475356
0.63164
0.788131
0.942202
1.10856
1.51365
3.90157
2.90454
2.46205
2.14046
2.09581
2.21215
2.1963
1.85398
1.27151
0.746132
0.40945
0.295848
0.296361
0.315637
0.369358
0.479229
0.616633
0.748902
0.876816
1.20975
3.76356
3.05106
2.81261
2.51976
2.34724
2.31006
2.21872
1.903
1.41371
0.948351
0.577032
0.371328
0.320997
0.32694
0.356599
0.411168
0.498069
0.608364
0.716934
0.992557
3.68976
3.14583
3.16163
3.01682
2.77138
2.50087
2.29489
1.98343
1.52049
1.11492
0.76025
0.511786
0.389998
0.362494
0.372719
0.404237
0.456679
0.536062
0.622553
0.854715
3.70683
3.22028
3.34146
3.45517
3.36644
2.87585
2.47072
2.11084
1.63269
1.25094
0.933865
0.679093
0.513243
0.431785
0.410765
0.422639
0.461965
0.522097
0.589271
0.776709
3.7364
3.2901
3.49222
3.75606
3.84961
3.46367
2.84113
2.33336
1.78972
1.39639
1.08514
0.840525
0.658866
0.530934
0.471068
0.471634
0.488619
0.529498
0.590531
0.737867
3.73631
3.29668
3.52073
3.77767
4.09153
3.93824
3.37398
2.72971
2.0456
1.60133
1.26278
1.00014
0.799519
0.6482
0.563222
0.539069
0.541592
0.564693
0.608613
0.70678
3.72187
3.28702
3.5083
3.74592
4.08859
4.12163
3.78526
3.20228
2.41558
1.88536
1.48512
1.17072
0.933811
0.764607
0.661588
0.616911
0.611313
0.619769
0.640207
0.707576
3.64492
3.22349
3.41427
3.61379
3.97659
4.07341
4.01405
3.71145
3.02479
2.46159
1.97869
1.58168
1.27645
1.05418
0.911636
0.82515
0.777529
0.736723
0.7237
0.749117
12.9159
13.2124
13.4802
12.0459
11.1704
10.6872
9.96291
8.79479
7.35323
6.15808
5.1742
4.54348
4.25507
4.08831
4.02605
4.03846
4.06587
4.06966
4.0614
3.98938
13.1921
13.414
13.5909
10.6239
10.1176
10.5189
10.0369
8.51993
6.25078
4.53196
3.51624
3.15334
3.20094
3.3178
3.39791
3.46597
3.53836
3.55203
3.54904
3.49732
13.3466
13.604
11.321
8.67427
9.43701
10.5546
10.3207
8.46778
5.32057
3.28722
2.52659
2.56339
2.75019
3.08686
3.37328
3.56031
3.72652
3.76138
3.74946
3.65675
11.9834
10.4696
8.48299
6.71507
8.00171
10.5563
10.8097
9.37236
5.13575
1.79446
1.88798
2.07466
2.36083
2.78795
3.29735
3.73786
3.9813
3.9896
3.95802
3.82972
11.0212
9.74363
8.87889
7.28796
1.29162
1.72794
1.88249
2.05848
2.27931
2.59461
3.1081
3.69404
4.14721
4.31606
4.30004
4.16668
10.3937
10.0862
10.0619
10.1555
2.07755
2.31677
2.32461
2.35076
2.41281
2.54341
2.79283
3.25829
3.88222
4.27749
4.34329
4.26762
9.68869
9.64778
9.94945
10.472
2.46226
2.50459
2.46519
2.41248
2.40991
2.44142
2.54632
2.77891
3.24008
3.79671
4.16682
4.2936
8.537
8.19584
8.13422
9.07517
2.18761
1.84346
1.92665
1.99105
2.04673
2.10803
2.20362
2.35837