/*--------------------------------*- C++ -*----------------------------------*\
  =========                 |
  \\      /  F ield         | OpenFOAM: The Open Source CFD Toolbox
   \\    /   O peration     | Website:  https://openfoam.org
    \\  /    A nd           | Version:  9
     \\/     M anipulation  |
\*---------------------------------------------------------------------------*/
FoamFile
{
    format      ascii;
    class       volScalarField;
    location    "0.005";
    object      rho.Air;
}
// * * * * * * * * * * * * * * * * * * * * * * * * * * * * * * * * * * * * * //

dimensions      [1 -3 0 0 0 0 0];

internalField   nonuniform List<scalar> 
9720
(
0.0108614
0.0118912
0.0121557
0.0108249
0.00999397
0.00947205
0.00880313
0.00781573
0.00664455
0.00573491
0.00496197
0.00450237
0.00429645
0.00414005
0.00409484
0.00410061
0.00409381
0.00403595
0.00396655
0.0037237
0.011851
0.012931
0.0130523
0.00987211
0.00908189
0.00944297
0.00907819
0.007694
0.0057153
0.00426449
0.00327786
0.00298197
0.00305842
0.0032206
0.00334878
0.00344965
0.00353445
0.00354249
0.00352403
0.00334616
0.0120436
0.0130055
0.0102529
0.00769613
0.00836412
0.00940264
0.00931581
0.00767352
0.00491821
0.00299675
0.0019652
0.00186816
0.00198013
0.00224377
0.00255562
0.00282114
0.00312497
0.00339276
0.00347994
0.00336969
0.0107727
0.00987305
0.00768731
0.00633582
0.00695178
0.00943512
0.00966772
0.00841616
0.00472544
0.000882309
0.000601202
0.000616142
0.000698168
0.000896842
0.001239
0.00167992
0.00210852
0.00251945
0.0029326
0.00302587
0.00991239
0.00896469
0.00813511
0.00679986
0.000642479
0.000138114
0.000149652
0.000172026
0.000208169
0.000271763
0.000397874
0.000616767
0.000920181
0.00130891
0.00177966
0.0023254
0.00929905
0.00920473
0.00912621
0.00919892
0.000232045
8.15993e-05
8.35534e-05
8.87913e-05
9.84416e-05
0.00011472
0.000143856
0.000203161
0.00031971
0.000505247
0.000760957
0.00128096
0.00860156
0.00882997
0.00903558
0.00941039
0.000156527
5.83944e-05
5.83946e-05
5.9579e-05
6.27603e-05
6.85505e-05
7.8535e-05
9.60599e-05
0.000130483
0.000196423
0.000290217
0.000562491
0.00763152
0.00746325
0.00741963
0.00815273
9.49885e-05
3.56372e-05
3.6864e-05
3.90752e-05
4.21334e-05
4.64241e-05
5.28932e-05
6.26475e-05
7.86396e-05
0.00010823
0.000148646
0.000266017
0.00649565
0.00554263
0.00474052
0.00437956
0.00060111
0.00026463
0.000189545
0.000116426
1.05458e-05
1.03859e-05
1.5088e-05
1.99067e-05
2.4571e-05
2.92622e-05
3.42901e-05
4.09089e-05
5.05367e-05
6.66713e-05
8.86269e-05
0.000147284
0.00562712
0.00416543
0.00293834
0.000875349
0.000149077
9.37066e-05
6.58387e-05
4.02595e-05
1.17149e-05
5.13023e-06
5.84584e-06
8.45965e-06
1.25673e-05
1.73526e-05
2.25144e-05
2.83205e-05
3.58323e-05
4.74934e-05
6.34166e-05
0.000107123
0.00488635
0.00321557
0.00195752
0.000599508
0.000159877
9.46879e-05
6.49532e-05
4.13296e-05
1.7235e-05
6.11006e-06
5.83947e-06
6.25631e-06
7.59873e-06
1.01772e-05
1.40987e-05
1.92879e-05
2.5645e-05
3.49511e-05
4.72733e-05
8.32596e-05
0.0044489
0.00294599
0.00182177
0.000610178
0.000181332
9.92853e-05
6.62557e-05
4.35008e-05
2.26757e-05
9.19338e-06
6.32308e-06
6.41906e-06
6.89265e-06
8.11212e-06
1.032e-05
1.38032e-05
1.84148e-05
2.47476e-05
3.32516e-05
6.3194e-05
0.00423718
0.00302726
0.0019251
0.000684535
0.000217111
0.000109233
6.99256e-05
4.67625e-05
2.77066e-05
1.38344e-05
7.88071e-06
6.96383e-06
7.20679e-06
8.22207e-06
1.02545e-05
1.28637e-05
1.59418e-05
2.0055e-05
2.50332e-05
4.8252e-05
0.00406257
0.0031882
0.00217969
0.000872187
0.000281537
0.000127186
7.68574e-05
5.15501e-05
3.28497e-05
1.91501e-05
1.06107e-05
8.22937e-06
8.31585e-06
8.96798e-06
1.05221e-05
1.29449e-05
1.60779e-05
2.0286e-05
2.48936e-05
4.25702e-05
0.00399079
0.00329494
0.00248912
0.00120094
0.000408834
0.000159784
8.89318e-05
5.90231e-05
3.84942e-05
2.48857e-05
1.4676e-05
1.04185e-05
1.0425e-05
1.06927e-05
1.15191e-05
1.34954e-05
1.67193e-05
2.14032e-05
2.60668e-05
4.29382e-05
0.00398062
0.00336583
0.00274058
0.00163001
0.000631725
0.000226303
0.000110114
7.05381e-05
4.60366e-05
3.13479e-05
2.01781e-05
1.37678e-05
1.30302e-05
1.31809e-05
1.37147e-05
1.52326e-05
1.8301e-05
2.33119e-05
2.84398e-05
4.45043e-05
0.00396518
0.0034244
0.00301437
0.00204227
0.000941694
0.000355547
0.000152172
8.98987e-05
5.71643e-05
3.9658e-05
2.70537e-05
1.83597e-05
1.59865e-05
1.61854e-05
1.69163e-05
1.84722e-05
2.13236e-05
2.62791e-05
3.16952e-05
4.74038e-05
0.00390379
0.00342528
0.00325887
0.00243631
0.00132961
0.000556109
0.000231823
0.000126242
7.61941e-05
5.28222e-05
3.73357e-05
2.50619e-05
1.99298e-05
2.01154e-05
2.12806e-05
2.33898e-05
2.6457e-05
3.13815e-05
3.66507e-05
5.2394e-05
0.00383559
0.00340535
0.00335441
0.00284761
0.00179343
0.000825108
0.00034258
0.000175793
0.000102215
7.09404e-05
5.10288e-05
3.42849e-05
2.48922e-05
2.45637e-05
2.574e-05
2.82819e-05
3.18322e-05
3.67375e-05
4.22286e-05
5.85735e-05
0.00361075
0.00324548
0.00326222
0.00296556
0.00234505
0.00136677
0.000653592
0.000322029
0.000175935
0.000123252
9.25214e-05
6.75948e-05
4.9359e-05
4.26806e-05
4.27775e-05
4.42429e-05
4.73407e-05
5.24057e-05
5.85671e-05
7.81301e-05
0.0100738
0.011432
0.0117434
0.0102257
0.00945953
0.008934
0.00830876
0.00740074
0.00630754
0.00546376
0.00469087
0.00420153
0.00396142
0.00377182
0.00366304
0.00364416
0.0036322
0.0035754
0.00349833
0.00321847
0.011423
0.0134586
0.0137854
0.00988661
0.0088868
0.00919396
0.00891133
0.00760853
0.00572267
0.00407664
0.00293706
0.00262201
0.00271558
0.00290719
0.00303248
0.00311155
0.00316793
0.0031598
0.00312007
0.00288823
0.0116926
0.013827
0.0111561
0.00799216
0.00796903
0.00909888
0.00913949
0.00768447
0.00485018
0.00224862
0.00121468
0.00119555
0.00131054
0.00158391
0.00193182
0.00224539
0.0025758
0.00286436
0.00299538
0.00287863
0.0103197
0.00998953
0.00793549
0.00598294
0.0122858
0.0171829
0.0195676
0.018719
0.00511779
0.000138345
0.000158942
0.000196716
0.000263284
0.000392488
0.000620292
0.000949239
0.00133453
0.00173371
0.00216618
0.00233944
0.00945102
0.00886501
0.00769463
0.0109146
8.58655e-05
1.24296e-05
2.48105e-05
3.93257e-05
5.79398e-05
8.70136e-05
0.000141778
0.000248544
0.000424352
0.000673365
0.00100264
0.00145738
0.00876122
0.00896629
0.00884533
0.0173599
6.30058e-06
1.28451e-05
1.9175e-05
2.5441e-05
3.23337e-05
4.09488e-05
5.33904e-05
7.72394e-05
0.000130501
0.000223075
0.000353354
0.000648603
0.00806415
0.00866428
0.00891007
0.0200769
1.25307e-05
1.77142e-05
2.11225e-05
2.45235e-05
2.81222e-05
3.2251e-05
3.76468e-05
4.5686e-05
6.11245e-05
9.28058e-05
0.000137074
0.000266461
0.0071623
0.00737012
0.00745978
0.0193927
1.72784e-05
1.61194e-05
1.81868e-05
2.07301e-05
2.35395e-05
2.68552e-05
3.13399e-05
3.75431e-05
4.68224e-05
6.36038e-05
8.67434e-05
0.00014885
0.00611668
0.00554539
0.00469216
0.00523648
6.89152e-05
4.50236e-06
8.56812e-06
1.16749e-05
3.38153e-06
6.14114e-06
9.63454e-06
1.30593e-05
1.65198e-05
2.02144e-05
2.4166e-05
2.90203e-05
3.56489e-05
4.61019e-05
6.06466e-05
9.86241e-05
0.0053156
0.003959
0.00214177
0.000117158
1.06268e-05
1.06803e-05
1.41318e-05
1.29092e-05
5.6e-06
3.50187e-06
4.24686e-06
6.47588e-06
9.75973e-06
1.36514e-05
1.79731e-05
2.26394e-05
2.83e-05
3.66892e-05
4.80914e-05
7.98052e-05
0.00458244
0.00282752
0.00114255
0.000135497
2.18369e-05
1.69593e-05
1.78392e-05
1.52797e-05
8.60445e-06
4.179e-06
4.29371e-06
4.8861e-06
6.33922e-06
8.8968e-06
1.25002e-05
1.6895e-05
2.19882e-05
2.92372e-05
3.87041e-05
6.63653e-05
0.00413059
0.00259631
0.00111822
0.000170871
3.55779e-05
2.35047e-05
2.16593e-05
1.8011e-05
1.18368e-05
6.17782e-06
4.82164e-06
5.07684e-06
5.77929e-06
7.05823e-06
9.19911e-06
1.22933e-05
1.64986e-05
2.23442e-05
2.96859e-05
5.35569e-05
0.00389731
0.00271388
0.00124028
0.00023448
5.4015e-05
3.08351e-05
2.57044e-05
2.10391e-05
1.52067e-05
9.22267e-06
6.13526e-06
5.75491e-06
6.05047e-06
7.05408e-06
8.81697e-06
1.15084e-05
1.47039e-05
1.85617e-05
2.30311e-05
4.2235e-05
0.00369203
0.00292264
0.00153309
0.000362147
8.38413e-05
4.01827e-05
3.03805e-05
2.46128e-05
1.88316e-05
1.29242e-05
8.41265e-06
6.9765e-06
7.02662e-06
7.58561e-06
9.12224e-06
1.16854e-05
1.48183e-05
1.86551e-05
2.27441e-05
3.79318e-05
0.00356116
0.00301467
0.00189273
0.000592386
0.000141289
5.40483e-05
3.65447e-05
2.94535e-05
2.28294e-05
1.70993e-05
1.16478e-05
8.94387e-06
8.83614e-06
9.1678e-06
1.02272e-05
1.225e-05
1.52802e-05
1.94338e-05
2.35999e-05
3.84682e-05
0.00352016
0.00304972
0.00218916
0.000919832
0.000254143
8.15474e-05
4.59166e-05
3.62332e-05
2.78466e-05
2.17107e-05
1.58434e-05
1.16435e-05
1.14612e-05
1.17479e-05
1.23874e-05
1.38612e-05
1.65892e-05
2.08548e-05
2.55128e-05
4.02815e-05
0.00349692
0.00306942
0.00248555
0.00129468
0.000435686
0.000141569
6.46128e-05
4.66673e-05
3.48207e-05
2.74169e-05
2.09492e-05
1.54874e-05
1.44796e-05
1.47394e-05
1.54028e-05
1.67443e-05
1.9115e-05
2.32935e-05
2.85274e-05
4.33392e-05
0.00343279
0.00304473
0.00274915
0.0016821
0.000688378
0.000242799
0.000102717
6.6048e-05
4.61888e-05
3.61334e-05
2.83554e-05
2.12252e-05
1.81564e-05
1.8309e-05
1.93055e-05
2.09743e-05
2.34795e-05
2.81077e-05
3.35223e-05
4.77243e-05
0.00335683
0.00299775
0.0028795
0.00210497
0.00101608
0.000381193
0.000155139
9.30054e-05
6.23054e-05
4.82701e-05
3.81643e-05
2.8595e-05
2.24128e-05
2.2259e-05
2.32668e-05
2.54277e-05
2.87003e-05
3.36797e-05
3.86937e-05
5.25238e-05
0.00310287
0.00278701
0.00277811
0.00229707
0.0014781
0.000694577
0.000305819
0.000168295
0.000106957
8.37279e-05
6.80169e-05
5.3508e-05
4.15648e-05
3.71723e-05
3.77263e-05
3.96465e-05
4.29847e-05
4.75743e-05
5.24076e-05
6.82431e-05
0.00801203
0.00982855
0.0101587
0.00878266
0.00798469
0.0073837
0.00679433
0.00612196
0.00531537
0.00462178
0.00393623
0.00346847
0.00321687
0.00301939
0.00287855
0.00284533
0.00284527
0.00281802
0.00277059
0.00253152
0.00985505
0.0147875
0.0153848
0.0102457
0.00878886
0.00930024
0.00917449
0.0080404
0.00598856
0.00341806
0.00219883
0.00188813
0.00200046
0.00219647
0.00230063
0.00236636
0.00242998
0.00242892
0.00239168
0.00212225
0.0101357
0.0155826
0.0128213
0.00967502
0.00952378
0.0106358
0.0114148
0.00949764
0.00484985
0.000539568
0.000206454
0.000242934
0.000345242
0.000543007
0.000812294
0.0011066
0.00142807
0.00172792
0.00192322
0.00182035
0.0089266
0.0103633
0.00930062
0.0198468
0.0104381
0.011192
0.0242764
0.000826678
3.09347e-05
3.69687e-06
8.64918e-06
1.5624e-05
2.74177e-05
5.27644e-05
0.000107374
0.000206745
0.000366618
0.000585099
0.000869595
0.00107847
0.00798935
0.00855328
0.00858419
0.000449029
1.40331e-06
5.60985e-06
6.82134e-06
8.56046e-06
1.11188e-05
1.52605e-05
2.30872e-05
4.01245e-05
7.53293e-05
0.000139306
0.000239133
0.000429733
0.00714387
0.0090989
0.0112557
0.0262251
7.03678e-06
1.23306e-05
1.36175e-05
1.49142e-05
1.6247e-05
1.79288e-05
2.04998e-05
2.51646e-05
3.52751e-05
5.32091e-05
7.84413e-05
0.000145998
0.00647343
0.00902523
0.0116834
0.0270838
1.42374e-05
2.07179e-05
2.10878e-05
2.14777e-05
2.20129e-05
2.27744e-05
2.41125e-05
2.68927e-05
3.25213e-05
4.29022e-05
5.44245e-05
8.08834e-05
0.00580267
0.00793813
0.00962308
0.000608066
2.02872e-05
1.94355e-05
1.96716e-05
2.02695e-05
2.13085e-05
2.29712e-05
2.56558e-05
2.94484e-05
3.47682e-05
4.3615e-05
5.53447e-05
8.0899e-05
0.00502644
0.00591606
0.00526072
3.56154e-05
1.22574e-06
6.13648e-06
1.23142e-05
1.71266e-05
4.07153e-06
7.54755e-06
1.11835e-05
1.42705e-05
1.70104e-05
1.98106e-05
2.27738e-05
2.62962e-05
3.11588e-05
3.86401e-05
4.90174e-05
7.38575e-05
0.00436174
0.00320245
0.000458734
2.60514e-06
4.54902e-06
1.04263e-05
1.73566e-05
1.62459e-05
6.80135e-06
3.85451e-06
4.72394e-06
7.24244e-06
1.06955e-05
1.43975e-05
1.82047e-05
2.22543e-05
2.68861e-05
3.35913e-05
4.25303e-05
6.69589e-05
0.0037284
0.0019696
0.000170812
6.11921e-06
5.43595e-06
1.14294e-05
1.76474e-05
1.64517e-05
9.75944e-06
4.53331e-06
4.5192e-06
5.06963e-06
6.70369e-06
9.46965e-06
1.32235e-05
1.75247e-05
2.22881e-05
2.83075e-05
3.6032e-05
5.90057e-05
0.00331347
0.00183314
0.000205002
1.15221e-05
6.79585e-06
1.24668e-05
1.799e-05
1.69124e-05
1.24107e-05
6.74013e-06
5.01376e-06
5.23376e-06
5.95739e-06
7.3577e-06
9.64344e-06
1.30376e-05
1.74832e-05
2.31264e-05
2.9611e-05
5.0176e-05
0.00308807
0.00197656
0.000299513
2.14376e-05
8.92529e-06
1.35671e-05
1.84636e-05
1.77858e-05
1.48262e-05
9.85673e-06
6.52438e-06
5.92298e-06
6.2846e-06
7.32199e-06
9.12171e-06
1.1824e-05
1.52463e-05
1.94404e-05
2.3761e-05
4.08954e-05
0.00289471
0.00218971
0.000492565
4.41051e-05
1.26116e-05
1.50383e-05
1.91307e-05
1.93249e-05
1.73147e-05
1.32249e-05
9.03989e-06
7.30676e-06
7.33079e-06
7.86889e-06
9.35418e-06
1.19585e-05
1.52909e-05
1.92916e-05
2.32288e-05
3.69625e-05
0.00275209
0.00227441
0.000768373
9.63332e-05
2.01818e-05
1.74467e-05
2.03673e-05
2.18963e-05
2.00168e-05
1.66281e-05
1.23832e-05
9.4819e-06
9.23684e-06
9.45359e-06
1.04399e-05
1.24777e-05
1.559e-05
1.9901e-05
2.41299e-05
3.76244e-05
0.00271249
0.00231997
0.00106397
0.00019395
3.77484e-05
2.19962e-05
2.31183e-05
2.55373e-05
2.32615e-05
2.02267e-05
1.62805e-05
1.25935e-05
1.19613e-05
1.21436e-05
1.26515e-05
1.40506e-05
1.67878e-05
2.13135e-05
2.6009e-05
3.95914e-05
0.00271059
0.00236051
0.00137569
0.000350999
7.48654e-05
3.24973e-05
2.86771e-05
3.06677e-05
2.77896e-05
2.44549e-05
2.06949e-05
1.66783e-05
1.51882e-05
1.53614e-05
1.58326e-05
1.70277e-05
1.94352e-05
2.37357e-05
2.88184e-05
4.27093e-05
0.00268615
0.00234654
0.00166767
0.000566894
0.00014221
5.19755e-05
3.89535e-05
3.92907e-05
3.48864e-05
3.07268e-05
2.63826e-05
2.1919e-05
1.90273e-05
1.90729e-05
1.9928e-05
2.15758e-05
2.39563e-05
2.81488e-05
3.34388e-05
4.68143e-05
0.00264448
0.00230179
0.00186827
0.000849278
0.000245624
7.97122e-05
5.08152e-05
5.07241e-05
4.48877e-05
3.92914e-05
3.37881e-05
2.79603e-05
2.29972e-05
2.27933e-05
2.38752e-05
2.6027e-05
2.90062e-05
3.36003e-05
3.84358e-05
5.1067e-05
0.0024404
0.0020547
0.00177569
0.00107745
0.000446294
0.000154584
8.11755e-05
7.72862e-05
6.93765e-05
6.29734e-05
5.57774e-05
4.74081e-05
3.89534e-05
3.56264e-05
3.64022e-05
3.85777e-05
4.20007e-05
4.63149e-05
5.06428e-05
6.43813e-05
0.00477004
0.00574131
0.00592412
0.00517944
0.00453838
0.00402055
0.00361237
0.00314477
0.00286879
0.00271036
0.00244287
0.00222881
0.00212926
0.0020421
0.00203722
0.00205948
0.00212337
0.00216311
0.00216222
0.0020505
0.00580821
0.0146831
0.0154466
0.0106273
0.0086183
0.00822678
0.00718846
0.0056238
0.00432781
0.00257661
0.00163464
0.00119416
0.000964943
0.001032
0.00118606
0.00130786
0.00143671
0.0015333
0.00155977
0.00141849
0.00596633
0.0158773
0.0147948
0.00871984
0.00850431
0.00930716
0.00973115
0.00674053
0.00266767
9.48524e-05
1.72083e-05
2.09392e-05
3.28222e-05
6.4416e-05
0.000129254
0.000236005
0.000379559
0.000541689
0.000706494
0.000703914
0.0053725
0.0113774
0.00920501
0.000358173
0.000893196
0.00248188
0.0281522
0.000365909
8.72401e-06
2.88553e-06
4.17009e-06
5.51993e-06
7.15897e-06
9.75407e-06
1.48175e-05
2.44314e-05
4.42189e-05
8.15464e-05
0.000141517
0.000229122
0.0045979
0.00905254
0.00931463
0.000721406
2.90926e-06
8.01969e-06
9.00754e-06
1.03218e-05
1.19418e-05
1.38008e-05
1.63069e-05
1.99122e-05
2.40348e-05
2.99933e-05
3.98342e-05
6.92167e-05
0.00393073
0.00812982
0.00977023
0.0132682
1.11278e-05
1.70174e-05
1.82073e-05
1.94374e-05
2.06071e-05
2.17092e-05
2.28943e-05
2.48197e-05
2.8392e-05
3.36245e-05
3.83319e-05
4.69286e-05
0.00347256
0.00689081
0.0095998
0.0292916
2.06237e-05
2.73768e-05
2.72479e-05
2.72385e-05
2.74175e-05
2.78772e-05
2.87575e-05
3.05734e-05
3.4097e-05
4.02934e-05
4.65202e-05
5.55524e-05
0.00296488
0.00526169
0.00664731
0.000486583
2.75585e-05
2.45131e-05
2.48298e-05
2.52119e-05
2.59178e-05
2.71142e-05
2.93925e-05
3.30457e-05
3.81648e-05
4.58661e-05
5.61018e-05
7.55056e-05
0.00265941
0.00402234
0.00287871
4.06601e-06
2.27042e-06
8.97481e-06
1.70052e-05
2.25399e-05
4.8872e-06
8.87051e-06
1.35013e-05
1.72775e-05
2.03631e-05
2.33051e-05
2.64413e-05
2.99345e-05
3.45427e-05
4.1356e-05
5.08412e-05
7.27945e-05
0.00254549
0.00229773
0.000111393
2.08742e-06
6.09374e-06
1.34537e-05
2.19667e-05
2.01271e-05
8.23548e-06
4.26978e-06
5.32196e-06
8.4e-06
1.26839e-05
1.71652e-05
2.13964e-05
2.57091e-05
3.03042e-05
3.65384e-05
4.482e-05
6.78126e-05
0.00229075
0.00142337
2.0594e-05
3.00555e-06
6.85289e-06
1.44272e-05
2.18887e-05
2.03465e-05
1.19101e-05
5.15414e-06
4.74702e-06
5.40877e-06
7.57029e-06
1.11268e-05
1.54767e-05
2.03116e-05
2.55075e-05
3.14836e-05
3.85614e-05
6.01734e-05
0.00209904
0.00114829
2.18965e-05
3.99472e-06
7.86394e-06
1.54137e-05
2.19199e-05
2.06024e-05
1.49206e-05
7.78463e-06
5.37899e-06
5.61067e-06
6.38235e-06
8.00641e-06
1.0913e-05
1.50981e-05
2.0427e-05
2.67177e-05
3.27023e-05
5.17609e-05
0.00201298
0.000925748
2.83495e-05
5.22337e-06
9.08592e-06
1.62831e-05
2.20871e-05
2.11891e-05
1.74339e-05
1.14733e-05
7.34928e-06
6.35298e-06
6.72067e-06
7.91155e-06
9.88549e-06
1.28104e-05
1.69166e-05
2.20733e-05
2.6761e-05
4.30531e-05
0.00193163
0.000984457
5.25191e-05
7.23228e-06
1.04581e-05
1.70739e-05
2.24495e-05
2.23995e-05
1.99278e-05
1.52839e-05
1.03937e-05
7.87986e-06
7.88284e-06
8.47648e-06
1.00419e-05
1.26039e-05
1.60749e-05
2.06708e-05
2.48244e-05
3.7883e-05
0.00192778
0.00113138
0.000112187
1.13773e-05
1.23699e-05
1.80121e-05
2.31978e-05
2.46286e-05
2.26238e-05
1.88329e-05
1.40322e-05
1.04066e-05
9.88764e-06
1.00586e-05
1.09474e-05
1.29397e-05
1.62882e-05
2.10662e-05
2.55364e-05
3.83321e-05
0.00195184
0.00125852
0.000216757
1.97701e-05
1.52506e-05
1.95037e-05
2.4851e-05
2.79552e-05
2.56811e-05
2.24205e-05
1.80888e-05
1.40076e-05
1.26774e-05
1.27198e-05
1.30368e-05
1.43583e-05
1.72838e-05
2.21538e-05
2.71907e-05
4.01173e-05
0.00201543
0.00139761
0.000358661
3.82087e-05
1.90649e-05
2.24552e-05
2.79254e-05
3.2555e-05
2.97572e-05
2.63657e-05
2.25338e-05
1.85815e-05
1.61835e-05
1.61318e-05
1.63891e-05
1.73924e-05
1.98132e-05
2.44688e-05
2.9737e-05
4.30365e-05
0.00206943
0.00149858
0.000523419
7.46271e-05
2.54412e-05
2.73341e-05
3.31098e-05
3.94286e-05
3.58596e-05
3.18998e-05
2.78082e-05
2.39832e-05
2.043e-05
2.02649e-05
2.08558e-05
2.2137e-05
2.45267e-05
2.87329e-05
3.39927e-05
4.69638e-05
0.00207585
0.00152689
0.000700988
0.000134935
3.638e-05
3.17873e-05
3.85246e-05
4.8467e-05
4.43992e-05
3.95006e-05
3.43717e-05
2.93158e-05
2.43259e-05
2.38362e-05
2.47498e-05
2.67533e-05
2.96393e-05
3.40868e-05
3.89747e-05
5.0946e-05
0.00199104
0.00140274
0.000709739
0.000232638
6.90618e-05
4.0954e-05
4.75768e-05
6.60837e-05
6.44593e-05
6.06782e-05
5.43269e-05
4.67846e-05
3.89956e-05
3.53161e-05
3.60157e-05
3.82555e-05
4.18084e-05
4.63009e-05
5.04073e-05
6.25815e-05
0.00337553
0.00373717
0.00391459
0.00348452
0.00280111
0.00226996
0.00197788
0.00173183
0.00159436
0.0017355
0.00173738
0.00168057
0.00168133
0.00168989
0.0017242
0.00178398
0.00187644
0.0019605
0.00198942
0.00191765
0.00377471
0.00234661
0.00262614
0.00252787
0.00246649
0.0025973
0.00247714
0.00191808
0.00139432
0.000516716
0.000175374
0.000455896
0.000529433
0.000608269
0.000770021
0.000911349
0.00105214
0.00117714
0.00125061
0.00117861
0.00392767
0.00265677
0.00467658
0.0050739
0.00675346
0.00695343
0.00731286
0.00497966
0.00143413
4.74579e-05
1.30618e-05
8.41625e-06
9.28965e-06
1.39659e-05
3.2379e-05
7.66748e-05
0.000143577
0.000216583
0.000295176
0.000346549
0.0036416
0.00240176
0.00488255
0.00148992
0.00224804
2.04612e-09
0.021819
0.000412769
2.85669e-06
3.17679e-06
4.63014e-06
6.10106e-06
7.62011e-06
9.409e-06
1.15552e-05
1.37384e-05
1.61223e-05
2.03547e-05
2.78181e-05
5.4712e-05
0.00291118
0.0024913
0.00572042
9.59305e-05
3.74889e-06
9.53002e-06
1.07453e-05
1.22651e-05
1.39009e-05
1.56336e-05
1.76797e-05
2.02975e-05
2.22796e-05
2.42275e-05
2.65199e-05
3.35435e-05
0.00229339
0.00265951
0.00704004
0.000316289
1.44057e-05
2.07416e-05
2.21556e-05
2.35844e-05
2.48725e-05
2.59718e-05
2.69615e-05
2.82479e-05
3.09496e-05
3.50721e-05
3.65781e-05
3.97045e-05
0.00198461
0.00248734
0.00744178
0.0241588
2.62462e-05
3.31859e-05
3.30748e-05
3.29105e-05
3.29959e-05
3.32934e-05
3.39474e-05
3.54536e-05
3.8395e-05
4.36393e-05
4.99352e-05
5.62988e-05
0.0017353
0.00188823
0.0049986
0.000303137
3.38736e-05
2.93447e-05
2.98389e-05
3.02685e-05
3.09191e-05
3.20305e-05
3.41938e-05
3.78843e-05
4.30483e-05
5.05259e-05
6.03238e-05
7.94429e-05
0.00159597
0.00145127
0.00165304
3.12896e-06
2.76004e-06
1.08983e-05
2.01723e-05
2.62534e-05
5.46261e-06
1.02671e-05
1.58786e-05
2.04628e-05
2.40583e-05
2.73127e-05
3.07251e-05
3.43932e-05
3.90761e-05
4.57748e-05
5.49097e-05
7.6352e-05
0.00172833
0.000535957
5.66081e-05
2.53019e-06
7.4966e-06
1.61532e-05
2.58033e-05
2.33972e-05
9.30945e-06
4.70355e-06
6.05406e-06
9.73084e-06
1.49779e-05
2.03128e-05
2.49736e-05
2.96673e-05
3.45131e-05
4.06341e-05
4.86641e-05
7.09787e-05
0.00172364
0.000170498
1.43288e-05
3.63019e-06
8.43087e-06
1.72963e-05
2.58417e-05
2.37646e-05
1.35761e-05
5.79726e-06
4.82714e-06
5.73977e-06
8.6369e-06
1.30216e-05
1.79487e-05
2.32792e-05
2.89884e-05
3.53427e-05
4.22207e-05
6.30008e-05
0.00165706
0.000454534
7.36996e-06
4.72956e-06
9.58368e-06
1.84615e-05
2.59107e-05
2.41161e-05
1.70939e-05
8.68526e-06
5.64469e-06
5.94543e-06
6.8131e-06
8.66593e-06
1.2236e-05
1.72971e-05
2.34635e-05
3.03348e-05
3.63546e-05
5.48143e-05
0.00165002
0.000524443
7.87884e-06
5.88255e-06
1.08066e-05
1.94924e-05
2.60578e-05
2.4662e-05
1.99001e-05
1.27915e-05
7.95692e-06
6.68954e-06
7.04083e-06
8.35603e-06
1.07187e-05
1.42324e-05
1.90968e-05
2.50576e-05
3.02037e-05
4.64407e-05
0.00164816
0.00059519
1.18127e-05
7.23754e-06
1.21271e-05
2.03105e-05
2.6353e-05
2.56687e-05
2.25252e-05
1.7035e-05
1.13385e-05
8.1955e-06
8.1889e-06
8.95614e-06
1.0775e-05
1.32102e-05
1.67519e-05
2.19031e-05
2.66002e-05
3.96545e-05
0.00166888
0.000753023
2.94896e-05
8.78747e-06
1.36479e-05
2.10005e-05
2.69189e-05
2.76408e-05
2.53249e-05
2.08891e-05
1.52174e-05
1.09238e-05
1.0386e-05
1.05804e-05
1.14415e-05
1.33539e-05
1.67518e-05
2.21695e-05
2.72368e-05
3.98845e-05
0.00171889
0.000894
7.35955e-05
1.03832e-05
1.55017e-05
2.20344e-05
2.82127e-05
3.08395e-05
2.84045e-05
2.47447e-05
1.95317e-05
1.48362e-05
1.32809e-05
1.2996e-05
1.32178e-05
1.44204e-05
1.75261e-05
2.33902e-05
2.90712e-05
4.14382e-05
0.0018041
0.00103556
0.000140226
1.23997e-05
1.70248e-05
2.42086e-05
3.07176e-05
3.53207e-05
3.24229e-05
2.87837e-05
2.42896e-05
1.9846e-05
1.69891e-05
1.62082e-05
1.63694e-05
1.73015e-05
2.03083e-05
2.61455e-05
3.17521e-05
4.39607e-05
0.00188472
0.00116098
0.000214706
1.66247e-05
1.89556e-05
2.74212e-05
3.51198e-05
4.16917e-05
3.81739e-05
3.40446e-05
2.96562e-05
2.55673e-05
2.15283e-05
2.05755e-05
2.11175e-05
2.26729e-05
2.581e-05
3.06183e-05
3.55333e-05
4.75835e-05
0.00192117
0.00123422
0.000298184
2.43269e-05
2.12421e-05
2.88836e-05
4.03337e-05
5.0284e-05
4.60735e-05
4.10511e-05
3.57524e-05
3.08543e-05
2.5533e-05
2.44143e-05
2.54008e-05
2.77556e-05
3.10204e-05
3.52847e-05
3.9869e-05
5.15302e-05
0.00186176
0.00116857
0.00035743
5.35882e-05
2.86382e-05
3.25314e-05
4.60719e-05
6.72809e-05
6.52862e-05
6.11883e-05
5.46004e-05
4.74755e-05
3.96591e-05
3.53886e-05
3.61774e-05
3.85339e-05
4.18789e-05
4.62879e-05
5.07076e-05
6.27975e-05
0.00337225
0.00374226
0.00392012
0.00348632
0.00278846
0.00226076
0.00197023
0.00172527
0.00158706
0.00172761
0.00173152
0.00167593
0.00168108
0.00169127
0.00172645
0.00178781
0.00188236
0.00196862
0.00199681
0.00192353
0.0037713
0.00232239
0.00262724
0.00257352
0.00243992
0.00255212
0.00244446
0.00191078
0.00136596
0.000502899
0.000168163
0.000456593
0.000532963
0.000614822
0.000779012
0.000920133
0.0010592
0.0011824
0.00125391
0.00118061
0.00392632
0.00264881
0.0046875
0.00506217
0.00695526
0.00691528
0.00720645
0.00495084
0.00135034
4.64815e-05
1.332e-05
8.52937e-06
9.36298e-06
1.39771e-05
3.26113e-05
7.7857e-05
0.000145593
0.000218032
0.000295352
0.000345681
0.00364768
0.00240782
0.00493915
0.00158043
0.00615341
0.000144908
0.0170858
0.000217638
2.38995e-06
3.16233e-06
4.65261e-06
6.18283e-06
7.74348e-06
9.53284e-06
1.17159e-05
1.39615e-05
1.63573e-05
2.05929e-05
2.80164e-05
5.47731e-05
0.00292235
0.00256712
0.00581063
1.50446e-06
3.68007e-06
9.57504e-06
1.08262e-05
1.24098e-05
1.41135e-05
1.59079e-05
1.80495e-05
2.07284e-05
2.27385e-05
2.4693e-05
2.69713e-05
3.3938e-05
0.0023
0.00272356
0.00717797
0.00302006
1.54885e-05
2.11883e-05
2.26786e-05
2.41681e-05
2.54674e-05
2.65669e-05
2.76113e-05
2.90389e-05
3.19618e-05
3.62274e-05
3.75659e-05
4.04864e-05
0.0019906
0.00251421
0.0075002
0.0272448
2.91842e-05
3.43867e-05
3.42754e-05
3.40863e-05
3.41416e-05
3.43931e-05
3.50343e-05
3.6635e-05
3.97781e-05
4.53098e-05
5.18994e-05
5.80921e-05
0.00173949
0.00191264
0.00503348
0.000737823
3.81259e-05
3.07636e-05
3.11332e-05
3.15512e-05
3.2231e-05
3.34326e-05
3.57599e-05
3.95581e-05
4.48279e-05
5.25134e-05
6.28048e-05
8.29026e-05
0.00160093
0.00146523
0.00166723
3.39529e-06
3.22465e-06
1.28919e-05
2.33799e-05
2.98874e-05
6.24265e-06
1.11236e-05
1.69973e-05
2.17301e-05
2.54249e-05
2.87708e-05
3.22643e-05
3.60071e-05
4.07918e-05
4.76523e-05
5.7145e-05
7.97364e-05
0.00173522
0.000529547
4.90751e-05
2.77689e-06
8.17208e-06
1.74641e-05
2.75645e-05
2.47104e-05
9.53831e-06
4.96534e-06
6.53458e-06
1.05487e-05
1.59783e-05
2.13884e-05
2.62424e-05
3.10508e-05
3.59743e-05
4.2214e-05
5.05977e-05
7.41674e-05
0.00172405
0.000164225
1.14852e-05
3.95326e-06
9.13583e-06
1.8598e-05
2.75352e-05
2.5062e-05
1.39919e-05
6.02428e-06
5.00067e-06
5.98286e-06
9.066e-06
1.37211e-05
1.88523e-05
2.43432e-05
3.01691e-05
3.66434e-05
4.38657e-05
6.58644e-05
0.00165737
0.000404905
7.04181e-06
5.13193e-06
1.03451e-05
1.97726e-05
2.75443e-05
2.54254e-05
1.77361e-05
8.95464e-06
5.8217e-06
6.13942e-06
7.0707e-06
9.12074e-06
1.28804e-05
1.80715e-05
2.43145e-05
3.13674e-05
3.77603e-05
5.73003e-05
0.00165554
0.00049805
7.70693e-06
6.36133e-06
1.16559e-05
2.08248e-05
2.76625e-05
2.60168e-05
2.07373e-05
1.32009e-05
8.16303e-06
6.91824e-06
7.32053e-06
8.70311e-06
1.11499e-05
1.48977e-05
1.99772e-05
2.62133e-05
3.15689e-05
4.86403e-05
0.00165252
0.000576983
1.15496e-05
7.75466e-06
1.30718e-05
2.16952e-05
2.79427e-05
2.70288e-05
2.35293e-05
1.76644e-05
1.17067e-05
8.51758e-06
8.51421e-06
9.29057e-06
1.12196e-05
1.38273e-05
1.75502e-05
2.29675e-05
2.78782e-05
4.1558e-05
0.001673
0.000737408
2.79297e-05
9.3501e-06
1.46726e-05
2.2433e-05
2.85054e-05
2.89689e-05
2.64637e-05
2.17417e-05
1.58155e-05
1.13115e-05
1.07356e-05
1.09697e-05
1.19413e-05
1.39483e-05
1.75189e-05
2.31982e-05
2.85163e-05
4.17942e-05
0.00172195
0.000876464
6.91074e-05
1.09313e-05
1.65056e-05
2.34935e-05
2.98259e-05
3.22427e-05
2.9673e-05
2.57724e-05
2.03423e-05
1.53894e-05
1.38167e-05
1.35164e-05
1.37545e-05
1.49953e-05
1.82561e-05
2.43759e-05
3.03706e-05
4.33186e-05
0.00180571
0.00101377
0.000132523
1.28376e-05
1.79014e-05
2.5716e-05
3.24682e-05
3.69267e-05
3.38744e-05
3.00366e-05
2.53128e-05
2.07278e-05
1.78261e-05
1.68726e-05
1.70082e-05
1.79392e-05
2.10611e-05
2.71847e-05
3.31163e-05
4.57832e-05
0.00188318
0.00113646
0.000203257
1.67519e-05
1.9617e-05
2.87518e-05
3.70406e-05
4.37193e-05
3.99657e-05
3.56275e-05
3.1036e-05
2.68918e-05
2.26799e-05
2.14558e-05
2.19385e-05
2.34314e-05
2.66858e-05
3.17472e-05
3.69336e-05
4.94186e-05
0.0019152
0.00121161
0.000280645
2.37992e-05
2.17882e-05
3.00455e-05
4.21721e-05
5.25626e-05
4.82983e-05
4.30617e-05
3.755e-05
3.24668e-05
2.69753e-05
2.54324e-05
2.63703e-05
2.87073e-05
3.20558e-05
3.65116e-05
4.1328e-05
5.33389e-05
0.00185389
0.00114939
0.000339723
5.06733e-05
2.87676e-05
3.32875e-05
4.76858e-05
6.97029e-05
6.78683e-05
6.36883e-05
5.69803e-05
4.96299e-05
4.14786e-05
3.67254e-05
3.74867e-05
3.98532e-05
4.32402e-05
4.77338e-05
5.22605e-05
6.45481e-05
0.00474814
0.00575057
0.00594968
0.00518477
0.00449513
0.00396279
0.00355135
0.00304983
0.0027759
0.00267067
0.0024206
0.00221771
0.00212477
0.00204618
0.00204461
0.00206981
0.00213738
0.00218005
0.00217859
0.00206344
0.00579206
0.0147027
0.0158172
0.0107926
0.00836254
0.00784139
0.00691822
0.00545785
0.00411186
0.00247041
0.0016402
0.00127213
0.00102021
0.00108285
0.00122853
0.00134367
0.00146791
0.00155601
0.00157665
0.00142865
0.00594782
0.0154213
0.0146308
0.00885313
0.00982982
0.00935255
0.00950204
0.00661474
0.00241036
0.000100805
1.87657e-05
2.26193e-05
3.47401e-05
6.69254e-05
0.000134091
0.00024535
0.000390838
0.000547832
0.000707735
0.000704426
0.00539751
0.0113113
0.00910576
0.00108252
0.00566725
9.89858e-13
0.0187994
0.000173243
2.46219e-06
2.98687e-06
4.39849e-06
5.86983e-06
7.60941e-06
1.03002e-05
1.54939e-05
2.52933e-05
4.47264e-05
8.08413e-05
0.000137706
0.000224224
0.00465745
0.00959357
0.00880521
1.31635e-06
3.50258e-06
8.66998e-06
9.78384e-06
1.12089e-05
1.28732e-05
1.47916e-05
1.741e-05
2.12319e-05
2.54058e-05
3.09039e-05
3.96991e-05
6.74028e-05
0.00399471
0.00857317
0.0101452
0.00679271
1.44867e-05
1.90708e-05
2.0409e-05
2.17057e-05
2.28274e-05
2.37969e-05
2.49411e-05
2.69474e-05
3.07353e-05
3.60122e-05
4.07009e-05
4.89085e-05
0.00352899
0.00714539
0.00981849
0.0309569
2.71276e-05
3.12102e-05
3.11574e-05
3.10333e-05
3.10678e-05
3.13273e-05
3.20883e-05
3.39575e-05
3.76801e-05
4.41944e-05
5.08417e-05
5.98615e-05
0.00301068
0.00546153
0.00667416
0.000192978
3.59669e-05
2.84124e-05
2.86795e-05
2.9079e-05
2.98563e-05
3.13182e-05
3.39338e-05
3.78277e-05
4.32498e-05
5.14338e-05
6.25037e-05
8.36904e-05
0.00270162
0.00408461
0.0025611
2.5013e-06
3.0235e-06
1.22695e-05
2.25395e-05
2.8988e-05
6.02444e-06
1.07067e-05
1.61213e-05
2.04451e-05
2.39384e-05
2.72481e-05
3.06741e-05
3.44379e-05
3.93459e-05
4.66107e-05
5.69121e-05
8.10406e-05
0.00257849
0.0023366
0.000107484
2.48842e-06
7.21483e-06
1.58417e-05
2.57455e-05
2.32886e-05
9.03662e-06
4.94436e-06
6.45976e-06
1.03277e-05
1.53616e-05
2.04441e-05
2.50386e-05
2.96809e-05
3.46727e-05
4.13307e-05
5.03969e-05
7.58884e-05
0.00231559
0.00141806
1.60711e-05
3.62174e-06
8.15246e-06
1.69524e-05
2.56093e-05
2.35183e-05
1.32475e-05
5.85748e-06
5.31114e-06
6.1991e-06
9.06023e-06
1.33574e-05
1.83073e-05
2.36741e-05
2.93801e-05
3.58707e-05
4.36663e-05
6.75098e-05
0.00211584
0.00108887
1.83173e-05
4.8186e-06
9.37615e-06
1.80829e-05
2.55007e-05
2.37776e-05
1.68144e-05
8.6826e-06
6.00158e-06
6.35395e-06
7.2714e-06
9.33184e-06
1.29027e-05
1.78426e-05
2.39675e-05
3.08603e-05
3.73762e-05
5.83337e-05
0.00202565
0.000876687