/*--------------------------------*- C++ -*----------------------------------*\
  =========                 |
  \\      /  F ield         | OpenFOAM: The Open Source CFD Toolbox
   \\    /   O peration     | Website:  https://openfoam.org
    \\  /    A nd           | Version:  9
     \\/     M anipulation  |
\*---------------------------------------------------------------------------*/
FoamFile
{
    format      ascii;
    class       volScalarField;
    location    "0.005";
    object      rho.C4;
}
// * * * * * * * * * * * * * * * * * * * * * * * * * * * * * * * * * * * * * //

dimensions      [1 -3 0 0 0 0 0];

internalField   nonuniform List<scalar> 
9720
(
12.9406
13.2472
13.4973
12.073
11.1806
10.6709
9.9575
8.78143
7.34391
6.15366
5.1728
4.54915
4.26174
4.09332
4.02644
4.03992
4.06499
4.066
4.05518
3.98078
13.2211
13.454
13.6433
10.6069
10.0541
10.4769
10.0257
8.50404
6.22885
4.50585
3.49146
3.15151
3.20569
3.32564
3.41008
3.48063
3.5487
3.55723
3.55149
3.49445
13.3936
13.6167
11.3721
8.62433
9.31308
10.4751
10.3093
8.46333
5.29152
3.24336
2.49403
2.54318
2.75849
3.1246
3.42545
3.59681
3.74911
3.77569
3.76134
3.66251
12.032
10.5746
8.63423
7.12772
7.93057
10.6999
11.0273
9.60868
5.29514
1.77161
1.86065
2.05078
2.34191
2.77817
3.30772
3.7792
4.02867
4.02631
3.98508
3.8424
11.0917
9.88569
9.05693
7.77491
1.41339
1.74608
1.89554
2.06395
2.27372
2.57485
3.0834
3.70417
4.18543
4.35057
4.33035
4.19037
10.4859
10.2001
10.1687
10.4506
2.23601
2.35159
2.35806
2.3808
2.43772
2.56067
2.79226
3.23351
3.87022
4.29511
4.36568
4.28772
9.76069
9.73839
10.0147
10.7632
2.66151
2.53884
2.49635
2.44293
2.43169
2.45984
2.55348
2.76833
3.20726
3.77386
4.16262
4.29845
8.6023
8.26913
8.19805
9.33676
2.34314
1.85323
1.93842
2.00363
2.05802
2.11655
2.20803
2.35576
2.62549
3.08245
3.60635
4.07309
7.18641
6.04188
5.0802
4.86046
1.33693
2.20531
2.59088
2.25077
0.390457
0.592314
0.893601
1.1591
1.37082
1.52908
1.6468
1.78112
1.97385
2.28893
2.72439
3.35339
6.01927
4.38028
3.15598
1.75826
1.74136
2.31088
2.45522
1.82171
0.644983
0.305663
0.37541
0.56028
0.79454
1.00921
1.1873
1.34333
1.51935
1.76735
2.10571
2.73067
5.06325
3.4038
2.46182
1.86053
1.90138
2.31744
2.41837
1.90522
0.955758
0.398602
0.316477
0.34681
0.449392
0.614889
0.807887
0.998674
1.17415
1.37998
1.63701
2.18194
4.46725
3.10029
2.50845
2.05797
2.07232
2.34307
2.38276
1.97015
1.21674
0.607994
0.36034
0.336236
0.349942
0.418027
0.558896
0.740148
0.914957
1.08098
1.26906
1.72906
4.19177
3.15896
2.71435
2.343
2.27786
2.40365
2.38893
2.02908
1.41431
0.853535
0.487729
0.356216
0.357728
0.38442
0.455976
0.574508
0.712604
0.855113
1.00495
1.39165
4.02758
3.28176
3.0704
2.75419
2.56763
2.53116
2.42872
2.0938
1.56244
1.06734
0.666433
0.440638
0.390597
0.401333
0.43239
0.484564
0.575428
0.702977
0.832081
1.15475
3.95443
3.36642
3.38198
3.25331
3.04631
2.76593
2.53679
2.19332
1.67564
1.24024
0.861049
0.597497
0.477939
0.440599
0.445829
0.478101
0.537081
0.634136
0.742069
1.00692
3.96432
3.43133
3.54807
3.69498
3.6363
3.20375
2.76109
2.34842
1.80871
1.39178
1.05127
0.787325
0.610829
0.509401
0.486501
0.500031
0.545578
0.620176
0.700984
0.904309
3.9847
3.49078
3.69164
3.94655
4.09987
3.8179
3.199
2.6246
2.00435
1.56531
1.22632
0.964641
0.756457
0.611405
0.55386
0.55716
0.580136
0.631091
0.690662
0.839764
3.98365
3.49494
3.71184
3.95275
4.2782
4.22582
3.73574
3.07766
2.32287
1.81488
1.43353
1.13452
0.903333
0.741163
0.6609
0.640988
0.646567
0.667049
0.702084
0.809295
3.97109
3.4878
3.69733
3.91983
4.26351
4.30157
4.10401
3.57661
2.74623
2.15046
1.69128
1.32676
1.05833
0.875819
0.779251
0.73455
0.714136
0.715635
0.734092
0.819561
3.89931
3.43155
3.60159
3.78783
4.13135
4.23131
4.25066
4.03258
3.35509
2.76027
2.23175
1.79115
1.45489
1.21509
1.06527
0.960893
0.88519
0.837658
0.840814
0.886249
12.4125
12.6964
12.8787
11.3182
10.4715
10.0807
9.44303
8.33673
6.94746
5.8041
4.85345
4.24572
3.97431
3.81916
3.74598
3.76226
3.79716
3.80341
3.7951
3.72406
12.6948
12.8723
12.9712
9.83561
9.43394
9.92267
9.57696
8.13357
5.92401
4.25556
3.26661
2.91564
2.96289
3.07788
3.16367
3.23447
3.31362
3.33388
3.3305
3.27857
12.8274
13.0443
10.2311
7.83496
8.9075
10.1247
9.9203
8.13499
5.03487
3.05966
2.32255
2.35625
2.52959
2.84448
3.15174
3.32904
3.49713
3.55201
3.54607
3.46419
11.3653
9.85022
7.82518
6.54601
7.78125
10.3111
10.6353
9.22359
5.05823
1.65155
1.73494
1.9022
2.15546
2.52837
3.00213
3.45147
3.75262
3.79173
3.76678
3.65167
10.4207
9.26434
8.57577
7.2367
1.2969
1.62226
1.75582
1.90736
2.09363
2.35255
2.77759
3.35569
3.83259
4.0905
4.097
4.00263
9.88925
9.65817
9.78941
10.021
2.08182
2.18288
2.17732
2.18834
2.22823
2.32595
2.51461
2.88053
3.4688
3.9308
4.11775
4.07747
9.23308
9.2936
9.62773
10.3543
2.47582
2.35728
2.30579
2.25144
2.22103
2.23956
2.30898
2.47475
2.8365
3.36849
3.78606
4.01477
8.13418
7.89537
7.88715
8.96596
2.19083
1.72276
1.78691
1.83554
1.87613
1.91969
1.99324
2.11333
2.32629
2.71497
3.19704
3.7127
6.77016
5.73135
4.85195
4.77975
1.26887
2.08412
2.4318
2.09981
0.357247
0.540938
0.815015
1.0455
1.23036
1.37682
1.48579
1.59914
1.7545
2.00485
2.37451
2.99397
5.64723
4.10677
2.96163
1.64774
1.63264
2.17436
2.29876
1.68968
0.581835
0.260181
0.324897
0.488606
0.693115
0.888944
1.05775
1.19666
1.34267
1.5455
1.8274
2.41108
4.72055
3.13762
2.25335
1.73029
1.76484
2.16183
2.25389
1.75758
0.862803
0.342824
0.258717
0.287482
0.382321
0.533266
0.708832
0.877038
1.02511
1.20008
1.42129
1.91726
4.15061
2.84023
2.28464
1.88855
1.91013
2.17093
2.20228
1.80327
1.09662
0.528411
0.295826
0.28202
0.294637
0.354401
0.474404
0.628734
0.784825
0.940128
1.10887
1.51702
3.90212
2.9046
2.46312
2.12826
2.08298
2.20749
2.1845
1.84444
1.27564
0.748802
0.410164
0.298614
0.298432
0.316266
0.368954
0.4791
0.617233
0.750769
0.880368
1.21574
3.75533
3.03701
2.79477
2.48943
2.32774
2.30333
2.20671
1.89104
1.41226
0.948558
0.578029
0.371795
0.320801
0.327471
0.359196
0.414918
0.50279
0.614282
0.723217
1.0015
3.67633
3.1246
3.12313
2.9661
2.74186
2.49225
2.28271
1.96945
1.51315
1.11202
0.758866
0.508785
0.388399
0.364898
0.376729
0.410384
0.463177
0.543328
0.630718
0.866882
3.68785
3.18815
3.29183
3.39832
3.31688
2.86579
2.45819
2.09637
1.6226
1.24561
0.929508
0.674677
0.512582
0.436807
0.417711
0.430071
0.469217
0.52908
0.597223
0.789863
3.71504
3.25566
3.44332
3.69414
3.78959
3.44792
2.83144
2.32161
1.78046
1.39041
1.08092
0.838558
0.660934
0.538503
0.479542
0.48029
0.496684
0.537688
0.599865
0.751395
3.71693
3.26711
3.48509
3.73305
4.03829
3.89932
3.3534
2.72084
2.04021
1.59747
1.2609
1.0021
0.805077
0.656966
0.572613
0.548152
0.551511
0.575607
0.619988
0.72232
3.70602
3.26135
3.47627
3.70628
4.03868
4.0711
3.75589
3.19079
2.41206
1.88462
1.48684
1.17644
0.942353
0.774254
0.67271
0.627972
0.622982
0.633295
0.654619
0.726775
3.63689
3.20845
3.39312
3.58886
3.93472
4.02796
3.98533
3.69742
3.01944
2.46186
1.98478
1.59333
1.29114
1.07004
0.928659
0.842061
0.794697
0.755547
0.745148
0.777687
12.195
12.523
12.6661
10.925
10.0425
9.75876
9.18587
8.10045
6.75162
5.6359
4.69631
4.0883
3.82861
3.6958
3.62792
3.64194
3.67785
3.68873
3.68349
3.61896
12.5272
12.7125
12.6557
9.37162
9.0584
9.61188
9.32557
7.91259
5.76218
4.14572
3.17798
2.80206
2.84524
2.96066
3.06297
3.13951
3.22454
3.25398
3.2516
3.2016
12.5722
12.7661
9.28596
7.35031
8.59399
9.84732
9.65456
7.90889
4.86361
2.98712
2.28354
2.30126
2.42967
2.70237
3.02668
3.22102
3.39112
3.46908
3.46815
3.39761
10.855
9.24428
7.20379
6.12566
7.52274
9.98871
10.3157
8.919
4.75916
1.55692
1.66229
1.84592
2.0893
2.43426
2.88641
3.32272
3.65777
3.7315
3.71148
3.60305
9.92451
8.82091
8.28466
6.97563
1.14754
1.50926
1.63165
1.78883
1.9836
2.2378
2.6255
3.18997
3.67226
3.99461
4.04325
3.96294
9.55746
9.36003
9.55686
9.72491
1.95381
2.04871
2.04127
2.05181
2.08788
2.1754
2.34286
2.66819
3.2357
3.77336
4.0686
4.04662
8.98971
9.09314
9.42882
10.0623
2.31188
2.20526
2.15788
2.11079
2.08882
2.10479
2.1625
2.30093
2.60495
3.12882
3.60541
3.9105
7.92162
7.72582
7.74783
8.71298
2.04291
1.61864
1.67569
1.71914
1.76347
1.804
1.8664
1.96788
2.14307
2.47248
2.93742
3.52351
6.58153
5.60221
4.75689
4.68848
1.17829
1.96946
2.2882
1.96506
0.316849
0.509343
0.76871
0.984867
1.15339
1.29371
1.40386
1.50402
1.63484
1.83748
2.15668
2.78203
5.47248
3.98009
2.85321
1.51323
1.50759
2.05173
2.16457
1.56316
0.510188
0.222739
0.286373
0.442746
0.639659
0.827817
0.988736
1.12619
1.25448
1.42487
1.65831
2.20898
4.552
3.02137
2.167
1.60658
1.62158
2.03867
2.1211
1.63182
0.76954
0.292302
0.208925
0.239808
0.336208
0.479761
0.64708
0.809699
0.956721
1.10658
1.29026
1.74291
3.97574
2.69654
2.19208
1.7813
1.7686
2.04806
2.07785
1.67708
0.993374
0.461097
0.244911
0.235331
0.248124
0.305038
0.414897
0.564302
0.721212
0.868033
1.01188
1.37469
3.73403
2.75835
2.33735
2.01664
1.94627
2.08206
2.06065
1.72243
1.17069
0.673775
0.356611
0.250827
0.253004
0.270592
0.32118
0.422411
0.557965
0.693322
0.806982
1.10141
3.60542
2.89301
2.63162
2.34686
2.17947
2.16625
2.07794
1.7683
1.31563
0.875123
0.517693
0.320132
0.274656
0.282086
0.31019
0.362525
0.446999
0.552658
0.652431
0.903243
3.53488
3.00714
2.99272
2.81116
2.54697
2.3259
2.13635
1.83917
1.42654
1.03962
0.695116
0.448513
0.339158
0.314777
0.326125
0.35658
0.405643
0.483073
0.569096
0.783382
3.55071
3.08622
3.19365
3.25855
3.12348
2.6434
2.27805
1.9515
1.52569
1.17379
0.863147
0.613701
0.458126
0.38148
0.362085
0.373872
0.412044
0.478341
0.546026
0.72192
3.5856
3.16575
3.35445
3.61332
3.63531
3.20495
2.58639
2.13725
1.65728
1.30063
1.01343
0.781219
0.606996
0.480984
0.419721
0.421578
0.442818
0.489543
0.549752
0.694589
3.59361
3.18598
3.41726
3.69826
3.96525
3.74933
3.10902
2.47568
1.86503
1.47359
1.16821
0.934024
0.749187
0.595336
0.508916
0.494342
0.500546
0.524289
0.569179
0.66928
3.5882
3.18058
3.41
3.67074
3.99378
4.02427
3.57369
2.93688
2.19068
1.71487
1.35953
1.08089
0.867365
0.700231
0.603697
0.568699
0.568903
0.58001
0.602896
0.672468
3.52913
3.12957
3.33167
3.54844
3.90368
3.9939
3.87951
3.51493
2.81428
2.26986
1.81945
1.45242
1.17295
0.964004
0.833786
0.761967
0.729772
0.69813
0.687079
0.717421
12.0871
12.4204
12.4831
10.58
9.71708
9.53017
9.00313
7.93302
6.58136
5.50014
4.58443
3.98237
3.73672
3.62181
3.56612
3.58453
3.62313
3.63233
3.62421
3.55359
12.4416
12.6522
12.169
8.96942
8.7766
9.41502
9.18577
7.7787
5.6097
4.00363
3.06974
2.72136
2.77355
2.89823
3.01966
3.1105
3.20004
3.22868
3.22345
3.16416
12.4193
12.4988
8.62578
7.01189
8.3587
9.68065
9.5231
7.79303
4.71613
2.84247
2.20094
2.22933
2.36532
2.64497
3.0004
3.21176
3.37601
3.45422
3.45209
3.37281
10.5365
8.84919
6.88179
5.88138
7.15289
9.77079
10.0942
8.71055
4.47453
1.44747
1.56165
1.75879
2.01155
2.36976
2.8559
3.30482
3.65585
3.72961
3.70637
3.58614
9.60719
8.57814
8.1765
7.08996
1.1263
1.43807
1.55116
1.70418
1.89548
2.1469
2.52108
3.08874
3.60631
3.96275
4.04531
3.96451
9.36454
9.20795
9.46413
9.55925
1.86476
1.98163
1.97829
1.98895
2.02373
2.10462
2.25178
2.527
3.0408
3.66282
4.06701
4.05916
8.85052
9.00758
9.34571
9.88436
2.19639
2.12198
2.08275
2.04454
2.02166
2.03489
2.08111
2.19323
2.43341
2.894
3.48066
3.86466
7.80498
7.64638
7.67878
8.5609
1.93528
1.5298
1.59582
1.64467
1.69328
1.73683
1.7927
1.87984
2.0222
2.28251
2.70937
3.37694
6.47278
5.53225
4.67841
4.49863
1.16933
1.88151
2.18269
1.8667
0.280395
0.457237
0.709398
0.925324
1.0996
1.24358
1.36298
1.45846
1.56819
1.72903
1.98976
2.60542
5.38743
3.92584
2.78908
1.43441
1.44153
1.97278
2.08329
1.50383
0.485269
0.195654
0.253737
0.40288
0.599958
0.795951
0.960809
1.10205
1.22072
1.36117
1.55114
2.05603
4.46816
2.9847
2.12521
1.53399
1.54539
1.96389
2.04807
1.57831
0.738623
0.265065
0.1758
0.204846
0.304718
0.453372
0.616805
0.780013
0.932916
1.07404
1.22471
1.62188
3.86329
2.61436
2.14538
1.71483
1.68532
1.97341
2.01411
1.62671
0.952531
0.428374
0.212146
0.20285
0.215723
0.272928
0.38347
0.529971
0.694545
0.849912
0.969173
1.28031
3.61036
2.65997
2.25782
1.94534
1.85955
2.00399
1.99493
1.67222
1.12412
0.637482
0.326736
0.218507
0.220745
0.240422
0.293743
0.391767
0.526707
0.670018
0.777878
1.03585
3.48926
2.77729
2.5101
2.25814
2.0878
2.07933
2.00848
1.7168
1.26562
0.838573
0.486988
0.285181
0.242992
0.251853
0.278474
0.32607
0.409579
0.523584
0.622282
0.847859
3.42374
2.89569
2.85437
2.69676
2.42572
2.21891
2.05357
1.77607
1.38216
1.00093
0.654537
0.406577
0.304393
0.280906
0.290221
0.31694
0.366037
0.444265
0.532401
0.733729
3.43793
2.98099
3.077
3.13706
2.95946
2.47968
2.16596
1.86851
1.47488
1.13242
0.815278
0.562236
0.414256
0.338658
0.319609
0.331312
0.370261
0.439152
0.512108
0.67782
3.47482
3.06807
3.24217
3.50313
3.48359
2.97668
2.40546
2.01665
1.58272
1.24424
0.963509
0.728838
0.557778
0.432123
0.373339
0.375001
0.39761
0.451658
0.516202
0.654726
3.48986
3.10451
3.33581
3.62134
3.85669
3.59158
2.86408
2.28243
1.74504
1.38289
1.10104
0.881639
0.702107
0.549492
0.4579
0.446426
0.456784
0.486625
0.533939
0.633315
3.48676
3.10214
3.33653
3.60351
3.95579
3.98614
3.43022
2.70816
2.0107
1.57886
1.25667
1.00144
0.807335
0.645214
0.544787
0.520925
0.524842
0.54025
0.566775
0.634386
3.43221
3.05483
3.26854
3.49211
3.87721
3.97506
3.8047
3.36288
2.62808
2.09338
1.66532
1.32189
1.07184
0.874409
0.751478
0.69435
0.674057
0.654791
0.643491
0.669673
11.9923
12.3201
12.3243
10.3311
9.51808
9.39835
8.89038
7.82701
6.45946
5.3815
4.47155
3.8797
3.64659
3.54781
3.50758
3.53394
3.58486
3.60334
3.59911
3.53445
12.3736
12.6205
11.8918
8.73359
8.63457
9.31412
9.10512
7.70129
5.50145
3.89187
2.97203
2.63305
2.69034
2.82663
2.9607
3.06877
3.17433
3.21606
3.21369
3.15788
12.2775
12.2392
8.2798
6.84092
8.28615
9.59618
9.44872
7.74013
4.61829
2.7303
2.12246
2.15576
2.29009
2.56955
2.93988
3.17502
3.34398
3.43165
3.43173
3.36443
10.3339
8.64282
6.73246
5.73552
7.12
9.64554
9.98496
8.64184
4.4454
1.40043
1.5131
1.71099
1.95497
2.29649
2.78393
3.25309
3.63644
3.72954
3.70833
3.58923
9.46536
8.47299
8.07806
6.92046
1.13765
1.43173
1.54114
1.68358
1.85946
2.09487
2.44621
3.00432
3.54906
3.92945
4.05163
3.97617
9.26027
9.12031
9.41782
9.49718
1.8427
1.99483
1.98966
1.99746
2.02152
2.08648
2.21309
2.45238
2.91788
3.56132
4.04326
4.06916
8.77501
8.95776
9.31042
9.82764
2.17418
2.13569
2.1003
2.06416
2.0234
2.02683
2.05516
2.14343
2.34553
2.74388
3.36074
3.82204
7.73167
7.59218
7.64229
8.51409
1.9057
1.52796
1.60373
1.6524
1.69224
1.73007
1.77694
1.85144
1.97276
2.19181
2.56496
3.25584
6.40158
5.47367
4.61127
4.41013
1.12167
1.81595
2.13025
1.84115
0.271365
0.444908
0.698973
0.920156
1.09537
1.23476
1.35061
1.44221
1.54237
1.68282
1.90267
2.48379
5.32625
3.87864
2.74319
1.39141
1.40268
1.94223
2.07298
1.50893
0.486988
0.189127
0.245431
0.390546
0.592634
0.791883
0.952121
1.09261
1.20822
1.33163
1.49477
1.95603
4.41654
2.95237
2.10113
1.49454
1.50266
1.93144
2.03904
1.5812
0.743999
0.262729
0.160785
0.192235
0.297324
0.448368
0.60889
0.768614
0.918729
1.05544
1.18684
1.54702
3.81284
2.58089
2.12378
1.67754
1.63811
1.93875
2.00548
1.62408
0.956962
0.424663
0.200086
0.188735
0.202981
0.259957
0.371263
0.518377
0.682773
0.83641
0.946037
1.23082
3.56019
2.62243
2.23412
1.91051
1.80813
1.96406
1.9719
1.65929
1.12042
0.629738
0.315738
0.204825
0.206501
0.226833
0.284898
0.381581
0.512437
0.656403
0.762668
1.00299
3.44214
2.73275
2.47279
2.22784
2.03599
2.03035
1.97834
1.69646
1.25067
0.823663
0.473148
0.268265
0.228103
0.238666
0.265194
0.309726
0.38971
0.504482
0.604699
0.817075
3.37728
2.85036
2.80588
2.66772
2.37119
2.15854
2.01107
1.74475
1.35944
0.980059
0.634348
0.386547
0.290564
0.266337
0.274157
0.297074
0.343766
0.425482
0.516082
0.707843
3.38954
2.93811
3.0264
3.09891
2.89074
2.39583
2.10515
1.822
1.44534
1.11078
0.789453
0.535423
0.393449
0.317319
0.298279
0.308394
0.347552
0.426623
0.505026
0.657955
3.42499
3.02502
3.18263
3.45222
3.40254
2.84834
2.31186
1.9488
1.54269
1.21759
0.934062
0.697469
0.528371
0.403796
0.346734
0.348553
0.378903
0.446151
0.511857
0.635028
3.44132
3.06363
3.27866
3.57711
3.78115
3.46854
2.70788
2.17366
1.68388
1.33952
1.06498
0.847197
0.672513
0.520363
0.429005
0.428322
0.447244
0.48538
0.52757
0.617864
3.43885
3.06233
3.28294
3.56528
3.91837
3.92978
3.30751
2.5562
1.90917
1.50719
1.20004
0.960432
0.776463
0.616735
0.518671
0.508074
0.515155
0.530006
0.553694
0.619208
3.38458
3.01664
3.22569
3.46448
3.85005
3.9503
3.73388
3.23073
2.49292
1.97855
1.57233
1.25623
1.02227
0.830144
0.715143
0.666611
0.645232
0.630173
0.626013
0.652066
11.9889
12.3201
12.3168
10.3054
9.49674
9.40314
8.89558
7.83097
6.4594
5.37686
4.46229
3.86965
3.63886
3.54302
3.50586
3.53423
3.59098
3.614
3.61055
3.54724
12.3697
12.6234
11.9072
8.70779
8.62775
9.33067
9.11854
7.70619
5.50702
3.8924
2.96916
2.62191
2.67733
2.81454
2.95664
3.0688
3.17651
3.22452
3.22313
3.16894
12.2709
12.1925
8.24468
6.81268
8.31641
9.62097
9.46636
7.74141
4.61961
2.7342
2.12266
2.15291
2.27581
2.54559
2.92386
3.17623
3.35023
3.44407
3.44488
3.37611
10.3327
8.63719
6.73215
5.67544
7.2569
9.59561
9.9436
8.59922
4.37741
1.39688
1.51
1.70615
1.94511
2.27824
2.75944
3.23803
3.62747
3.73816
3.71911
3.60212
9.46397
8.45132
8.03187
6.69907
1.07849
1.41224
1.52043
1.66384
1.83868
2.07169
2.4195
2.97642
3.52679
3.92135
4.0587
3.98583
9.25615
9.10615
9.40575
9.48935
1.85486
1.97128
1.96531
1.97355
1.99804
2.06279
2.18976
2.42912
2.89628
3.54584
4.04047
4.07516
8.7714
8.95339
9.30805
9.82143
2.2013
2.11682
2.08123
2.04593
2.00552
2.00862
2.03669
2.12587
2.32924
2.72876
3.34796
3.82102
7.72173
7.58033
7.63368
8.49498
1.92543
1.52752
1.59898
1.6467
1.68555
1.72293
1.76895
1.84234
1.9626
2.18058
2.55456
3.25107
6.39986
5.47279
4.61544
4.47402
1.07734
1.82009
2.1439
1.85796
0.270581
0.456706
0.712181
0.931317
1.10313
1.23919
1.353
1.44222
1.53979
1.6779
1.89625
2.47818
5.33298
3.88436
2.74824
1.3878
1.40653
1.95662
2.07814
1.49886
0.474271
0.189269
0.249455
0.398774
0.59818
0.79263
0.954401
1.09225
1.20394
1.32472
1.4883
1.9504
4.42608
2.95615
2.1086
1.49555
1.51211
1.94939
2.0479
1.57332
0.730138
0.259191
0.159478
0.190644
0.295329
0.448192
0.60897
0.766888
0.913217
1.04687
1.17979
1.54235
3.82712
2.59346
2.13323
1.68596
1.6527
1.95748
2.01721
1.62224
0.946325
0.418225
0.196764
0.186572
0.201341
0.259805
0.371045
0.515018
0.673573
0.825132
0.93827
1.22517
3.57794
2.63799
2.24852
1.92574
1.82804
1.98347
1.98787
1.66579
1.11562
0.623178
0.310312
0.203373
0.205777
0.226367
0.282166
0.377489
0.505792
0.649962
0.756493
0.996668
3.46019
2.75089
2.49402
2.25584
2.06184
2.05113
1.99504
1.7077
1.25313
0.821189
0.47039
0.268743
0.227803
0.237335
0.263459
0.307441
0.385857
0.500441
0.599638
0.809256
3.39668
2.8679
2.82688
2.70509
2.40486
2.18111
2.02938
1.75788
1.36676
0.982799
0.637018
0.387775
0.288967
0.264921
0.27317
0.295802
0.342334
0.423037
0.511356
0.70085
3.40713
2.95539
3.04562
3.1346
2.93561
2.42216
2.12637
1.83728
1.45595
1.11675
0.795942
0.538775
0.394259
0.317307
0.297712
0.307554
0.346525
0.424156
0.502152
0.653508
3.43852
3.03964
3.2052
3.47897
3.44439
2.88216
2.33815
1.9669
1.55564
1.22713
0.941568
0.704965
0.533603
0.406101
0.347271
0.348878
0.378558
0.444822
0.51006
0.632537
3.4493
3.0706
3.29132
3.58392
3.81346
3.50061
2.73832
2.19609
1.69954
1.35156
1.07451
0.858678
0.680404
0.525898
0.430985
0.429225
0.447738
0.485226
0.527083
0.617828
3.44371
3.06729
3.29171
3.56914
3.92871
3.96026
3.32798
2.57332
1.927
1.52083
1.21178
0.970722
0.786379
0.624296
0.522322
0.510309
0.516873
0.531152
0.554628
0.619301
3.38207
3.01578
3.22634
3.46315
3.85428
3.96831
3.75821
3.2449
2.51029
1.99189
1.58597
1.2678
1.03339
0.839726
0.722697
0.672667
0.650054
0.633944
0.628127
0.653033
12.073
12.4082
12.4709
10.5282
9.68023
9.54556
9.01557
7.94115
6.56959
5.48363
4.56553
3.96334
3.72125
3.61116
3.56321
3.58823
3.63904
3.65523
3.6495
3.58339
12.4458
12.6573
12.1734
8.92174
8.78236
9.45635
9.21864
7.7965
5.59453
3.97882
3.05148
2.69881
2.75001
2.87568
3.00396
3.10578
3.21121
3.25272
3.24856
3.19201
12.4096
12.4586
8.57584
6.97391
8.44533
9.74008
9.56801
7.81732
4.68896
2.80572
2.17504
2.20443
2.33527
2.60754
2.9684
3.19776
3.36902
3.46482
3.46786
3.39938
10.5326
8.81743
6.84052
5.75584
7.3812
9.72204
10.058
8.68913
4.43119
1.43299
1.54979
1.74663
1.99304
2.33718
2.81459
3.27995
3.64352
3.74111
3.72224
3.60809
9.59114
8.51091
8.0497
6.74213
1.08403
1.41653
1.53405
1.68688
1.87093
2.11216
2.47292
3.03463
3.56569
3.94202
4.0563
3.98144
9.33166
9.15173
9.42266
9.52411
1.79818
1.94687
1.94691
1.95913
1.99359
2.07104
2.2132
2.47925
2.98745
3.62342
4.06083
4.06422
8.82612
8.97009
9.32077
9.85647
2.12891
2.08757
2.05372
2.02032
1.99673
2.00785
2.05021
2.15795
2.3917
2.84364
3.44476
3.85422
7.7712
7.60072
7.63783
8.52664
1.87574
1.52367
1.58903
1.63799
1.68601
1.73037
1.78483
1.86834
2.00534
2.25625
2.67548
3.35696
6.44873
5.48707
4.61693
4.39475
1.08711
1.83114
2.14298
1.84637
0.268909
0.472514
0.727545
0.942036
1.11125
1.25041
1.36559
1.45786
1.56288
1.71718
1.97007
2.58668
5.38385
3.9133
2.77561
1.43516
1.43648
1.97252
2.09481
1.50607
0.470896
0.197249
0.26141
0.416403
0.615026
0.810281
0.968121
1.10078
1.21493
1.34959
1.53492
2.04018
4.47812
2.9878
2.13875
1.54386
1.54932
1.97084
2.05955
1.57699
0.724788
0.263548
0.174827
0.207506
0.314034
0.464522
0.625106
0.782893
0.928855
1.06384
1.21121
1.60594
3.89036
2.64579
2.16475
1.73497
1.69706
1.98197
2.02509
1.62693
0.9432
0.422232
0.209816
0.201066
0.215185
0.27595
0.388264
0.533243
0.694831
0.842976
0.956882
1.26467
3.64707
2.69705
2.29348
1.97961
1.87981
2.01551
2.00347
1.67545
1.11796
0.628218
0.321775
0.215739
0.218841
0.239437
0.293792
0.393098
0.525502
0.663142
0.768198
1.0234
3.52798
2.82211
2.56291
2.32198
2.12082
2.09389
2.01598
1.72102
1.2639
0.832068
0.480872
0.281429
0.240265
0.250157
0.277621
0.323923
0.404302
0.516035
0.61217
0.834343
3.46184
2.93591
2.90888
2.78715
2.4834
2.23771
2.06063
1.77975
1.38354
0.999146
0.651793
0.403209
0.300231
0.279142
0.28838
0.313854
0.36251
0.438499
0.522731
0.720994
3.46992
3.01554
3.11308
3.21827
3.03934
2.50829
2.17464
1.87146
1.47889
1.13733
0.818646
0.560629
0.41109
0.335191
0.316647
0.328535
0.367817
0.436458
0.50914
0.670205
3.49681
3.09399
3.27171
3.55818
3.54184
3.01725
2.41859
2.02046
1.58927
1.25352
0.971726
0.733622
0.558858
0.431381
0.372575
0.374409
0.397078
0.450928
0.514932
0.651382
3.50248
3.11507
3.34053
3.62892
3.89354
3.63496
2.88196
2.28956
1.75293
1.39395
1.11229
0.892874
0.710465
0.557584
0.462078
0.448258
0.458559
0.487942
0.534999
0.634531
3.49362
3.10877
3.3354
3.60501
3.96443
4.01509
3.46062
2.71903
2.02069
1.59034
1.27001
1.0162
0.822568
0.658625
0.552956
0.525643
0.52862
0.542757
0.569394
0.635403
3.42578
3.05018
3.25744
3.48502
3.87846
3.99283
3.82296
3.37668
2.6419
2.10936
1.68334
1.34176
1.09093
0.890494
0.764671
0.704531
0.682078
0.661713
0.648047
0.67186
12.1807
12.4882
12.6295
10.8795
10.0263
9.78356
9.20429
8.11375
6.74012
5.62657
4.69454
4.09381
3.83271
3.70049
3.63173
3.64789
3.68926
3.70658
3.70441
3.64583
12.5244
12.7051
12.5808
9.33737
9.08363
9.66672
9.36732
7.94
5.73464
4.11161
3.15817
2.80239
2.84783
2.96439
3.06908
3.14689
3.23484
3.27229
3.27199
3.22705
12.5595
12.7766
9.22658
7.33115
8.66398
9.92106
9.71493
7.94907
4.82078
2.93581
2.24777
2.27248
2.41331
2.69647
3.03084
3.22771
3.39733
3.4843
3.48587
3.42031
10.8391
9.18151
7.12823
5.91987
7.50218
9.90007
10.218
8.84137
4.5703
1.53353
1.63892
1.81894
2.06292
2.4163
2.88237
3.31927
3.65452
3.74392
3.7273
3.62308
9.87246
8.71606
8.15678
6.79172
1.11245
1.49013
1.61539
1.76993
1.95743
2.20552
2.59178
3.16358
3.65198
3.9865
4.05226
3.97679
9.50084
9.27649
9.48582
9.57531
1.8593
2.02248
2.01609
2.02618
2.06048
2.14442
2.30686
2.62821
3.19661
3.74587
4.06859
4.05406
8.94698
9.03398
9.38118
9.91725
2.18643
2.17087
2.12673
2.08129
2.05564
2.06982
2.12507
2.26183
2.56274
3.08494
3.58105
3.9072
7.88086
7.67315
7.69507
8.59127
1.91779
1.58603
1.64838
1.69718
1.74435
1.78685
1.84997
1.95058
2.12328
2.44542
2.90906
3.51247
6.55356
5.55323
4.68071
4.56488
1.11091
1.89606
2.21591
1.9162
0.30287
0.502102
0.761297
0.980021
1.15256
1.29639
1.40724
1.50538
1.63244
1.82962
2.1443
2.77486
5.46247
3.96167
2.82605
1.50449
1.50535
2.06116
2.1843
1.58799
0.517771
0.221839
0.286113
0.444463
0.645813
0.838437
0.999721
1.13411
1.25926
1.42633
1.65758
2.20951
4.54961
3.00956
2.15974
1.60526
1.62723
2.04913
2.1405
1.65249
0.78232
0.293029
0.207444
0.242437
0.344884
0.49111
0.657603
0.818667
0.964241
1.11235
1.29413
1.74405
3.98537
2.70543
2.18683
1.78589
1.77887
2.05794
2.09544
1.69815
1.00556
0.462316
0.245483
0.232898
0.246369
0.306733
0.420752
0.571617
0.728438
0.87412
1.01471
1.37384
3.7528
2.77208
2.34472
2.03047
1.96188
2.09115
2.07456
1.74365
1.17944
0.67466
0.35731
0.247477
0.249444
0.268253
0.322035
0.425105
0.561146
0.696038
0.807828
1.09925
3.63121
2.91688
2.65879
2.38645
2.20376
2.17469
2.091
1.78773
1.32378
0.876829
0.517075
0.316002
0.270671
0.279394
0.308429
0.36108
0.445397
0.550666
0.649336
0.898441
3.56288
3.03167
3.02715
2.87339
2.59006
2.33583
2.14899
1.8555
1.43626
1.04328
0.69441
0.443999
0.333873
0.31166
0.323724
0.353962
0.403393
0.479131
0.564155
0.777364
3.57686
3.11181
3.22218
3.31956
3.18109
2.65808
2.29119
1.96471
1.53694
1.17951
0.864419
0.610062
0.452098
0.376627
0.358769
0.370961
0.410438
0.478866
0.54607
0.718979
3.60625
3.1881
3.38067
3.66246
3.68596
3.22369
2.59948
2.14861
1.66892
1.30727
1.0165
0.77996
0.603808
0.477812
0.417254
0.419803
0.442795
0.490941
0.550875
0.695084
3.60871
3.20163
3.42967
3.70941
4.00171
3.78148
3.12883
2.48717
1.87558
1.48039
1.17167
0.935528
0.751561
0.596284
0.507973
0.495387
0.50212
0.526229
0.572027
0.671901
3.59773
3.19344
3.42062
3.67983
4.02146
4.0643
3.6094
2.95411
2.20127
1.72117
1.36334
1.0851
0.87319
0.704345
0.605717
0.57116
0.571659
0.583109
0.60631
0.674573
3.52625
3.13133
3.33416
3.55166
3.92476
4.0279
3.906
3.53593
2.82878
2.27992
1.82709
1.46048
1.18082
0.96994
0.837962
0.766827
0.735386
0.703547
0.690059
0.719049
12.3895
12.6596
12.8717
11.3424
10.5017
10.1179
9.46355
8.35355
6.96032
5.81544
4.86846
4.26212
3.98747
3.82895
3.75219
3.76569
3.80119
3.81147
3.80602
3.73961
12.6712
12.8314
12.9284
9.89433
9.52476
9.98724
9.60913
8.15991
5.93672
4.26909
3.28457
2.93482
2.98053
3.09034
3.16671
3.23024
3.30914
3.33571
3.33534
3.29021
12.7728
13.0141
10.1702
7.90235
9.0137
10.2092
9.96119
8.16337
5.03622
3.07533
2.33408
2.36445
2.53344
2.84241
3.13522
3.3125
3.48388
3.54757
3.54439
3.46956
11.277
9.71833
7.68929
6.22515
7.70661
10.1981
10.479
9.07734
4.87123
1.64704
1.73529
1.90294
2.15792
2.54142
3.01747
3.44828
3.73062
3.77818
3.75646
3.65107
10.3305
9.12166
8.44417
6.96081
1.17741
1.59421
1.72542
1.87999
2.07369
2.34522
2.78635
3.35874
3.81617
4.0756
4.08654
3.99714
9.81173
9.55984
9.71093
9.80474
1.95528
2.14217
2.13626
2.14806
2.19056
2.29279
2.49244
2.87969
3.47517
3.92704
4.11367
4.07539
9.17989
9.2257
9.57735
10.1321
2.3078
2.31139
2.26215
2.20648
2.18544
2.20696
2.28353
2.46109
2.84055
3.3789
3.78873
4.01895
8.08819
7.84455
7.84751
8.7843
2.04236
1.70592
1.7677
1.81632
1.85963
1.90598
1.98366
2.10977
2.33212
2.7286
3.20903
3.72104
6.7282
5.6893
4.82708
4.64495
1.15021
2.00671
2.33841
2.01759
0.331252
0.5526
0.826469
1.05454
1.23696
1.3832
1.49318
1.60828
1.7663
2.02093
2.39374
3.01108
5.61669
4.07211
2.93245
1.62991
1.61845
2.17626
2.31472
1.69631
0.574398
0.26095
0.329704
0.4973
0.704185
0.900733
1.06983
1.20869
1.35505
1.56041
1.84588
2.43044
4.69946
3.10795
2.23696
1.72086
1.75864
2.16478
2.26799
1.76564
0.857877
0.340898
0.25915
0.290394
0.387148
0.539389
0.71681
0.886894
1.03668
1.21316
1.4357
1.93246
4.14199
2.83327
2.27217
1.88883
1.91494
2.17525
2.21422
1.8136
1.09299
0.526458
0.297006
0.280748
0.293953
0.355411
0.478808
0.63648
0.794475
0.950213
1.11841
1.52798
3.90172
2.90461
2.46211
2.14068
2.09663
2.21408
2.19967
1.85821
1.2756
0.749304
0.411593
0.297674
0.298454
0.318109
0.372512
0.483628
0.622638
0.756639
0.886339
1.22397
3.76374
3.05115
2.8127
2.52001
2.34809
2.31205
2.22212
1.90738
1.41828
0.952388
0.580124
0.373758
0.32348
0.329843
0.360147
0.415636
0.503853
0.615876
0.726284
1.00681
3.68998
3.14594
3.16173
3.01709
2.77231
2.50296
2.29839
1.98804
1.52546
1.11971
0.764424
0.515285
0.393242
0.366071
0.376924
0.40931
0.462895
0.543911
0.632281
0.869646
3.70712
3.22043
3.3416
3.45547
3.36745
2.87813
2.47444
2.11582
1.63811
1.25643
0.939139
0.683913
0.517754
0.436379
0.415878
0.428637
0.469236
0.531143
0.600349
0.793194
3.73678
3.29031
3.4924
3.75638
3.85063
3.4662
2.84527
2.33885
1.79578
1.40273
1.09149
0.846724
0.66491
0.536875
0.477353
0.478992
0.497338
0.540245
0.603792
0.756685
3.73683
3.29695
3.52096
3.77801
4.09251
3.94084
3.37863
2.73604
2.05265
1.60886
1.2705
1.00786
0.807186
0.655786
0.571185
0.548216
0.552474
0.57802
0.624739
0.728211
3.72252
3.28737
3.50859
3.7463
4.08952
4.12407
3.79009
3.20947
2.42387
1.89437
1.49448
1.18013
0.943136
0.773944
0.67144
0.628124
0.624746
0.636013
0.659235
0.732143
3.64593
3.22405
3.41473
3.61429
3.97755
4.07565
4.01875
3.7194
3.0351
2.47358
1.99171
1.5952
1.29016
1.0682
0.926587
0.841793
0.796576
0.758392
0.7483
0.780795
12.9187
13.214
13.4815
12.0469
11.1712
10.6879
9.96355
8.79533
7.35366
6.15845
5.17452
4.54378
4.2554
4.08867
4.02649
4.03901
4.06658
4.07058
4.06255
3.99111
13.1937
13.415
13.5918
10.6245
10.1182
10.5194
10.0374
8.52036
6.25108
4.53218
3.51641
3.1535
3.20112
3.31801
3.39816
3.46628
3.53876
3.55255
3.5497
3.49833
13.348
13.605
11.3217
8.67478
9.43755
10.5552
10.3212
8.46821
5.32082
3.28738
2.52671
2.56352
2.75034
3.08705
3.3735
3.56058
3.72688
3.76183
3.75002
3.65757
11.9844
10.4702
8.48352
6.71524
8.0019
10.5565
10.81
9.37257
5.13587
1.79461
1.88815
2.07485
2.36105
2.78821
3.29765
3.73822
3.98173
3.99011
3.95862
3.83056
11.022
9.74421
8.87943
7.28814
1.29179
1.72842
1.88302
2.05905
2.27993
2.59529
3.10888
3.6949
4.14814
4.31702
4.30102
4.16782
10.3945
10.0867
10.0625
10.1558
2.07862
2.31816
2.32604
2.35223
2.41434
2.54502
2.79455
3.26023
3.88439
4.27971
4.34538
4.26972
9.68933
9.6483
9.94998
10.4723
2.46483
2.50737
2.46798
2.41525
2.41271
2.44429
2.54931
2.78215
3.24376
3.80082
4.17102
4.29776
8.53754
8.19626
8.13463
9.07535
2.19163
1.84671
1.93007
1.99461
2.05043
2.11189
2.20773
2.36285
2.64628
3.11328
3.62807