/*--------------------------------*- C++ -*----------------------------------*\
  =========                 |
  \\      /  F ield         | OpenFOAM: The Open Source CFD Toolbox
   \\    /   O peration     | Website:  https://openfoam.org
    \\  /    A nd           | Version:  9
     \\/     M anipulation  |
\*---------------------------------------------------------------------------*/
FoamFile
{
    format      ascii;
    class       volScalarField;
    location    "0.005";
    object      rhoE;
}
// * * * * * * * * * * * * * * * * * * * * * * * * * * * * * * * * * * * * * //

dimensions      [1 -1 -2 0 0 0 0];

internalField   nonuniform List<scalar> 
9720
(
3.5458e+07
3.48802e+07
3.52345e+07
3.15866e+07
2.94385e+07
2.78888e+07
2.57544e+07
2.29835e+07
1.98547e+07
1.67892e+07
1.4248e+07
1.26697e+07
1.19295e+07
1.16544e+07
1.16869e+07
1.20556e+07
1.24711e+07
1.29523e+07
1.3353e+07
1.39859e+07
3.47298e+07
3.38245e+07
3.41386e+07
2.68413e+07
2.60776e+07
2.70376e+07
2.54644e+07
2.20128e+07
1.68218e+07
1.22728e+07
9.53175e+06
8.70933e+06
8.85467e+06
9.27055e+06
9.75411e+06
1.02548e+07
1.0784e+07
1.12031e+07
1.15675e+07
1.21429e+07
3.48623e+07
3.39931e+07
2.78387e+07
2.21128e+07
2.43325e+07
2.67851e+07
2.60756e+07
2.17931e+07
1.41168e+07
8.57298e+06
6.59396e+06
6.99338e+06
7.79746e+06
8.85375e+06
9.84369e+06
1.05922e+07
1.1365e+07
1.18552e+07
1.22272e+07
1.27258e+07
3.1292e+07
2.66373e+07
2.21255e+07
1.87042e+07
2.02925e+07
2.73362e+07
2.76821e+07
2.42748e+07
1.39574e+07
5.14337e+06
5.68856e+06
6.41921e+06
7.3882e+06
8.63405e+06
9.93603e+06
1.14083e+07
1.23535e+07
1.26894e+07
1.29599e+07
1.33361e+07
2.90521e+07
2.55064e+07
2.35855e+07
1.99084e+07
4.14332e+06
6.46866e+06
6.98078e+06
7.54784e+06
8.22784e+06
9.16157e+06
1.0607e+07
1.21818e+07
1.35197e+07
1.42149e+07
1.4366e+07
1.453e+07
2.72948e+07
2.6222e+07
2.58873e+07
2.64798e+07
8.60308e+06
9.4013e+06
9.44123e+06
9.54146e+06
9.75282e+06
1.01856e+07
1.09667e+07
1.22535e+07
1.39136e+07
1.51136e+07
1.53642e+07
1.54707e+07
2.51209e+07
2.46194e+07
2.52655e+07
2.69188e+07
1.07367e+07
1.06799e+07
1.05469e+07
1.03385e+07
1.02792e+07
1.03637e+07
1.07033e+07
1.14365e+07
1.28092e+07
1.43779e+07
1.54497e+07
1.61199e+07
2.24332e+07
2.1356e+07
2.10893e+07
2.34867e+07
9.89728e+06
8.18273e+06
8.65698e+06
9.00962e+06
9.24072e+06
9.54747e+06
9.93807e+06
1.05415e+07
1.16216e+07
1.33365e+07
1.49552e+07
1.6756e+07
1.93606e+07
1.62706e+07
1.34977e+07
1.27149e+07
4.01673e+06
8.30384e+06
1.01896e+07
9.27684e+06
1.80154e+06
2.70888e+06
3.95407e+06
5.20515e+06
6.31253e+06
7.08176e+06
7.66428e+06
8.39544e+06
9.24664e+06
1.06121e+07
1.23362e+07
1.48041e+07
1.63632e+07
1.18995e+07
8.31667e+06
5.10673e+06
6.32324e+06
8.9634e+06
1.00182e+07
7.80982e+06
2.84129e+06
1.39617e+06
1.80591e+06
2.53477e+06
3.62776e+06
4.66957e+06
5.59481e+06
6.42549e+06
7.40133e+06
8.56126e+06
1.01333e+07
1.29043e+07
1.39036e+07
9.28276e+06
6.50712e+06
5.65936e+06
6.87937e+06
9.013e+06
9.92768e+06
8.26502e+06
4.16918e+06
1.79596e+06
1.54861e+06
1.6468e+06
2.03394e+06
2.84005e+06
3.83443e+06
4.81185e+06
5.68404e+06
6.80742e+06
8.06668e+06
1.07449e+07
1.24165e+07
8.57767e+06
6.89896e+06
6.39611e+06
7.45642e+06
9.12991e+06
9.8316e+06
8.6133e+06
5.39558e+06
2.66062e+06
1.61717e+06
1.5204e+06
1.61294e+06
1.98562e+06
2.69921e+06
3.62217e+06
4.47019e+06
5.35597e+06
6.47194e+06
8.87877e+06
1.17058e+07
8.71214e+06
7.68117e+06
7.34061e+06
8.1146e+06
9.35754e+06
9.86126e+06
8.84667e+06
6.40055e+06
3.84036e+06
2.1336e+06
1.59089e+06
1.67726e+06
1.82404e+06
2.12266e+06
2.71478e+06
3.43548e+06
4.26952e+06
5.20866e+06
7.29624e+06
1.14325e+07
9.12246e+06
8.69082e+06
8.519e+06
9.01018e+06
9.81387e+06
1.00065e+07
9.17567e+06
7.10699e+06
4.87838e+06
3.01498e+06
2.04706e+06
1.82326e+06
1.88079e+06
1.9969e+06
2.2746e+06
2.80837e+06
3.57977e+06
4.3781e+06
6.17744e+06
1.14394e+07
9.60133e+06
9.69641e+06
9.74608e+06
1.03479e+07
1.06057e+07
1.04132e+07
9.60195e+06
7.65303e+06
5.77308e+06
4.03292e+06
2.85266e+06
2.20504e+06
2.02421e+06
2.05469e+06
2.25632e+06
2.62973e+06
3.1968e+06
3.86636e+06
5.40562e+06
1.17857e+07
1.00783e+07
1.04183e+07
1.10892e+07
1.18214e+07
1.18854e+07
1.11789e+07
1.02372e+07
8.36156e+06
6.56666e+06
5.01516e+06
3.82135e+06
2.87727e+06
2.39156e+06
2.29994e+06
2.38866e+06
2.65163e+06
3.05122e+06
3.55184e+06
4.81951e+06
1.21737e+07
1.05679e+07
1.11534e+07
1.20417e+07
1.31045e+07
1.34901e+07
1.25345e+07
1.13379e+07
9.21093e+06
7.51333e+06
5.87925e+06
4.67879e+06
3.63098e+06
2.98326e+06
2.71967e+06
2.71792e+06
2.82227e+06
3.07899e+06
3.45151e+06
4.46013e+06
1.26347e+07
1.09637e+07
1.16171e+07
1.23998e+07
1.38601e+07
1.47012e+07
1.39956e+07
1.30286e+07
1.05715e+07
8.66928e+06
7.01152e+06
5.58294e+06
4.48576e+06
3.77848e+06
3.36252e+06
3.18362e+06
3.17876e+06
3.26991e+06
3.51918e+06
4.33215e+06
1.30196e+07
1.13156e+07
1.19804e+07
1.2691e+07
1.40383e+07
1.49892e+07
1.50629e+07
1.45734e+07
1.22101e+07
1.01988e+07
8.25417e+06
6.70002e+06
5.44624e+06
4.60684e+06
4.08732e+06
3.76598e+06
3.60715e+06
3.605e+06
3.79073e+06
4.44332e+06
1.36426e+07
1.18788e+07
1.24747e+07
1.3097e+07
1.42474e+07
1.51428e+07
1.58006e+07
1.64172e+07
1.46393e+07
1.28986e+07
1.08961e+07
9.11663e+06
7.57842e+06
6.48077e+06
5.72372e+06
5.14964e+06
4.7295e+06
4.52154e+06
4.5866e+06
4.97694e+06
3.3828e+07
3.32281e+07
3.34241e+07
2.95397e+07
2.75547e+07
2.63151e+07
2.43888e+07
2.17986e+07
1.87658e+07
1.5805e+07
1.33298e+07
1.177e+07
1.10717e+07
1.08242e+07
1.08058e+07
1.11423e+07
1.15603e+07
1.20245e+07
1.24085e+07
1.30004e+07
3.31604e+07
3.21823e+07
3.23039e+07
2.49517e+07
2.46934e+07
2.56657e+07
2.44144e+07
2.11153e+07
1.6035e+07
1.16301e+07
8.91621e+06
8.03171e+06
8.17919e+06
8.548e+06
8.99592e+06
9.45998e+06
9.99521e+06
1.04213e+07
1.07696e+07
1.1323e+07
3.3197e+07
3.24125e+07
2.50349e+07
2.02747e+07
2.34792e+07
2.61161e+07
2.52499e+07
2.11277e+07
1.35049e+07
8.14305e+06
6.14402e+06
6.43981e+06
7.14617e+06
8.05817e+06
9.01184e+06
9.73452e+06
1.0528e+07
1.10712e+07
1.14444e+07
1.19601e+07
2.94668e+07
2.48363e+07
2.02642e+07
1.74215e+07
2.00297e+07
2.66213e+07
2.7009e+07
2.35181e+07
1.34744e+07
4.89136e+06
5.36341e+06
5.99234e+06
6.83495e+06
7.9224e+06
9.07892e+06
1.03739e+07
1.14673e+07
1.1882e+07
1.21761e+07
1.2599e+07
2.72437e+07
2.40457e+07
2.24997e+07
1.87484e+07
3.91589e+06
6.19548e+06
6.6337e+06
7.1296e+06
7.71501e+06
8.52042e+06
9.72326e+06
1.11916e+07
1.2404e+07
1.33745e+07
1.35845e+07
1.38515e+07
2.5699e+07
2.48823e+07
2.5098e+07
2.564e+07
8.41502e+06
9.00172e+06
8.96575e+06
9.00209e+06
9.13349e+06
9.45918e+06
1.00933e+07
1.11768e+07
1.27293e+07
1.39358e+07
1.45887e+07
1.47916e+07
2.37259e+07
2.35783e+07
2.44097e+07
2.61674e+07
1.04855e+07
1.025e+07
1.0042e+07
9.80491e+06
9.65417e+06
9.69829e+06
9.94628e+06
1.05238e+07
1.16882e+07
1.32021e+07
1.42482e+07
1.52365e+07
2.1183e+07
2.04507e+07
2.04248e+07
2.27394e+07
9.69957e+06
7.8876e+06
8.23786e+06
8.50567e+06
8.67163e+06
8.89271e+06
9.22585e+06
9.71661e+06
1.05869e+07
1.20959e+07
1.36284e+07
1.55152e+07
1.82204e+07
1.54716e+07
1.29326e+07
1.26656e+07
3.97208e+06
8.19787e+06
1.00212e+07
9.12227e+06
1.74297e+06
2.57939e+06
3.74504e+06
4.86161e+06
5.83565e+06
6.56679e+06
7.08728e+06
7.72223e+06
8.43755e+06
9.54325e+06
1.10798e+07
1.35116e+07
1.53337e+07
1.12047e+07
7.84378e+06
4.87525e+06
6.16224e+06
8.80778e+06
9.83918e+06
7.6406e+06
2.74569e+06
1.19055e+06
1.60299e+06
2.31671e+06
3.26911e+06
4.21156e+06
5.08385e+06
5.8586e+06
6.70712e+06
7.6938e+06
9.03015e+06
1.16253e+07
1.29325e+07
8.56128e+06
5.95878e+06
5.34137e+06
6.59763e+06
8.73159e+06
9.65748e+06
7.96753e+06
3.94814e+06
1.6186e+06
1.32387e+06
1.43673e+06
1.78715e+06
2.50076e+06
3.4275e+06
4.33904e+06
5.10031e+06
6.04656e+06
7.15966e+06
9.60518e+06
1.14848e+07
7.84254e+06
6.25695e+06
5.93276e+06
7.0613e+06
8.75338e+06
9.43202e+06
8.20872e+06
5.08274e+06
2.41757e+06
1.4101e+06
1.32349e+06
1.38616e+06
1.72662e+06
2.36571e+06
3.15781e+06
3.92013e+06
4.7108e+06
5.72564e+06
7.90794e+06
1.08346e+07
7.98298e+06
6.95441e+06
6.71323e+06
7.58328e+06
8.86192e+06
9.3414e+06
8.36093e+06
5.99598e+06
3.47756e+06
1.84809e+06
1.36401e+06
1.45205e+06
1.58212e+06
1.78666e+06
2.29846e+06
3.00482e+06
3.75931e+06
4.63379e+06
6.48069e+06
1.06011e+07
8.38577e+06
7.88015e+06
7.75116e+06
8.32326e+06
9.17415e+06
9.39948e+06
8.58077e+06
6.65508e+06
4.44956e+06
2.65699e+06
1.76743e+06
1.57753e+06
1.614e+06
1.69787e+06
1.96559e+06
2.46725e+06
3.15714e+06
3.88985e+06
5.44086e+06
1.05615e+07
8.84302e+06
8.88949e+06
8.92445e+06
9.46692e+06
9.7975e+06
9.66698e+06
8.92762e+06
7.11533e+06
5.29869e+06
3.62583e+06
2.50101e+06
1.85099e+06
1.7103e+06
1.74807e+06
1.95521e+06
2.30383e+06
2.7929e+06
3.33524e+06
4.68499e+06
1.08778e+07
9.28778e+06
9.58364e+06
1.0126e+07
1.09011e+07
1.0895e+07
1.02607e+07
9.4392e+06
7.71346e+06
6.02726e+06
4.55536e+06
3.35345e+06
2.44383e+06
2.06112e+06
1.98864e+06
2.09061e+06
2.33119e+06
2.64903e+06
3.04038e+06
4.20972e+06
1.12607e+07
9.78022e+06
1.03232e+07
1.12204e+07
1.21124e+07
1.24055e+07
1.14402e+07
1.03436e+07
8.42193e+06
6.8507e+06
5.31443e+06
4.14589e+06
3.19458e+06
2.63026e+06
2.37877e+06
2.38908e+06
2.453e+06
2.63159e+06
2.98501e+06
3.97376e+06
1.16973e+07
1.01707e+07
1.08234e+07
1.16433e+07
1.30659e+07
1.36406e+07
1.28777e+07
1.18658e+07
9.55173e+06
7.84093e+06
6.29152e+06
4.97681e+06
3.99404e+06
3.35975e+06
2.95381e+06
2.7589e+06
2.71574e+06
2.80652e+06
3.08502e+06
3.85169e+06
1.20623e+07
1.05044e+07
1.11806e+07
1.19255e+07
1.32663e+07
1.42383e+07
1.39264e+07
1.33246e+07
1.1055e+07
9.17409e+06
7.4095e+06
6.00952e+06
4.90192e+06
4.1418e+06
3.57011e+06
3.22565e+06
3.13162e+06
3.16416e+06
3.35728e+06
3.94835e+06
1.26392e+07
1.10371e+07
1.16759e+07
1.23308e+07
1.35211e+07
1.445e+07
1.49362e+07
1.52371e+07
1.34396e+07
1.17257e+07
9.84872e+06
8.22145e+06
6.81836e+06
5.78082e+06
5.01489e+06
4.50573e+06
4.22253e+06
4.05778e+06
4.0689e+06
4.37468e+06
3.3449e+07
3.29945e+07
3.31653e+07
2.89373e+07
2.67647e+07
2.57358e+07
2.39532e+07
2.14215e+07
1.84427e+07
1.54963e+07
1.30283e+07
1.14363e+07
1.07601e+07
1.05631e+07
1.05452e+07
1.0865e+07
1.12677e+07
1.17216e+07
1.20956e+07
1.26766e+07
3.29559e+07
3.20396e+07
3.18312e+07
2.41519e+07
2.40432e+07
2.50527e+07
2.39662e+07
2.07695e+07
1.57252e+07
1.14002e+07
8.74023e+06
7.78329e+06
7.95023e+06
8.29201e+06
8.76917e+06
9.24436e+06
9.79163e+06
1.02294e+07
1.05631e+07
1.1096e+07
3.27364e+07
3.20201e+07
2.3258e+07
1.93545e+07
2.28364e+07
2.54977e+07
2.47363e+07
2.07355e+07
1.30753e+07
7.96999e+06
6.06052e+06
6.2894e+06
6.88349e+06
7.70686e+06
8.71245e+06
9.49079e+06
1.02839e+07
1.08731e+07
1.12336e+07
1.1748e+07
2.8497e+07
2.36132e+07
1.89229e+07
1.65033e+07
1.96504e+07
2.59597e+07
2.63905e+07
2.29316e+07
1.28021e+07
4.741e+06
5.23093e+06
5.8625e+06
6.68803e+06
7.75531e+06
8.93859e+06
1.01354e+07
1.13426e+07
1.18025e+07
1.20637e+07
1.24385e+07
2.63039e+07
2.32895e+07
2.19465e+07
1.81258e+07
3.48564e+06
5.8954e+06
6.33648e+06
6.88832e+06
7.52888e+06
8.36168e+06
9.53422e+06
1.10693e+07
1.22829e+07
1.34073e+07
1.37246e+07
1.39441e+07
2.50726e+07
2.42924e+07
2.462e+07
2.51419e+07
7.9133e+06
8.66095e+06
8.66543e+06
8.72393e+06
8.86507e+06
9.18012e+06
9.78771e+06
1.08632e+07
1.2577e+07
1.40413e+07
1.50047e+07
1.51603e+07
2.33293e+07
2.32598e+07
2.40422e+07
2.56085e+07
9.89646e+06
9.91623e+06
9.74259e+06
9.57618e+06
9.4923e+06
9.55436e+06
9.78635e+06
1.03335e+07
1.14375e+07
1.31997e+07
1.44342e+07
1.55884e+07
2.08265e+07
2.01652e+07
2.01914e+07
2.22743e+07
9.21685e+06
7.69814e+06
8.01516e+06
8.29567e+06
8.53516e+06
8.7436e+06
9.07463e+06
9.52263e+06
1.03077e+07
1.17299e+07
1.3485e+07
1.56571e+07
1.78987e+07
1.52375e+07
1.27345e+07
1.25376e+07
3.60625e+06
7.95994e+06
9.73504e+06
8.87403e+06
1.58632e+06
2.54874e+06
3.7105e+06
4.78067e+06
5.66025e+06
6.46247e+06
7.00804e+06
7.5937e+06
8.27687e+06
9.22164e+06
1.07159e+07
1.34065e+07
1.50194e+07
1.09652e+07
7.60765e+06
4.58425e+06
5.83646e+06
8.5685e+06
9.5915e+06
7.34172e+06
2.50714e+06
1.01967e+06
1.43152e+06
2.17051e+06
3.11755e+06
4.09083e+06
4.97377e+06
5.73688e+06
6.52333e+06
7.43989e+06
8.63177e+06
1.12866e+07
1.26021e+07
8.31351e+06
5.7561e+06
5.07683e+06
6.24567e+06
8.53986e+06
9.44061e+06
7.69194e+06
3.67601e+06
1.42973e+06
1.09547e+06
1.25824e+06
1.67243e+06
2.35352e+06
3.25467e+06
4.1369e+06
4.96084e+06
5.80412e+06
6.83628e+06
9.19065e+06
1.1095e+07
7.48738e+06
5.9793e+06
5.6787e+06
6.75229e+06
8.59547e+06
9.30247e+06
7.97134e+06
4.83952e+06
2.187e+06
1.24186e+06
1.19456e+06
1.25206e+06
1.53786e+06
2.13379e+06
2.95131e+06
3.79546e+06
4.54901e+06
5.44091e+06
7.47435e+06
1.04488e+07
7.6629e+06
6.62527e+06
6.473e+06
7.32881e+06
8.73271e+06
9.24154e+06
8.20787e+06
5.76614e+06
3.23781e+06
1.70088e+06
1.2258e+06
1.29244e+06
1.40483e+06
1.63213e+06
2.13514e+06
2.85576e+06
3.58201e+06
4.34846e+06
6.07516e+06
1.02521e+07
8.03991e+06
7.4994e+06
7.49618e+06
8.09e+06
9.03607e+06
9.30649e+06
8.43355e+06
6.5399e+06
4.28975e+06
2.48749e+06
1.57015e+06
1.39263e+06
1.47031e+06
1.56067e+06
1.79836e+06
2.27198e+06
2.88661e+06
3.58755e+06
5.08163e+06
1.02196e+07
8.55371e+06
8.58271e+06
8.71715e+06
9.19925e+06
9.61547e+06
9.53324e+06
8.80199e+06
7.052e+06
5.19702e+06
3.45736e+06
2.26874e+06
1.67928e+06
1.56048e+06
1.5828e+06
1.76349e+06
2.08865e+06
2.54888e+06
3.10754e+06
4.39049e+06
1.05357e+07
9.03802e+06
9.36488e+06
9.87809e+06
1.07571e+07
1.06513e+07
1.0078e+07
9.29364e+06
7.62243e+06
5.94482e+06
4.38265e+06
3.16183e+06
2.27795e+06
1.86803e+06
1.77994e+06
1.87738e+06
2.12289e+06
2.48637e+06
2.88171e+06
3.97337e+06
1.09241e+07
9.56271e+06
1.01258e+07
1.11403e+07
1.20325e+07
1.22998e+07
1.11752e+07
1.01112e+07
8.29388e+06
6.72752e+06
5.20951e+06
4.06072e+06
3.07298e+06
2.42141e+06
2.1415e+06
2.1677e+06
2.27736e+06
2.49244e+06
2.81515e+06
3.7531e+06
1.13557e+07
9.96507e+06
1.06663e+07
1.16351e+07
1.31712e+07
1.3785e+07
1.28831e+07
1.15448e+07
9.24927e+06
7.63853e+06
6.09386e+06
4.86024e+06
3.84083e+06
3.09082e+06
2.67947e+06
2.57002e+06
2.55603e+06
2.62636e+06
2.87693e+06
3.60172e+06
1.17187e+07
1.02845e+07
1.10057e+07
1.18725e+07
1.3417e+07
1.46337e+07
1.40646e+07
1.32402e+07
1.07411e+07
8.84731e+06
7.16458e+06
5.78969e+06
4.65336e+06
3.84126e+06
3.30869e+06
3.02027e+06
2.94043e+06
2.94722e+06
3.11139e+06
3.68336e+06
1.23005e+07
1.08002e+07
1.14868e+07
1.22094e+07
1.36192e+07
1.47714e+07
1.52467e+07
1.53738e+07
1.33804e+07
1.14823e+07
9.53571e+06
7.85868e+06
6.43735e+06
5.40762e+06
4.67582e+06
4.21307e+06
3.97044e+06
3.78834e+06
3.78498e+06
4.08953e+06
3.31581e+07
3.27411e+07
3.27051e+07
2.8142e+07
2.60204e+07
2.5157e+07
2.34929e+07
2.10205e+07
1.80183e+07
1.51548e+07
1.27405e+07
1.11542e+07
1.05009e+07
1.03352e+07
1.03444e+07
1.06775e+07
1.10872e+07
1.15255e+07
1.18777e+07
1.24129e+07
3.27585e+07
3.19531e+07
3.05985e+07
2.32491e+07
2.34203e+07
2.45798e+07
2.3653e+07
2.04823e+07
1.53667e+07
1.10444e+07
8.44933e+06
7.58112e+06
7.77179e+06
8.10262e+06
8.62531e+06
9.14667e+06
9.71135e+06
1.01433e+07
1.04627e+07
1.0947e+07
3.23524e+07
3.14794e+07
2.19494e+07
1.86382e+07
2.22292e+07
2.51378e+07
2.44556e+07
2.05047e+07
1.26745e+07
7.5869e+06
5.83869e+06
6.0964e+06
6.71438e+06
7.54764e+06
8.63476e+06
9.46904e+06
1.02477e+07
1.08358e+07
1.11877e+07
1.16554e+07
2.78282e+07
2.27848e+07
1.82273e+07
1.59619e+07
1.8845e+07
2.55038e+07
2.5901e+07
2.24216e+07
1.20169e+07
4.52443e+06
5.05607e+06
5.69718e+06
6.54804e+06
7.68696e+06
9.0156e+06
1.01975e+07
1.14362e+07
1.18388e+07
1.20557e+07
1.23459e+07
2.56408e+07
2.28655e+07
2.17492e+07
1.85364e+07
3.72492e+06
5.89818e+06
6.30615e+06
6.84299e+06
7.48223e+06
8.32098e+06
9.50415e+06
1.11217e+07
1.2427e+07
1.35449e+07
1.3931e+07
1.4062e+07
2.46233e+07
2.39533e+07
2.44687e+07
2.47598e+07
8.01986e+06
8.82952e+06
8.81135e+06
8.85579e+06
8.99336e+06
9.29225e+06
9.83676e+06
1.07865e+07
1.24625e+07
1.42569e+07
1.54796e+07
1.55503e+07
2.30148e+07
2.31203e+07
2.39134e+07
2.52508e+07
9.97436e+06
1.00158e+07
9.851e+06
9.70032e+06
9.59431e+06
9.64559e+06
9.83206e+06
1.0292e+07
1.1243e+07
1.29646e+07
1.4806e+07
1.60086e+07
2.05869e+07
2.00442e+07
2.01048e+07
2.19672e+07
9.24633e+06
7.62254e+06
7.98486e+06
8.2751e+06
8.56987e+06
8.76469e+06
9.07057e+06
9.48159e+06
1.01485e+07
1.13516e+07
1.32035e+07
1.57857e+07
1.76429e+07
1.51044e+07
1.25564e+07
1.20287e+07
3.72874e+06
7.9128e+06
9.69645e+06
8.73419e+06
1.47322e+06
2.3894e+06
3.55506e+06
4.68876e+06
5.58061e+06
6.44591e+06
7.07807e+06
7.61205e+06
8.25314e+06
9.01624e+06
1.03308e+07
1.31863e+07
1.47922e+07
1.08293e+07
7.45614e+06
4.44724e+06
5.80663e+06
8.62699e+06
9.64884e+06
7.3463e+06
2.51104e+06
923965
1.30292e+06
2.03322e+06
2.97743e+06
4.02707e+06
5.00379e+06
5.79694e+06
6.50407e+06
7.33643e+06
8.3626e+06
1.09457e+07
1.23725e+07
8.21272e+06
5.64373e+06
4.94215e+06
6.17903e+06
8.59973e+06
9.51274e+06
7.72074e+06
3.67676e+06
1.35403e+06
934708
1.09858e+06
1.56801e+06
2.30132e+06
3.20397e+06
4.07232e+06
4.93787e+06
5.73968e+06
6.70076e+06
8.86012e+06
1.07697e+07
7.24824e+06
5.84531e+06
5.52259e+06
6.66218e+06
8.64489e+06
9.39252e+06
8.00471e+06
4.82037e+06
2.10225e+06
1.1154e+06
1.09822e+06
1.1707e+06
1.41633e+06
1.99238e+06
2.80282e+06
3.7411e+06
4.56835e+06
5.3598e+06
7.16025e+06
1.00991e+07
7.41785e+06
6.39663e+06
6.30137e+06
7.23813e+06
8.76981e+06
9.31567e+06
8.27455e+06
5.71115e+06
3.13121e+06
1.62251e+06
1.14876e+06
1.19187e+06
1.2698e+06
1.5065e+06
2.03001e+06
2.80113e+06
3.56447e+06
4.26051e+06
5.80783e+06
9.91064e+06
7.72616e+06
7.17255e+06
7.30073e+06
7.99301e+06
9.04574e+06
9.37184e+06
8.47335e+06
6.527e+06
4.22246e+06
2.43226e+06
1.43614e+06
1.24838e+06
1.32943e+06
1.44403e+06
1.68222e+06
2.17233e+06
2.7889e+06
3.42831e+06
4.82018e+06
9.87836e+06
8.22036e+06
8.19283e+06
8.4989e+06
9.06369e+06
9.56258e+06
9.55453e+06
8.81131e+06
7.10596e+06
5.19428e+06
3.36792e+06
2.07505e+06
1.51468e+06
1.43091e+06
1.48017e+06
1.63859e+06
1.95114e+06
2.37093e+06
2.92582e+06
4.1757e+06
1.01792e+07
8.70517e+06
9.02971e+06
9.61453e+06
1.05588e+07
1.04589e+07
1.00163e+07
9.25217e+06
7.62051e+06
5.93843e+06
4.23874e+06
2.94054e+06
2.10317e+06
1.71357e+06
1.63005e+06
1.70695e+06
1.94726e+06
2.30545e+06
2.73997e+06
3.80281e+06
1.05596e+07
9.24172e+06
9.79028e+06
1.08828e+07
1.18731e+07
1.20431e+07
1.0953e+07
9.94766e+06
8.23389e+06
6.63544e+06
5.07591e+06
3.89557e+06
2.92694e+06
2.25337e+06
1.9563e+06
1.95857e+06
2.07828e+06
2.33346e+06
2.69024e+06
3.60709e+06
1.09952e+07
9.68298e+06
1.04063e+07
1.14128e+07
1.30412e+07
1.37983e+07
1.26323e+07
1.1166e+07
8.99497e+06
7.43607e+06
5.8931e+06
4.74797e+06
3.71774e+06
2.89854e+06
2.41877e+06
2.33111e+06
2.36229e+06
2.4721e+06
2.7334e+06
3.4417e+06
1.13463e+07
9.99878e+06
1.07554e+07
1.16434e+07
1.34865e+07
1.49633e+07
1.43453e+07
1.29695e+07
1.03111e+07
8.47198e+06
6.87988e+06
5.57748e+06
4.43292e+06
3.54926e+06
2.99135e+06
2.79352e+06
2.75375e+06
2.77924e+06
2.93901e+06
3.4771e+06
1.19154e+07
1.05054e+07
1.12476e+07
1.19707e+07
1.364e+07
1.50522e+07
1.55453e+07
1.54692e+07
1.31248e+07
1.1061e+07
9.08572e+06
7.41131e+06
6.0151e+06
4.97565e+06
4.28611e+06
3.91415e+06
3.74053e+06
3.58879e+06
3.54683e+06
3.82431e+06
3.28917e+07
3.24604e+07
3.22563e+07
2.74901e+07
2.5541e+07
2.4833e+07
2.32372e+07
2.07779e+07
1.77189e+07
1.48333e+07
1.243e+07
1.08772e+07
1.02491e+07
1.01133e+07
1.01586e+07
1.05158e+07
1.09697e+07
1.14379e+07
1.17971e+07
1.23433e+07
3.25763e+07
3.18947e+07
2.98503e+07
2.26618e+07
2.30806e+07
2.43196e+07
2.3472e+07
2.02984e+07
1.50885e+07
1.07402e+07
8.16678e+06
7.32463e+06
7.52833e+06
7.88128e+06
8.42725e+06
8.99568e+06
9.61854e+06
1.01012e+07
1.0433e+07
1.09271e+07
3.19764e+07
3.0814e+07
2.11868e+07
1.82177e+07
2.20125e+07
2.49433e+07
2.42784e+07
2.03689e+07
1.24152e+07
7.3121e+06
5.63096e+06
5.88087e+06
6.49065e+06
7.31675e+06
8.43637e+06
9.34021e+06
1.01374e+07
1.07566e+07
1.11169e+07
1.16284e+07
2.73482e+07
2.2322e+07
1.79143e+07
1.56315e+07
1.87925e+07
2.51982e+07
2.5689e+07
2.23583e+07
1.19719e+07
4.42504e+06
4.97089e+06
5.59245e+06
6.41088e+06
7.50277e+06
8.86133e+06
1.00778e+07
1.14216e+07
1.18604e+07
1.20678e+07
1.23486e+07
2.53688e+07
2.26916e+07
2.15305e+07
1.83354e+07
3.7309e+06
5.9831e+06
6.38859e+06
6.88945e+06
7.4835e+06
8.27143e+06
9.40885e+06
1.10304e+07
1.24172e+07
1.35764e+07
1.40945e+07
1.42189e+07
2.4408e+07
2.37606e+07
2.43799e+07
2.47186e+07
8.18066e+06
9.06983e+06
9.05591e+06
9.09363e+06
9.19715e+06
9.43737e+06
9.90856e+06
1.07489e+07
1.22828e+07
1.41784e+07
1.56611e+07
1.58393e+07
2.28781e+07
2.30512e+07
2.38834e+07
2.52413e+07
1.01874e+07
1.02966e+07
1.01419e+07
9.99344e+06
9.80763e+06
9.81689e+06
9.91935e+06
1.02788e+07
1.11104e+07
1.26176e+07
1.47513e+07
1.61571e+07
2.0459e+07
1.9967e+07
2.00692e+07
2.1974e+07
9.35161e+06
7.74264e+06
8.1649e+06
8.45505e+06
8.73167e+06
8.89885e+06
9.1664e+06
9.52761e+06
1.01041e+07
1.11316e+07
1.28219e+07
1.55663e+07
1.74982e+07
1.49863e+07
1.23915e+07
1.18311e+07
3.62151e+06
7.92476e+06
9.83978e+06
8.9334e+06
1.43142e+06
2.37138e+06
3.55105e+06
4.74365e+06
5.66132e+06
6.51811e+06
7.14904e+06
7.6478e+06
8.27154e+06
8.94769e+06
1.00701e+07
1.28292e+07
1.46399e+07
1.06858e+07
7.31551e+06
4.36564e+06
5.78569e+06
8.73141e+06
9.86891e+06
7.54737e+06
2.60147e+06
907489
1.28963e+06
1.99619e+06
2.96192e+06
4.03769e+06
5.04802e+06
5.85941e+06
6.53893e+06
7.30883e+06
8.18653e+06
1.05847e+07
1.22449e+07
8.10653e+06
5.55627e+06
4.85659e+06
6.14679e+06
8.68432e+06
9.72191e+06
7.92033e+06
3.7956e+06
1.38505e+06
863836
1.0376e+06
1.54509e+06
2.32044e+06
3.23244e+06
4.07747e+06
4.90361e+06
5.70248e+06
6.58903e+06
8.57219e+06
1.06538e+07
7.17232e+06
5.78639e+06
5.4359e+06
6.61727e+06
8.71572e+06
9.58793e+06
8.17586e+06
4.94126e+06
2.13659e+06
1.06938e+06
1.05466e+06
1.14752e+06
1.38191e+06
1.93204e+06
2.73573e+06
3.70236e+06
4.55988e+06
5.33129e+06
6.97575e+06
9.97579e+06
7.33673e+06
6.32763e+06
6.22488e+06
7.18897e+06
8.81824e+06
9.43538e+06
8.40739e+06
5.79955e+06
3.14697e+06
1.60084e+06
1.12574e+06
1.16654e+06
1.20342e+06
1.45408e+06
1.98769e+06
2.7756e+06
3.55997e+06
4.2287e+06
5.66192e+06
9.78049e+06
7.61228e+06
7.05226e+06
7.24129e+06
7.94673e+06
9.0598e+06
9.45997e+06
8.55929e+06
6.5851e+06
4.19544e+06
2.41811e+06
1.38708e+06
1.18082e+06
1.25155e+06
1.38793e+06
1.63167e+06
2.11046e+06
2.71564e+06
3.33242e+06
4.65392e+06
9.73892e+06
8.08469e+06
8.03929e+06
8.45419e+06
9.02635e+06
9.53431e+06
9.58828e+06
8.84e+06
7.13797e+06
5.1799e+06
3.3331e+06
1.98505e+06
1.44485e+06
1.37077e+06
1.43421e+06
1.57576e+06
1.85634e+06
2.27451e+06
2.83134e+06
4.04415e+06
1.00343e+07
8.57057e+06
8.87216e+06
9.54757e+06
1.05073e+07
1.03672e+07
9.97937e+06
9.22005e+06
7.59644e+06
5.92478e+06
4.17089e+06
2.8138e+06
2.00948e+06
1.63689e+06
1.56127e+06
1.62052e+06
1.83559e+06
2.22803e+06
2.70952e+06
3.72148e+06
1.04102e+07
9.10702e+06
9.60259e+06
1.07646e+07
1.17751e+07
1.18329e+07
1.08249e+07
9.82317e+06
8.18063e+06
6.58541e+06
4.96869e+06
3.76168e+06
2.81608e+06
2.14766e+06
1.84103e+06
1.82385e+06
1.97226e+06
2.30516e+06
2.69516e+06
3.53238e+06
1.08464e+07
9.55524e+06
1.02209e+07
1.12931e+07
1.29316e+07
1.36356e+07
1.22941e+07
1.08695e+07
8.8464e+06
7.33442e+06
5.76106e+06
4.61796e+06
3.61579e+06
2.77301e+06
2.27033e+06
2.22406e+06
2.3111e+06
2.4881e+06
2.7288e+06
3.3734e+06
1.11926e+07
9.87289e+06
1.05766e+07
1.15196e+07
1.35003e+07
1.50502e+07
1.43128e+07
1.25708e+07
9.98143e+06
8.21746e+06
6.66031e+06
5.43483e+06
4.30844e+06
3.39134e+06
2.83696e+06
2.7243e+06
2.72747e+06
2.75607e+06
2.88109e+06
3.38557e+06
1.17444e+07
1.03733e+07
1.10968e+07
1.18494e+07
1.36576e+07
1.52118e+07
1.55946e+07
1.52216e+07
1.2715e+07
1.06318e+07
8.69992e+06
7.13528e+06
5.77918e+06
4.7333e+06
4.09358e+06
3.78611e+06
3.61683e+06
3.47042e+06
3.4423e+06
3.7161e+06
3.28967e+07
3.24739e+07
3.22239e+07
2.74114e+07
2.54974e+07
2.48576e+07
2.32615e+07
2.07996e+07
1.77275e+07
1.48288e+07
1.24076e+07
1.08475e+07
1.02247e+07
1.00996e+07
1.01517e+07
1.05086e+07
1.09828e+07
1.14689e+07
1.18335e+07
1.23902e+07
3.25663e+07
3.1911e+07
2.98968e+07
2.25707e+07
2.308e+07
2.43753e+07
2.35166e+07
2.03216e+07
1.51113e+07
1.07591e+07
8.16479e+06
7.29458e+06
7.4939e+06
7.84871e+06
8.41145e+06
8.98855e+06
9.61722e+06
1.01234e+07
1.04609e+07
1.09657e+07
3.19617e+07
3.06762e+07
2.11018e+07
1.81316e+07
2.20846e+07
2.50205e+07
2.43324e+07
2.03783e+07
1.24236e+07
7.34378e+06
5.63093e+06
5.86437e+06
6.44751e+06
7.25699e+06
8.38579e+06
9.33687e+06
1.01505e+07
1.0789e+07
1.11549e+07
1.16682e+07
2.73456e+07
2.23437e+07
1.79581e+07
1.54888e+07
1.90963e+07
2.50677e+07
2.55633e+07
2.22302e+07
1.17926e+07
4.41269e+06
4.94219e+06
5.54888e+06
6.35564e+06
7.43113e+06
8.77823e+06
1.00184e+07
1.13834e+07
1.188e+07
1.20977e+07
1.23932e+07
2.53514e+07
2.26362e+07
2.14253e+07
1.77754e+07
3.53632e+06
5.88003e+06
6.27894e+06
6.78038e+06
7.37169e+06
8.15686e+06
9.29082e+06
1.09171e+07
1.23229e+07
1.35406e+07
1.41168e+07
1.42593e+07
2.44097e+07
2.37367e+07
2.43399e+07
2.46073e+07
8.23854e+06
8.93818e+06
8.92143e+06
8.96112e+06
9.0685e+06
9.31255e+06
9.78946e+06
1.06373e+07
1.21849e+07
1.41065e+07
1.565e+07
1.58731e+07
2.28645e+07
2.30466e+07
2.38867e+07
2.52188e+07
1.03941e+07
1.01876e+07
1.00295e+07
9.88118e+06
9.69986e+06
9.71037e+06
9.81547e+06
1.01842e+07
1.10286e+07
1.25478e+07
1.46982e+07
1.61572e+07
2.04265e+07
1.99352e+07
2.00472e+07
2.19173e+07
9.48045e+06
7.71289e+06
8.1156e+06
8.39871e+06
8.67068e+06
8.83701e+06
9.10382e+06
9.46369e+06
1.00376e+07
1.10629e+07
1.27608e+07
1.55395e+07
1.74983e+07
1.50004e+07
1.24095e+07
1.20459e+07
3.40624e+06
8.03773e+06
1.0022e+07
9.1081e+06
1.46091e+06
2.44691e+06
3.62992e+06
4.79679e+06
5.69851e+06
6.54118e+06
7.165e+06
7.64673e+06
8.25347e+06
8.9159e+06
1.00304e+07
1.27935e+07
1.46579e+07
1.07067e+07
7.33564e+06
4.36685e+06
5.82053e+06
8.81601e+06
9.91677e+06
7.51893e+06
2.5333e+06
908648
1.30779e+06
2.03991e+06
3.00518e+06
4.05126e+06
5.06352e+06
5.86375e+06
6.52169e+06
7.27919e+06
8.15484e+06
1.05558e+07
1.22726e+07
8.12113e+06
5.58111e+06
4.87238e+06
6.206e+06
8.78993e+06
9.7888e+06
7.90505e+06
3.71929e+06
1.36088e+06
855095
1.03441e+06
1.5383e+06
2.31814e+06
3.23078e+06
4.07467e+06
4.89051e+06
5.67249e+06
6.55876e+06
8.55298e+06
1.06967e+07
7.21623e+06
5.82026e+06
5.47682e+06
6.69981e+06
8.82767e+06
9.66868e+06
8.19087e+06
4.88222e+06
2.11042e+06
1.0551e+06
1.04514e+06
1.13363e+06
1.37423e+06
1.93467e+06
2.72632e+06
3.6651e+06
4.51037e+06
5.29939e+06
6.9506e+06
1.00229e+07
7.37602e+06
6.36404e+06
6.28889e+06
7.29473e+06
8.93635e+06
9.54168e+06
8.46672e+06
5.77844e+06
3.12206e+06
1.58026e+06
1.11949e+06
1.15839e+06
1.20216e+06
1.44266e+06
1.96565e+06
2.73775e+06
3.52645e+06
4.19585e+06
5.62496e+06
9.82712e+06
7.65266e+06
7.09779e+06
7.34097e+06
8.0757e+06
9.18716e+06
9.57252e+06
8.64436e+06
6.60938e+06
4.19219e+06
2.40277e+06
1.39071e+06
1.18905e+06
1.25507e+06
1.38052e+06
1.61505e+06
2.08294e+06
2.68838e+06
3.30042e+06
4.60698e+06
9.79562e+06
8.13293e+06
8.0952e+06
8.57008e+06
9.18056e+06
9.67045e+06
9.70925e+06
8.9377e+06
7.19243e+06
5.19475e+06
3.34443e+06
2.00096e+06
1.45117e+06
1.37181e+06
1.42821e+06
1.56446e+06
1.84387e+06
2.25601e+06
2.80064e+06
4.00023e+06
1.00904e+07
8.62438e+06
8.92961e+06
9.67071e+06
1.06947e+07
1.0517e+07
1.0115e+07
9.3279e+06
7.66673e+06
5.9511e+06
4.20915e+06
2.84456e+06
2.02572e+06
1.63897e+06
1.55749e+06
1.61577e+06
1.82967e+06
2.21343e+06
2.69127e+06
3.69115e+06
1.0456e+07
9.15591e+06
9.67733e+06
1.08712e+07
1.19542e+07
1.20109e+07
1.0985e+07
9.94468e+06
8.26631e+06
6.63417e+06
5.01966e+06
3.81342e+06
2.84862e+06
2.15882e+06
1.84698e+06
1.8316e+06
1.97309e+06
2.29926e+06
2.68413e+06
3.51677e+06
1.08759e+07
9.58047e+06
1.02703e+07
1.13413e+07
1.30989e+07
1.38174e+07
1.24798e+07
1.10139e+07
8.94616e+06
7.40731e+06
5.8209e+06
4.67961e+06
3.65404e+06
2.79987e+06
2.28515e+06
2.2342e+06
2.31565e+06
2.4872e+06
2.72506e+06
3.37303e+06
1.12148e+07
9.89367e+06
1.06145e+07
1.15592e+07
1.35832e+07
1.52313e+07
1.44644e+07
1.26976e+07
1.00992e+07
8.30623e+06
6.73327e+06
5.47982e+06
4.35386e+06
3.43085e+06
2.86152e+06
2.73799e+06
2.73462e+06
2.75879e+06
2.88349e+06
3.38661e+06
1.17405e+07
1.03753e+07
1.11023e+07
1.18646e+07
1.37064e+07
1.53411e+07
1.57597e+07
1.53457e+07
1.28435e+07
1.07265e+07
8.77985e+06
7.19234e+06
5.83717e+06
4.78836e+06
4.13625e+06
3.81596e+06
3.63909e+06
3.48697e+06
3.45092e+06
3.72129e+06
3.31297e+07
3.27286e+07
3.26578e+07
2.79912e+07
2.59355e+07
2.52194e+07
2.35482e+07
2.1065e+07
1.80132e+07
1.51216e+07
1.26904e+07
1.10951e+07
1.0457e+07
1.03031e+07
1.03299e+07
1.0677e+07
1.11272e+07
1.15923e+07
1.19548e+07
1.25172e+07
3.27764e+07
3.19823e+07
3.06173e+07
2.3095e+07
2.34446e+07
2.46984e+07
2.37499e+07
2.05431e+07
1.53446e+07
1.09989e+07
8.405e+06
7.50382e+06
7.69728e+06
8.03298e+06
8.56315e+06
9.10983e+06
9.7284e+06
1.02095e+07
1.05369e+07
1.10425e+07
3.23488e+07
3.13823e+07
2.18302e+07
1.84917e+07
2.24219e+07
2.53176e+07
2.45762e+07
2.05655e+07
1.26118e+07
7.52029e+06
5.77651e+06
6.01236e+06
6.62094e+06
7.44236e+06
8.52907e+06
9.40805e+06
1.02067e+07
1.0851e+07
1.1226e+07
1.17508e+07
2.78278e+07
2.27362e+07
1.81727e+07
1.56807e+07
1.941e+07
2.54331e+07
2.587e+07
2.24704e+07
1.19343e+07
4.49131e+06
5.00739e+06
5.63718e+06
6.47553e+06
7.58109e+06
8.89721e+06
1.01102e+07
1.13873e+07
1.18563e+07
1.20916e+07
1.24226e+07
2.55919e+07
2.27032e+07
2.14561e+07
1.78593e+07
3.52942e+06
5.81692e+06
6.24401e+06
6.77924e+06
7.39529e+06
8.20164e+06
9.34547e+06
1.09442e+07
1.22829e+07
1.3469e+07
1.39706e+07
1.41414e+07
2.45587e+07
2.38208e+07
2.43288e+07
2.46851e+07
7.91603e+06
8.68797e+06
8.69445e+06
8.74914e+06
8.89013e+06
9.17861e+06
9.70117e+06
1.06179e+07
1.22805e+07
1.41246e+07
1.54883e+07
1.56052e+07
2.29402e+07
2.30247e+07
2.38562e+07
2.52824e+07
9.90382e+06
9.85019e+06
9.71437e+06
9.58888e+06
9.48003e+06
9.52166e+06
9.68995e+06
1.01335e+07
1.10706e+07
1.27759e+07
1.47058e+07
1.60005e+07
2.05114e+07
1.99563e+07
2.00222e+07
2.19772e+07
9.12748e+06
7.56745e+06
7.93178e+06
8.22219e+06
8.5134e+06
8.71151e+06
9.01629e+06
9.4135e+06
1.0057e+07
1.12201e+07
1.30515e+07
1.57072e+07
1.75866e+07
1.49956e+07
1.23768e+07
1.17787e+07
3.51986e+06
7.96794e+06
9.89173e+06
8.93931e+06
1.43699e+06
2.48221e+06
3.67154e+06
4.78043e+06
5.66725e+06
6.51041e+06
7.11619e+06
7.61396e+06
8.2233e+06
8.95367e+06
1.02322e+07
1.30976e+07
1.47686e+07
1.0766e+07