/*--------------------------------*- C++ -*----------------------------------*\
  =========                 |
  \\      /  F ield         | OpenFOAM: The Open Source CFD Toolbox
   \\    /   O peration     | Website:  https://openfoam.org
    \\  /    A nd           | Version:  9
     \\/     M anipulation  |
\*---------------------------------------------------------------------------*/
FoamFile
{
    format      ascii;
    class       volVectorField;
    location    "0.005";
    object      rhoU;
}
// * * * * * * * * * * * * * * * * * * * * * * * * * * * * * * * * * * * * * //

dimensions      [1 -2 -1 0 0 0 0];

internalField   nonuniform List<vector> 
9720
(
(-11047.3 -11085.1 -808.528)
(-8694.38 -11811.5 -717.911)
(-7247.48 -12559.9 -924.48)
(-5677.42 -12531 -1032.57)
(-3563.08 -12907.5 -1021.07)
(-955.023 -12819 -948.587)
(1629.95 -11954.9 -934.43)
(3919.37 -10600.5 -747.419)
(5605.25 -8697.85 -737.557)
(6214.79 -6570.29 -503.174)
(6215.85 -4781.68 -455.181)
(6066.37 -3588.31 -445.029)
(6031.59 -2853.31 -389.685)
(6111.21 -2383.82 -342.591)
(6254.74 -2043.01 -376.754)
(6532.7 -1832.14 -388.643)
(6823.47 -1625.09 -383.115)
(7129.52 -1504.24 -385.822)
(7378.17 -1384.1 -419.368)
(7738.75 -1249.49 -459.374)
(-11731.6 -8676.5 -681.888)
(-9349.29 -9351.91 -566.521)
(-8155.51 -10185.7 -707.27)
(-7017.1 -9601.99 -800.748)
(-4342.33 -11379.4 -952.402)
(-1439.64 -12338.6 -898.582)
(1487.93 -11629.7 -867.75)
(4248.65 -9985.15 -649.545)
(5851.46 -6928.5 -531.584)
(5643.5 -4060.43 -315.86)
(5020.06 -2378.8 -270.399)
(4833.98 -1629.16 -276.329)
(5008.61 -1266.89 -264.903)
(5268.24 -1064.55 -250.056)
(5542.28 -979.934 -290.032)
(5824.58 -931.38 -309.724)
(6128.59 -872.854 -313.573)
(6373.47 -822.072 -312.503)
(6581.81 -764.631 -331.21)
(6888.38 -703.996 -373.682)
(-12432.6 -7209.06 -806.816)
(-10145.8 -8115.44 -599.714)
(-7917.13 -7883.96 -543.555)
(-7174.08 -7734.14 -681.023)
(-4574.52 -10767.2 -843.124)
(-1534.98 -12122.7 -806.95)
(1489.26 -11739.9 -775.928)
(4558.09 -9678.21 -618.14)
(5627.64 -5332.08 -356.212)
(4451.8 -2227.36 -194.701)
(3733.25 -1222.77 -218.978)
(4052.01 -944.363 -214.706)
(4528.77 -748.989 -217.908)
(5080.66 -657.178 -249.716)
(5603.29 -569.244 -296.196)
(6001.02 -533.217 -304.484)
(6433.82 -515.161 -285.527)
(6719.24 -476.514 -273.109)
(6936.58 -423.723 -250.195)
(7210.61 -379.763 -267.981)
(-12406 -5543.62 -818.9)
(-9567.39 -6894.88 -552.906)
(-7812.83 -7139.92 -488.199)
(-6884.22 -6689.43 -576.206)
(-5531.63 -8429.13 -698.661)
(-2616.3 -12076.3 -912.136)
(804.083 -12125.9 -918.048)
(4025.51 -10507.7 -784.158)
(5508.38 -5276.13 -439.431)
(3032.38 -963.521 -170.623)
(3375.31 -867.445 -167.327)
(3800.09 -817.032 -218.703)
(4353.84 -728.567 -251.883)
(5037.54 -605.977 -267.471)
(5707.25 -403.72 -321.846)
(6429.98 -185.371 -399.052)
(6933.91 -180.534 -430.681)
(7132.92 -167.06 -446.954)
(7299.3 -101.849 -442.29)
(7514.25 -33.94 -429.795)
(-12726.5 -3472.3 -963.923)
(-11154.9 -4238.58 -847.461)
(-10529.5 -4403.67 -706.809)
(-8404.94 -5330.7 -604.573)
(2499.64 -755.224 -149.941)
(3797.34 -659.762 -198.51)
(4091.69 -641.469 -223.77)
(4416.42 -607.891 -259.682)
(4803.04 -563.424 -300.846)
(5327.85 -474.72 -334.147)
(6108.29 -342.927 -428.155)
(6907.59 -165.685 -507.983)
(7556.62 141.888 -481.815)
(7914.77 293.307 -488.772)
(7999.1 389.187 -491.094)
(8100.81 421.192 -495.813)
(-12581 -885.257 -933.072)
(-12033.2 -1378.68 -890.339)
(-11783.5 -1487.16 -807.998)
(-11706.5 -2530.75 -909.361)
(4994.47 -458.639 -315.942)
(5401.97 -266.924 -301.433)
(5420.02 -263.532 -319.719)
(5472.66 -242.838 -331.653)
(5587.13 -209.249 -346.85)
(5825.02 -161.567 -360.292)
(6251.38 -43.8195 -403.96)
(6949.95 126.02 -473.409)
(7806.91 346.828 -473.393)
(8391.77 583.369 -499.829)
(8507.79 781.064 -522.396)
(8556.69 863.378 -539.053)
(-11682.8 1645.63 -950.52)
(-11300.4 1491.69 -897.769)
(-11457.6 1475.69 -808.644)
(-11850.2 837.644 -950.256)
(6114.53 123.3 -382.756)
(6027.33 366.632 -330.102)
(5952.2 356.57 -332.917)
(5840.32 358.317 -339.104)
(5808.47 362.749 -342.911)
(5855.97 389.776 -345.18)
(6037.56 460.813 -360.224)
(6430.55 597.316 -411.677)
(7161.69 843.866 -447.92)
(7961.07 1216.79 -443.326)
(8466.57 1489.75 -506.535)
(8797.05 1537.83 -538.226)
(-10369.1 3880.54 -770.619)
(-9728.05 4184.05 -686.232)
(-9416.63 4491.89 -656.268)
(-10205.2 3967.88 -831.98)
(5549.85 873.804 -331.513)
(4519.72 1074.07 -244.819)
(4768.45 1078.65 -263.911)
(4959.63 1058.13 -261.397)
(5095.64 1025.02 -269.47)
(5261.28 993.75 -296.48)
(5477.98 974.325 -312.731)
(5800.98 1025.67 -326.354)
(6367.17 1170.69 -357.598)
(7254.96 1444.64 -367.599)
(8079.39 1797.2 -388.924)
(8986.86 1929.64 -468.959)
(-8483.21 5517.61 -777.833)
(-6699.79 5720.78 -597.879)
(-5078.48 5453.89 -437.25)
(-4748.01 5178.12 -524.36)
(-733.763 2422.73 -180.237)
(-476.814 4844.13 -314.073)
(118.315 5849.34 -360.398)
(877.683 5241.75 -298.309)
(692.434 770.461 -49.035)
(1360.07 764.74 -72.5283)
(2077.01 972.738 -95.3056)
(2756.46 1157.12 -170.234)
(3342.87 1278.89 -229.069)
(3769.49 1324.64 -237.711)
(4096.86 1331.6 -226.707)
(4485.36 1352.36 -239.255)
(4942.78 1430.69 -268.714)
(5646.12 1641.43 -305.342)
(6507.29 2016.87 -339.721)
(7758.35 2369.46 -400.434)
(-6394.4 6099.03 -565.514)
(-3926.72 5504.05 -398.515)
(-2145.48 4341.26 -273.935)
(-957.77 3012.18 -196.353)
(-685.993 3723.76 -210.502)
(-280.489 5192.14 -291.253)
(367.041 5708.56 -307.828)
(1071 4352.63 -212.984)
(779.552 1464.75 -84.281)
(559.244 586.083 -21.3121)
(829.165 603.4 -57.8648)
(1238.18 783.281 -92.2906)
(1812.24 1027.93 -120.372)
(2367.71 1218.16 -141.998)
(2864.34 1343.14 -144.579)
(3310.79 1425.62 -166.46)
(3816.64 1520.02 -226.779)
(4427.68 1672.87 -247.105)
(5202.13 1995.3 -262.014)
(6580.83 2479.49 -283.633)
(-4655.52 6098.2 -520.521)
(-2317.81 4903.18 -342.148)
(-1204.29 3685.98 -281.569)
(-867.241 3357.72 -206.003)
(-668.371 4042.37 -240.059)
(-270.272 5215.36 -307.93)
(350.159 5654.68 -312.696)
(1065.56 4594.68 -231.04)
(1014.1 2209.86 -93.2938)
(598.366 854.609 -72.4305)
(610.461 627.171 -58.8967)
(723.047 601.804 -46.0611)
(954.896 693.002 -49.6993)
(1359.74 903.393 -63.3487)
(1859.2 1132.77 -84.496)
(2364.84 1319.8 -123.582)
(2830.91 1453.02 -168.449)
(3408.94 1607.58 -197.776)
(4033.58 1867.22 -192.54)
(5336.36 2387.6 -226.219)
(-3504.28 5966.34 -509.592)
(-1605.61 4762.49 -348.791)
(-944.612 3995.67 -279.403)
(-822.687 3784.41 -260.293)
(-637.2 4371.51 -279.174)
(-244.741 5276.7 -322.197)
(344.17 5598.34 -327.131)
(1037.36 4784.74 -237.956)
(1195.24 2874.77 -144.752)
(811.471 1327.07 -100.247)
(590.382 733.834 -54.7169)
(622.875 631.547 -29.6733)
(705.631 612.876 -23.5788)
(891.952 703.053 -32.0214)
(1231.06 904.795 -68.025)
(1679.13 1144.05 -106.152)
(2117.73 1333.08 -123.847)
(2575.22 1491.06 -142.379)
(3111.43 1704.39 -156.362)
(4268.1 2204.27 -190.713)
(-2788.69 5933.12 -445.291)
(-1250 4928.36 -324.985)
(-759.122 4461.2 -279.26)
(-741.218 4323.26 -292.118)
(-594.559 4745.86 -314.129)
(-208.927 5399.55 -340.007)
(351.156 5612.16 -340.445)
(1002.55 4923.69 -254.795)
(1295.32 3414.05 -194.734)
(1080.18 1935.77 -113.576)
(725.29 1019.22 -61.5181)
(600.128 712.93 -27.2698)
(677.327 687.958 -32.963)
(776.727 695.862 -55.3179)
(940.158 773.062 -75.5765)
(1218.14 949.422 -77.2457)
(1564.5 1143.89 -65.3501)
(1964.87 1334.58 -65.5361)
(2402.65 1535.93 -100.517)
(3395.3 1999.86 -146.831)
(-2327.19 6007.52 -396.656)
(-1050.03 5184.19 -307.731)
(-670.393 4987.98 -309.651)
(-628.472 4968.92 -309.281)
(-498.204 5249.8 -344.138)
(-157.661 5648.94 -355.273)
(375.913 5690.16 -345.23)
(972.525 5101.65 -285.812)
(1325.99 3809.7 -207.636)
(1264.67 2490.23 -118.807)
(959.374 1456.49 -61.138)
(723.525 931.223 -37.1487)
(691.014 787.952 -59.174)
(757.274 765.993 -81.8066)
(846.387 776.996 -71.0452)
(989.574 843.894 -40.9204)
(1227.56 995.914 -25.3899)
(1569.25 1205.44 -31.0644)
(1926.41 1405.71 -86.8917)
(2766.26 1833.15 -142.576)
(-1989.84 6133.12 -427.402)
(-969.933 5453.91 -346.47)
(-588.344 5515.01 -358.747)
(-446.335 5600.81 -353.643)
(-375.782 5973.18 -421.662)
(-44.1485 6080.26 -396.899)
(444.38 5906.39 -361.718)
(955.312 5336.77 -301.433)
(1325.07 4119.02 -202.74)
(1375.84 2973.65 -113.457)
(1187.46 1968.25 -70.4538)
(951.75 1310.45 -70.219)
(799.179 983.277 -77.7227)
(780.341 866.552 -71.7463)
(832.341 841.824 -30.1755)
(940.738 879.367 -20.1952)
(1109.54 976 -20.0384)
(1362.28 1132.29 -38.6995)
(1648.57 1317.18 -92.9717)
(2340.08 1712.3 -126.802)
(-1783.3 6396.57 -440.037)
(-921.211 5724.33 -366.324)
(-544.083 5900.34 -366.441)
(-231.472 6261.22 -429.612)
(-213.786 6722.27 -476.849)
(102.997 6772.56 -456.792)
(575.317 6316.72 -409.963)
(1010.04 5675.5 -314.226)
(1344.02 4496.38 -222.644)
(1447.58 3403.5 -136.346)
(1367.46 2477.87 -108.15)
(1199.64 1781.46 -102.549)
(1002.83 1293.1 -79.6076)
(884.229 1040.66 -44.1443)
(889.336 963.349 -22.8423)
(955.067 960.918 -42.0216)
(1083.83 1024.71 -38.5259)
(1273.73 1129.53 -53.7418)
(1486.42 1269.87 -82.3667)
(2029.58 1610.75 -88.8786)
(-1581.31 6671.89 -432.901)
(-860.894 6010.24 -367.769)
(-523.006 6317.63 -345.49)
(-218.07 6767.19 -462.54)
(95.1602 7342.25 -469.451)
(305.236 7595.09 -458.571)
(807.65 7038.54 -434.305)
(1153.9 6252.23 -341.288)
(1422.09 4953.08 -255.533)
(1535.34 3896.5 -201.944)
(1493.14 2942.41 -150.291)
(1386.74 2226.95 -109.863)
(1204.95 1656.81 -59.9792)
(1055.41 1303.66 -24.6569)
(1004.54 1147.88 -22.3093)
(1043.96 1112.91 -39.8616)
(1117.21 1121.78 -35.4219)
(1255.61 1175.4 -49.0105)
(1415.07 1278.56 -52.452)
(1827.35 1555.3 -45.865)
(-1464.84 6966.61 -434.605)
(-809.76 6243.59 -364.873)
(-482.029 6590.04 -329.724)
(-193.912 6977.95 -475.167)
(243.963 7729.04 -491.893)
(531.35 8182.65 -502.383)
(1168.54 7778.35 -428.829)
(1418.17 7126.37 -346.392)
(1630.69 5654.81 -290.985)
(1683.36 4506.28 -225.83)
(1645.72 3524.62 -172.659)
(1544.78 2695.03 -117.855)
(1395.51 2070.42 -53.1463)
(1266.35 1657.75 -25.0743)
(1186.47 1426.58 -41.0351)
(1172.02 1324.5 -57.7662)
(1206.42 1294.57 -52.0857)
(1285.17 1286.8 -44.2842)
(1391.14 1350.85 -19.3228)
(1713.42 1565.14 -11.8794)
(-1348.46 7206.49 -464.59)
(-753.357 6446.25 -381.359)
(-430.005 6803.93 -307.081)
(-123.903 7154.74 -474.528)
(341.069 7827.5 -509.971)
(725.615 8318.53 -534.735)
(1418.46 8281.37 -508.699)
(1731.52 7912.63 -383.544)
(1981.05 6477.57 -324.944)
(1992.1 5264.2 -236.916)
(1895.61 4145.26 -164.515)
(1755.9 3235.97 -130.588)
(1599.2 2521.03 -85.5685)
(1471.15 2031.02 -79.2049)
(1384.84 1739.71 -93.5636)
(1339.62 1567.77 -84.08)
(1331.46 1470.57 -54.974)
(1385.43 1417.46 -19.8554)
(1465.01 1451.74 1.9123)
(1716.16 1626.65 -22.3613)
(-1217.87 7562.33 -496.427)
(-693.458 6747.71 -415.498)
(-386.825 7076.32 -317.529)
(-55.1222 7385.29 -462.08)
(377.561 7952.9 -520.327)
(810.654 8392.41 -553.826)
(1466.78 8645.54 -544.348)
(1866.61 8833.79 -463.754)
(2310.39 7705.22 -388.928)
(2445.19 6610.77 -260.245)
(2392.4 5436.1 -199.143)
(2243.85 4403.39 -165.548)
(2063.26 3540.05 -130.006)
(1912.21 2909.55 -131.931)
(1804.76 2478.88 -121.718)
(1714.43 2163.18 -84.7203)
(1647.58 1928.79 -40.6696)
(1634.15 1775.76 -3.97107)
(1685.56 1756.31 -14.7449)
(1845.45 1833.36 -48.1641)
(-10621.6 -10676.6 -312.089)
(-8324.84 -11369.2 -158.995)
(-6943.85 -12060.2 -194.657)
(-5515.09 -11951.9 -167.774)
(-3447.2 -12365.2 -352.251)
(-944.355 -12333.1 -388.601)
(1531.08 -11526.9 -424.343)
(3730.12 -10216 -310.372)
(5336.52 -8350.72 -346.333)
(5890.46 -6285.45 -180.351)
(5860.32 -4554.11 -172.158)
(5685.92 -3399.41 -184.146)
(5648.68 -2702.68 -143.127)
(5727.91 -2262.62 -106.36)
(5838.98 -1929.86 -134.898)
(6094.94 -1728.55 -149.838)
(6380.12 -1537.96 -157.372)
(6673.18 -1426.17 -168.42)
(6910.92 -1317.8 -205.007)
(7247.94 -1193.95 -245.843)
(-11290 -8354.5 -156.188)
(-8957.58 -9024.68 92.9921)
(-7805.22 -9844.2 129.8)
(-6756.99 -9172.83 -57.734)
(-4162.38 -11099.5 -415.26)
(-1348.44 -11967.4 -402.62)
(1418.98 -11373.8 -414.696)
(4086.31 -9739.21 -278.167)
(5592.82 -6716.75 -238.156)
(5370.99 -3922.13 -107.465)
(4724.06 -2275.56 -97.5319)
(4495.09 -1549.91 -112.747)
(4672.03 -1207.5 -85.3206)
(4907.66 -1006.31 -54.8116)
(5164.29 -919.259 -86.7564)
(5425.93 -870.6 -107.439)
(5728.77 -822.232 -123.186)
(5975.51 -778.774 -133.22)
(6173.69 -730.01 -159.993)
(6467.81 -680.521 -204.021)
(-11942.5 -6944.98 -152.972)
(-9753.42 -7880.79 151.006)
(-7502.09 -7582.74 462.373)
(-6730.79 -7448.73 -152.337)
(-4389.58 -10628 -445.571)
(-1436.8 -12051.8 -480.098)
(1504.11 -11584.8 -406.988)
(4429.45 -9567.49 -311.966)
(5380.12 -5210.69 -116.496)
(4247.23 -2164.54 -57.7597)
(3505.09 -1166.84 -88.3101)
(3761.83 -896.278 -96.1558)
(4193.27 -710.812 -87.6436)
(4681.94 -618.737 -65.8322)
(5188.58 -539.353 -82.0678)
(5572.77 -494.431 -79.6666)
(6006.86 -486.331 -73.2006)
(6320.2 -458.711 -76.833)
(6534.5 -414.127 -77.1926)
(6815.4 -379.648 -114.799)
(-11863.7 -5396.38 -20.2318)
(-9067.63 -6704.27 112.478)
(-7390.93 -6790.45 -66.4437)
(-6451.98 -6529.68 -217.475)
(-5268.12 -8554.57 -400.828)
(-2515.22 -12045.2 -552.423)
(776.228 -12144 -565.498)
(3887.12 -10442 -426.38)
(5257.34 -5265.96 -129.93)
(2891.16 -933.282 -45.4271)
(3199.85 -812.748 -38.6342)
(3572.89 -755.725 -82.3071)
(4060.13 -674.718 -109.757)
(4666.79 -562.333 -93.0629)
(5279.88 -394.787 -83.6427)
(5920.76 -178.449 -156.156)
(6489.18 -161.447 -203.976)
(6727.21 -164.821 -247.834)
(6901.84 -113.079 -268.128)
(7138.65 -56.3543 -273.684)
(-12187.7 -3362.33 -304.049)
(-10791 -4107.91 -340.643)
(-10245.3 -4298.85 -405.829)
(-8120.21 -5153.87 -301.392)
(2357.04 -716.152 -68.8932)
(3626.74 -632.748 -126.298)
(3885.33 -613.948 -128.176)
(4175.55 -582.134 -142.144)
(4515.48 -543.594 -162.655)
(4976.29 -458.8 -172.59)
(5644.51 -330.336 -212.436)
(6416.29 -189.027 -208.556)
(7011.76 108.609 -174.097)
(7500.87 270.672 -229.032)
(7612.02 363.111 -272.112)
(7762.26 390.777 -316.792)
(-12076.4 -889.549 -384.828)
(-11663.8 -1321.56 -418.339)
(-11648.9 -1413.87 -499.412)
(-11623.7 -2457.43 -521.853)
(4848.39 -451.216 -207.749)
(5158.14 -261.699 -185.113)
(5140.28 -255.616 -183.628)
(5161.82 -237.21 -183.001)
(5236.67 -205.449 -182.857)
(5421.14 -162.976 -176.381)
(5774.22 -61.9794 -198.636)
(6378.29 91.6655 -207.582)
(7209.5 313.123 -103.647)
(7808.82 540.166 -145.524)
(8127.91 716.498 -272.988)
(8221.86 801.834 -343.415)
(-11243.7 1523.76 -457.975)
(-11043.4 1392.57 -468.833)
(-11274.9 1448.47 -446.053)
(-11823.7 787.782 -584.49)
(5929.59 98.069 -251.963)
(5764.35 339.253 -203.015)
(5653.05 327.899 -198.302)
(5528.92 325.798 -188.254)
(5450.07 325.711 -182.354)
(5477.38 346.263 -174.723)
(5612.95 403.086 -169.214)
(5928.07 514.657 -189.19)
(6564.14 711.458 -170.15)
(7362.24 1062.09 -46.0501)
(7876.98 1373.52 -156.437)
(8361.2 1452.59 -243.799)
(-9959.6 3665.27 -352.94)
(-9486.56 3994.14 -351.261)
(-9296.97 4326.82 -388.5)
(-10135.7 3795.54 -476.251)
(5395.63 817.863 -223.208)
(4333.9 1001.82 -150.766)
(4522.52 994.814 -148.875)
(4669.1 972.839 -134.317)
(4771.16 938.35 -127.144)
(4894.03 907.31 -140.578)
(5078.85 885.592 -140.373)
(5347.31 915.114 -129.868)
(5808.94 1029.11 -129.188)
(6602.89 1251.28 -78.5038)
(7402 1594.88 -5.35817)
(8365.78 1791.56 -111.928)
(-8127.54 5221.6 -398.027)
(-6503.97 5433.88 -333.02)
(-4986.2 5201.61 -240.485)
(-4904.49 5060.98 -199.42)
(-738.116 2380.51 -67.6759)
(-478.719 4751.53 -215.101)
(92.5746 5712.05 -251.061)
(815.299 5106.74 -199.47)
(644.308 738.524 -20.1072)
(1280.36 710.192 -41.3496)
(1953.91 897.4 -49.2626)
(2566.86 1049.41 -92.3429)
(3087.63 1153.17 -124.226)
(3489.82 1202.87 -112.169)
(3786.78 1206.43 -98.5251)
(4123.86 1220.01 -99.6931)
(4511.26 1272.57 -103.759)
(5090.21 1428.89 -94.9575)
(5868.44 1745.33 -46.2463)
(7114.61 2129.19 -63.8594)
(-6107.17 5753.41 -239.018)
(-3791.19 5201.21 -189.067)
(-2083.97 4112.31 -146.03)
(-929.094 2884.61 -93.9482)
(-669.989 3611.24 -135.696)
(-280.976 5069.43 -193.328)
(332.683 5563.13 -201.53)
(999.387 4215.56 -146.381)
(719.8 1390.34 -51.7879)
(477.192 499.117 -6.47663)
(735.811 522.98 -43.7357)
(1123.66 695.029 -57.7948)
(1631.32 904.833 -45.5032)
(2139.09 1076.77 -48.2221)
(2606.81 1200.2 -56.5831)
(3018.18 1278.79 -69.0462)
(3457.25 1355.65 -101.711)
(3982.27 1468.14 -87.9835)
(4650.55 1728.82 -45.0686)
(5955.5 2192.87 -6.06986)
(-4420.46 5719.7 -226.391)
(-2205.45 4554.76 -151.804)
(-1147.04 3408.54 -130.485)
(-822.055 3186.25 -73.8126)
(-649.413 3868.4 -136.678)
(-269.263 5031.06 -188.975)
(315.259 5466.59 -197.05)
(984.762 4398.76 -141.359)
(926.953 2072.78 -42.6569)
(519.143 767.035 -50.2608)
(513.49 528.347 -38.8614)
(622.954 513.18 -8.7834)
(834.786 599.427 -1.99472)
(1200.95 784.339 -21.4783)
(1664.53 997.539 -37.2832)
(2130.59 1170.53 -41.3332)
(2537.56 1285.67 -54.46)
(3034.26 1406.66 -67.66)
(3592.83 1620.95 -30.567)
(4794.05 2096.67 -10.2291)
(-3312.05 5569.02 -231.733)
(-1522.33 4397.44 -156.075)
(-897.113 3663.44 -125.682)
(-770.666 3537.42 -98.378)
(-618.857 4141.53 -147.147)
(-244.534 5046.15 -184.677)
(306.636 5349.35 -184.525)
(953.423 4534.54 -128.677)
(1087.94 2690.01 -63.2689)
(717.442 1198.3 -54.7281)
(501.341 631.205 -11.4407)
(536.806 542.384 5.2557)
(606.429 519.299 -8.04044)
(775.235 599.936 -9.44916)
(1075.34 779.276 -15.6974)
(1462 986.118 -17.8505)
(1859.66 1154.54 -17.1109)
(2278.5 1294.31 -46.9821)
(2766.69 1486.26 -54.0099)
(3818.02 1935.47 -33.5009)
(-2636.93 5539.95 -184.376)
(-1184.4 4565.34 -118.302)
(-719.511 4089.79 -101.586)
(-701.777 3990.93 -107.031)
(-579.555 4448.24 -153.987)
(-213.103 5110.16 -179.057)
(307.554 5301.83 -178.239)
(915.431 4631.59 -123.034)
(1178.41 3184.36 -89.8228)
(955.091 1750.83 -33.5048)
(617.336 881.634 -6.08865)
(508.28 609.869 -8.65754)
(579.403 588.616 -17.2428)
(664.57 592.089 -12.7329)
(785.669 642.984 -13.1912)
(1037.35 793.722 -7.98327)
(1375.55 989.676 -0.0722555)
(1739.64 1168.31 -20.2013)
(2142.19 1349.3 -31.1065)
(3024.27 1755.66 -14.3275)
(-2206.75 5621 -146.164)
(-987.837 4817.54 -91.298)
(-632.474 4583.48 -84.6109)
(-599.654 4572.2 -76.1165)
(-491.721 4875.92 -147.489)
(-172.838 5287.82 -168.422)
(325.597 5337.09 -168.174)
(882.449 4756.15 -137.548)
(1209.55 3553.98 -86.0854)
(1128.92 2271.5 -25.4043)
(832.764 1287.78 -12.012)
(614.827 803.835 -9.30798)
(586.894 673.042 -15.0133)
(641.987 647.882 -24.131)
(718.012 656.355 -18.2922)
(858.416 723.722 -2.16061)
(1082.79 869.228 11.0771)
(1385.87 1057.77 9.17478)
(1708.62 1235.58 -13.1776)
(2441.2 1602.17 -18.6247)
(-1878.88 5717.43 -172.34)
(-912.818 5077.33 -125.086)
(-562.215 5116.08 -114.996)
(-447.425 5195.4 -53.3223)
(-372.901 5515.44 -158.157)
(-77.3347 5636.36 -177.859)
(379.112 5484.53 -159.562)
(860.681 4949.41 -135.018)
(1201.26 3822.72 -79.2879)
(1239.93 2728.28 -26.9016)
(1052.95 1770.12 -19.9687)
(823.123 1144.91 -14.4665)
(664.669 821.779 -14.44)
(656.768 730.726 -18.4851)
(708.414 715.848 6.33923)
(816.059 758.567 10.407)
(969.655 850.229 18.3773)
(1186.61 982.511 21.1916)
(1424.91 1127.9 -5.76798)
(2041.39 1472.93 -13.2829)
(-1684.29 5961.1 -189.457)
(-867.21 5328.63 -149.666)
(-517.595 5486.6 -120.316)
(-239.577 5792.36 -145.642)
(-241.059 6270.35 -138.424)
(60.653 6248.2 -163.136)
(485.013 5811.56 -169.955)
(891.029 5229.88 -119.846)
(1208.42 4143.25 -82.8664)
(1303.53 3121.03 -38.6431)
(1222.34 2246.75 -26.439)
(1043.62 1560.83 -13.4239)
(843.375 1105.06 -6.82139)
(758.307 901.004 -2.22027)
(766.819 833.982 8.02102)
(832.821 837.365 -2.92993)
(948.044 895.323 12.6315)
(1106.73 972.84 18.7647)
(1282.97 1080.15 -2.26926)
(1787.6 1399.15 -3.71998)
(-1499.02 6227.72 -196.054)
(-817.341 5611.96 -165.567)
(-506.394 5896.75 -120.19)
(-210.158 6360.91 -217.973)
(59.2711 6863.13 -140.81)
(265.616 7052.74 -64.4688)
(677.987 6457.17 -131.175)
(1007.62 5711.37 -111.333)
(1262.1 4528.27 -86.3665)
(1373.11 3550.87 -74.6142)
(1331.61 2657.56 -37.7503)
(1215.75 1975.94 -2.25792)
(1051 1465.67 8.75815)
(927.429 1154.24 14.2432)
(876.342 1002.78 16.3997)
(914.133 972.871 11.7714)
(968.863 971.532 28.5276)
(1077.8 1004.48 24.8232)
(1234 1105.67 9.6504)
(1638.43 1384.41 14.7192)
(-1391.26 6505.94 -206.233)
(-772.78 5840.58 -174.461)
(-475.477 6187.35 -125.819)
(-201.746 6602.7 -266.967)
(215.153 7342.25 -219.402)
(470.329 7662.83 -138.393)
(1023.34 7212.73 -15.8861)
(1228.36 6513.91 -46.6686)
(1421.13 5120.91 -72.0946)
(1484.39 4079.13 -61.5026)
(1455.05 3168.49 -43.6883)
(1361.73 2415.21 -22.0608)
(1238.85 1854.11 -5.69218)
(1124.66 1477.12 16.307)
(1039.72 1249.54 19.0413)
(1011.19 1148.44 16.7071)
(1032.61 1109.95 22.8522)
(1109.03 1109.07 18.7481)
(1226.65 1187.56 27.6796)
(1530.15 1392.31 39.7942)
(-1286.17 6733.37 -239.751)
(-724.735 6031.99 -199.279)
(-429.56 6394.42 -127.737)
(-143.887 6770.01 -291.062)
(304.255 7449.07 -279.915)
(653.135 7954.39 -270.746)
(1303.15 7726.59 -152.761)
(1550.65 7275.11 7.45443)
(1728.1 5886.78 -21.8955)
(1741.96 4748.92 -15.66)
(1665.44 3732.69 -0.101123)
(1554.16 2915.16 -25.3367)
(1425.83 2275 -13.4375)
(1312.81 1823.78 -3.50841)
(1206.04 1520.17 -2.60456)
(1144.18 1352.51 2.70826)
(1157.95 1285.53 10.9163)
(1221.08 1250.4 27.9342)
(1303.04 1289.64 45.5752)
(1529.08 1443.45 36.1519)
(-1164.74 7062.91 -274.273)
(-673.782 6316.54 -236.217)
(-391.735 6664.99 -157.729)
(-82.2229 6997.17 -294.528)
(334.15 7593.59 -329.806)
(746.135 8052.77 -343.856)
(1375.88 8222.63 -240.214)
(1732.72 8246.7 -106.253)
(2089.06 7107.72 -49.817)
(2182.34 6034.74 17.7137)
(2124 4935.85 17.8434)
(1994.75 3987.27 -6.27808)
(1835.68 3194.41 4.32666)
(1695.61 2599.81 -4.68776)
(1574.5 2183.32 -1.75022)
(1495.75 1906.7 9.53455)
(1471.97 1732.17 24.5671)
(1469.67 1599.27 48.3734)
(1496.17 1560.47 44.6482)
(1625.92 1612.72 24.5307)
(-10625 -10593 -177.364)
(-8377.99 -11335 -6.41467)
(-7054.11 -12054 36.1566)
(-5690.22 -11890.5 37.8759)
(-3434.69 -12271.3 -155.362)
(-963.761 -12261.6 -214.061)
(1477.69 -11488 -246.888)
(3663.52 -10180.8 -188.438)
(5238.4 -8312.73 -219.382)
(5764.43 -6251.58 -71.282)
(5724.81 -4529.47 -70.6163)
(5526.15 -3375.05 -97.5964)
(5490.98 -2694.64 -70.4457)
(5587.76 -2275.63 -39.3847)
(5699.81 -1947.5 -58.682)
(5945.59 -1751.33 -78.5595)
(6220.33 -1569.04 -95.197)
(6505.98 -1462.02 -108.316)
(6737.33 -1358.91 -141.157)
(7067.71 -1239.82 -174.845)
(-11334.8 -8318.93 -13.9444)
(-9070.81 -9035.52 229.407)
(-7923.18 -9866.95 339.492)
(-6806.85 -9056.84 119.646)
(-4085.54 -11038.2 -155.206)
(-1322.7 -11856.1 -197.803)
(1385.15 -11320.1 -216.883)
(4039.14 -9704.85 -149.38)
(5486.37 -6654.18 -128.332)
(5261.95 -3882.31 -13.6395)
(4631.08 -2258.15 -5.40001)
(4360.02 -1545.56 -39.0389)
(4548.6 -1221.72 -27.317)
(4771.17 -1018.85 1.57803)
(5044.48 -925.506 -19.2998)
(5310.46 -879.462 -42.7569)
(5616.08 -844.444 -65.7941)
(5866.57 -812.764 -79.1502)
(6055.25 -772.527 -106.842)
(6337.84 -727.775 -143.669)
(-11835.7 -6987.31 18.4263)
(-9821.42 -7932.67 238.689)
(-7548.99 -7482.53 451.869)
(-6537.39 -7352.9 -5.18083)
(-4348.52 -10467.4 -136.115)
(-1370.33 -11898.1 -202.561)
(1531.15 -11493.1 -189.18)
(4381.76 -9501.45 -147.404)
(5224.22 -5075.01 -16.1882)
(4157.89 -2119.12 -3.85132)
(3457.17 -1146.6 -17.2934)
(3674.84 -885.242 -23.9985)
(4048.96 -711.119 -20.7366)
(4499.97 -610.08 -1.28693)
(5034.8 -542.225 -22.0495)
(5445.45 -502.498 -27.0162)
(5872.39 -507.033 -23.5733)
(6208.96 -499.47 -23.3316)
(6413.58 -469.919 -32.6104)
(6693.01 -439.736 -70.2813)
(-11653.3 -5543.09 26.4145)
(-8800.42 -6668.39 56.6091)
(-7175.4 -6456.22 -106.777)
(-6230.59 -6284.64 -100.557)
(-5143.95 -8582.38 -116.896)
(-2460.66 -11917.4 -280.543)
(763.925 -12056 -295.286)
(3804.64 -10347.2 -211.617)
(5031.68 -5058.28 -30.9312)
(2795.21 -921.875 -7.48883)
(3121.33 -782.349 9.94059)
(3504.25 -700.227 -12.3275)
(3983.62 -606.336 -36.0175)
(4580.1 -484.869 -11.2729)
(5211.26 -373.066 7.26297)
(5802.6 -188.588 -67.8851)
(6420.7 -126.819 -132.929)
(6681.13 -154.462 -168.953)
(6834.42 -145.741 -199.153)
(7046.54 -117.36 -209.511)
(-12032.7 -3413.45 -206.083)
(-10704.6 -4046.07 -262.265)
(-10118.1 -4254.46 -278.154)
(-7929.72 -5010.61 -196.344)
(2103.89 -655.21 -44.5093)
(3445.13 -603.431 -82.526)
(3700.61 -593.327 -77.1982)
(4018.18 -582.445 -86.3352)
(4386.74 -569.931 -101.057)
(4862.06 -507.869 -100.627)
(5520.29 -375.1 -125.789)
(6343.17 -227.595 -125.894)
(6951.22 56.5298 -112.128)
(7511.58 273.199 -169.929)
(7680.4 344.53 -216.869)
(7802.73 352.262 -254.239)
(-11970 -963.96 -219.748)
(-11547.6 -1317.96 -218.229)
(-11549.9 -1348.46 -261.035)
(-11593.1 -2419.75 -303.336)
(4575.07 -431.099 -124.617)
(4949 -269.832 -101.591)
(4946.75 -264.167 -98.6648)
(4977.53 -245.984 -98.7888)
(5055.61 -215.988 -103.626)
(5232.69 -180.072 -98.8536)
(5569.55 -104.849 -117.756)
(6167.04 47.1671 -140.312)
(7093.89 286.221 -44.6743)
(7844.89 487.573 -50.2316)
(8327.65 650.293 -215.762)
(8398.57 726.183 -291.5)
(-11224.1 1413.82 -282.102)
(-11037.2 1302.89 -255.771)
(-11218.3 1458.86 -212.158)
(-11747.4 755.156 -324.724)
(5608.2 88.2295 -150.541)
(5549.11 299.936 -109.693)
(5452.66 286.061 -106.755)
(5359.22 280.341 -109.362)
(5311.44 286.468 -114.965)
(5344.94 303.636 -116.804)
(5470 344.051 -111.455)
(5764.8 429.845 -120.187)
(6363.8 602.55 -128.301)
(7301.82 915.148 -9.00452)
(7942.86 1272.51 -25.6436)
(8512.53 1390.11 -202.373)
(-9930.33 3556.16 -210.363)
(-9466.33 3899.76 -173.818)
(-9288.71 4240.29 -185.483)
(-10080.5 3707.31 -254.348)
(5123.97 765.374 -121.523)
(4201.51 936.373 -77.3954)
(4372.95 921.39 -60.0383)
(4518.5 901.956 -59.8974)
(4649.06 877.449 -67.7057)
(4763.64 852.438 -83.4911)
(4939.61 831.327 -93.6491)
(5183.55 842.326 -84.1039)
(5595.94 928.302 -83.7569)
(6338.47 1111.47 -57.5839)
(7249.7 1443.26 35.7301)
(8369.98 1710.6 -47.5372)
(-8105.05 5093.85 -266.531)
(-6507.1 5299.85 -196.276)
(-5008.09 5058.98 -102.547)
(-4992.62 4914.26 -179.568)
(-680.408 2172.22 -75.5537)
(-462.979 4599.26 -126.903)
(82.5581 5528.07 -145.807)
(751.705 4938.37 -121.454)
(644.883 599.951 -11.3542)
(1256.94 664.327 -20.1065)
(1914.22 851.533 -6.87201)
(2502.57 989.169 -24.8359)
(2980.28 1075 -51.6522)
(3402.69 1131.43 -58.535)
(3708.74 1139.68 -49.073)
(4014.04 1154.28 -61.0843)
(4375.9 1183.69 -71.5152)
(4873.05 1292.26 -66.9142)
(5625.24 1554.93 -20.0625)
(6990.82 1979.22 -20.9633)
(-6086.45 5614.01 -143.34)
(-3783.38 5071.09 -96.0876)
(-2081.49 3972.3 -75.3046)
(-945.553 2694.64 -56.066)
(-624.565 3414.6 -70.5385)
(-273.206 4910.85 -97.7818)
(303.583 5393.7 -93.003)
(924.328 4024.45 -79.2867)
(656.763 1247.15 -19.3856)
(415.644 418.708 1.97173)
(662.395 452.778 -34.1519)
(1051.66 627.677 -35.6118)
(1552.16 831.372 -1.13953)
(2063.22 1005.57 9.22995)
(2525.13 1132.64 -27.1299)
(2931.93 1207.15 -43.0236)
(3333.24 1275.7 -71.492)
(3815.6 1353.58 -65.3619)
(4414.13 1549.78 -20.5474)
(5734.17 2007.27 16.5214)
(-4398.38 5563.37 -140.713)
(-2193.06 4418.09 -71.5379)
(-1142.43 3289.98 -52.9875)
(-830.601 3018.62 -32.4552)
(-605.418 3653.95 -64.4767)
(-264.493 4891.9 -94.3912)
(283.073 5309.12 -96.5391)
(911.287 4217.9 -62.6949)
(845.804 1906.09 -20.437)
(452.838 670.051 -37.2425)
(425.211 429.361 -35.797)
(542.585 433.171 3.6299)
(769.351 540.207 20.1097)
(1120.8 713.303 -4.38117)
(1569.79 915.631 -40.1835)
(2020.28 1085.18 -32.7768)
(2447.44 1209.74 -18.2936)
(2886.73 1314.35 -34.2525)
(3404.33 1469.46 -14.51)
(4556.29 1904.63 1.42392)
(-3281.63 5378.11 -156.74)
(-1515.26 4202.66 -91.201)
(-898.977 3501.57 -53.7786)
(-766.312 3386.17 -29.0527)
(-590.435 3948.38 -75.8446)
(-245.251 4920.97 -93.8763)
(273.378 5230.14 -100.433)
(889.758 4365.78 -66.4489)
(1006.4 2528.42 -44.2695)
(635.857 1076.09 -38.9982)
(429.631 545.495 3.06106)
(472.746 472.613 17.463)
(537.739 451.012 -12.6602)
(686.17 519.883 -22.5378)
(965.699 684.707 -13.5814)
(1354.97 895.286 2.26151)
(1777.12 1081.11 16.6738)
(2175.02 1217 -16.1794)
(2609.74 1365.13 -53.0226)
(3588.45 1758.45 -35.1298)
(-2618.18 5343.93 -125.519)
(-1196.14 4393.38 -81.305)
(-735.251 3906.82 -56.297)
(-697.278 3851.44 -32.6204)
(-572.469 4283.45 -84.6165)
(-220.096 4996.34 -96.6782)
(279.989 5193.87 -100.013)
(861.635 4496.65 -76.2238)
(1099.41 3029.12 -66.5721)
(864.002 1622.52 -5.99412)
(554.811 796.868 17.8134)
(445.003 534.283 -12.6067)
(507.831 510.745 -31.6589)
(583.471 515.049 -6.5686)
(708.227 571.373 12.7843)
(950.111 716.112 10.2533)
(1290.47 912.392 10.5638)
(1647.59 1085.94 -22.4775)
(2002.04 1242.18 -40.6699)
(2823.63 1596.58 -12.1104)
(-2207.37 5435.22 -92.9353)
(-999.721 4633.73 -49.7872)
(-640.832 4387.04 -41.3879)
(-589.161 4431.07 -18.9158)
(-514.497 4720.29 -84.0746)
(-194.992 5166.54 -94.0708)
(294.941 5229.66 -99.2268)
(835.208 4621.96 -87.3175)
(1146.42 3447.74 -63.5058)
(1052.77 2170.44 8.15888)
(757.906 1193.96 -1.51193)
(535.766 707.961 -19.7299)
(513.86 584.572 -6.42625)
(574.81 574.656 2.27378)
(647.642 585.459 2.94126)
(775.822 644.974 0.133161)
(987.918 782.905 3.91552)
(1267.99 948.093 -2.14118)
(1570.02 1118.97 -11.2038)
(2266.46 1456.94 -5.06372)
(-1887.69 5535.61 -103.44)
(-921.575 4924.8 -60.121)
(-583.445 4959.39 -47.4799)
(-487.479 5090.66 -9.85741)
(-396.643 5347.05 -111.086)
(-131.055 5487.88 -112.425)
(331.83 5353.39 -92.9676)
(815.085 4818.33 -92.7408)
(1143.28 3744.93 -47.9038)
(1177.94 2645.07 -16.0026)
(975.157 1673.9 -28.343)
(733.651 1031.28 -11.2811)
(594.581 734.129 9.68078)
(589.724 649.741 2.33702)
(634.105 633.157 8.69052)
(729.925 668.965 2.72547)
(871.254 755.183 9.73597)
(1078.84 877.656 25.5107)
(1316.26 1030.4 15.2517)
(1898.57 1346.66 9.55072)
(-1704.6 5777.17 -115.523)
(-882.958 5193.78 -73.4214)
(-543.147 5371.84 -41.7886)
(-284.954 5672.96 -67.1276)
(-292.222 6186.71 -104.616)
(1.61153 6066 -124.426)
(411.933 5649.52 -102.815)
(823.063 5087.01 -79.1069)
(1149.98 4045.6 -53.9019)
(1243.09 3045.34 -25.8444)
(1146.9 2145.31 -19.3575)
(963.256 1458.04 10.9005)
(770.471 1016.37 16.2578)
(675.633 806.269 3.58157)
(677.097 737.374 2.13516)
(739.795 740.418 -5.96341)
(852.524 801.522 13.3892)
(1027.58 893.36 36.9631)
(1203.43 1002.66 23.0271)
(1678.41 1288.53 12.8215)
(-1530.47 6044.71 -126.094)
(-846.529 5490.41 -91.0677)
(-544.519 5783.46 -40.8333)
(-204.61 6314.97 -133.669)
(-26.6742 6828.6 -75.4949)
(202.139 6963.25 -25.8192)
(573.271 6248.25 -103.152)
(908.697 5518.86 -75.446)
(1177.42 4403.53 -64.8476)