/*--------------------------------*- C++ -*----------------------------------*\
  =========                 |
  \\      /  F ield         | OpenFOAM: The Open Source CFD Toolbox
   \\    /   O peration     | Website:  https://openfoam.org
    \\  /    A nd           | Version:  9
     \\/     M anipulation  |
\*---------------------------------------------------------------------------*/
FoamFile
{
    format      ascii;
    class       volScalarField;
    location    "0.005";
    object      T;
}
// * * * * * * * * * * * * * * * * * * * * * * * * * * * * * * * * * * * * * //

dimensions      [0 0 0 1 0 0 0];

internalField   nonuniform List<scalar> 
9720
(
1258.64
1262.4
1266.32
1244.62
1227.79
1218.72
1206.79
1185.89
1158.8
1137.71
1122.36
1114.83
1111.03
1107.54
1108.71
1110.97
1112.92
1113.12
1112.66
1110.4
1261.7
1266.04
1270.29
1223.68
1209.29
1215.44
1208.26
1181.16
1134.94
1097.23
1071.9
1067.65
1071.47
1078.33
1084.14
1088.34
1090.93
1091.02
1090.49
1088.19
1264.54
1269.25
1244.87
1195.07
1197.37
1215.31
1213.32
1181.84
1119.17
1072.77
1049.02
1052.2
1063.71
1081.06
1092.67
1099.96
1102.86
1102.58
1101.1
1096.35
1243.75
1222.58
1194.01
1161.62
1172.81
1218.85
1223.86
1203.27
1120.11
1005.69
1010.86
1022.04
1038.83
1062.37
1087.19
1109.29
1114.27
1113.14
1110.56
1104.88
1226.67
1206.78
1193.16
1169.88
979.567
996.282
1006.71
1017.36
1029.5
1046.07
1072.11
1100.3
1119.45
1123.27
1122.2
1117.18
1215.98
1211.43
1210.96
1215.2
1019.4
1027.99
1028.78
1030.32
1033.98
1040.8
1052.95
1074.25
1103.65
1119.75
1120.86
1117.81
1203.62
1203.76
1208.89
1220.04
1042.66
1037.12
1034.67
1031.11
1030.89
1032.32
1037.3
1048.21
1069.66
1095.14
1111.61
1116.06
1182.55
1177
1177.1
1198.8
1025.49
996.117
1000.56
1004.02
1006.81
1010.3
1015.99
1024.67
1039.42
1063.02
1088
1107.38
1155.65
1130.69
1113.84
1109.66
973.038
1018.52
1039.03
1020.27
923.936
927.343
939.592
951.154
962.584
971.805
978.829
987.592
1000.12
1019.82
1045.04
1077.89
1134.72
1093.73
1069.33
1004.35
995.508
1026.08
1033.07
992.038
924.402
909.312
914.761
924.796
934.965
943.109
950.469
958.583
970.231
987.531
1009.43
1047.86
1119.31
1068.77
1047.74
1010.61
1006.6
1026.79
1030.89
997.243
938.558
913.87
907.755
911.204
916.523
922.781
930.966
940.555
950.476
964.152
980.716
1017.91
1112.45
1066.44
1050.88
1022.43
1017.58
1028.52
1028.41
1001.33
951.745
924.759
911.738
901.571
901.84
907.988
919.89
931.804
940.127
948.054
958.709
992.318
1109.08
1070.46
1062.13
1038.97
1029.65
1032.44
1028.91
1004.83
963.573
936.342
918.903
902.708
902.197
906.609
916.181
925.655
931.316
936.031
943.216
973.477
1105.65
1077.46
1079.51
1061.58
1045.8
1039.61
1031.18
1009.01
973.138
945.617
926.173
910.539
907.734
909.719
913.333
918.342
924.401
932.686
939.552
964.048
1106.84
1083.48
1092.12
1085.51
1070.42
1051.92
1037.03
1015.4
980.622
953.774
934.757
923.9
919.823
915.34
915.062
917.811
924.317
934.08
941.363
961.385
1109.05
1087.46
1099.25
1106.5
1097.55
1073.05
1048.42
1024.67
989.785
962.34
944.705
936.364
930.704
922.585
919.679
921.185
926.761
936.586
943.724
959.942
1110.77
1089.39
1101.41
1112.19
1116.9
1101.96
1069.88
1039.87
1002.72
974.163
954.934
944.944
936.899
928.943
927.539
928.881
932.54
939.673
945.178
958.421
1110.85
1089.32
1100.98
1111.37
1121.72
1118.02
1094.25
1063.35
1022.58
991.592
968.908
953.311
942.179
936.565
937.667
940.161
942.208
945.24
947.717
958.629
1110.32
1088.6
1099.37
1109.1
1120.81
1119.29
1110.01
1087.15
1046.8
1013.05
985.476
964.142
949.536
943.816
945.446
948.032
948.823
949.465
951.01
960.076
1108.04
1086.22
1094.65
1103.83
1116.07
1116.47
1115.01
1106.49
1078.49
1050.02
1021.71
997.227
979.21
969.694
966.955
965.435
963.371
962.298
962.855
968.301
1252.88
1256.77
1260.03
1234.92
1217.2
1209.75
1198.66
1178.34
1150.72
1129.37
1113.6
1105.52
1101.9
1098.22
1099.23
1101.59
1104.09
1104.46
1104.02
1101.69
1256.41
1260.29
1263.21
1212.75
1199.82
1207.2
1201.52
1174.68
1128.07
1090.2
1064.33
1058.21
1061.79
1068.65
1074.59
1079.09
1082.58
1082.96
1082.53
1080.29
1258.94
1263.64
1224.75
1179.51
1191.24
1210.7
1207.81
1176.1
1113.22
1066.85
1041.56
1043.73
1053.29
1069.37
1082.14
1090.29
1095.25
1095.21
1094.17
1089.89
1235.45
1212.76
1179.64
1149.02
1170.21
1213.51
1218.54
1197.15
1115.32
999.305
1003.66
1013.63
1029.04
1050.88
1074.58
1097.6
1107.05
1106.49
1104.4
1099.21
1216.71
1196.86
1185.12
1159.07
977.488
987.961
997.799
1008.05
1019.66
1035.1
1058.71
1087.33
1108.18
1116.42
1116.06
1112.02
1206.88
1203.06
1205.49
1208.94
1011.5
1018.81
1018.61
1019.29
1022.14
1028.11
1039.03
1058.39
1087.8
1108.26
1113.81
1111.78
1195.24
1196.98
1203.21
1214.31
1033.9
1027.2
1023.98
1020.05
1018.6
1019.66
1023.68
1032.84
1052.1
1078.66
1097.45
1107.11
1174.6
1170.27
1171.56
1192.84
1017.42
986.321
989.346
991.941
994.145
996.976
1001.99
1009.74
1022.49
1044.45
1069.66
1093.68
1146.93
1123.46
1108.21
1108.37
971.887
1012.05
1032.2
1012.91
934.21
928.998
933.738
939.933
948.543
957.62
964.936
973.109
984.157
1001.24
1024.66
1060.71
1125.63
1085.75
1062.46
997.894
987.817
1018.71
1024.79
982.628
926.116
908.422
912.219
918.086
923.979
930.082
936.885
944.144
954.182
969.494
989.396
1029.35
1109.8
1059.14
1037.58
1002.55
997.598
1018.27
1021.87
986.689
933.519
911.17
905.544
907.618
910.286
914.041
920.015
927.227
934.754
946.694
962.148
999.587
1103.01
1055.72
1039.6
1012.17
1007.49
1018.75
1017.92
989.457
942.044
918.022
907.114
897.381
897.254
902.091
910.598
918.801
925.518
933.236
943.389
975.471
1100.26
1060.07
1049.72
1026.7
1018.35
1021.23
1017.22
992.11
951.424
926.109
911.438
897.807
896.63
898.634
904.574
914.689
921.751
925.739
931.095
957.271
1096.67
1067.64
1067.28
1048.25
1033.08
1027.07
1018.46
995.397
960.287
933.896
917.099
903.786
899.226
900.164
904.467
911.124
917.198
923.209
928.239
949.043
1097.57
1073.79
1081.59
1072.62
1056.07
1037.92
1022.84
1000.94
967.298
941.331
924.068
914.093
907.779
905.883
907.154
910.488
916.308
924.017
929.429
948.11
1099.65
1078.16
1089.43
1094.63
1084.63
1057.58
1032.54
1009.31
975.395
948.722
932.072
923.518
919.136
915.061
912.331
913.567
918.035
925.359
931.68
949.184
1101.66
1080.8
1093.39
1104.64
1106.04
1086.94
1052.49
1022.92
986.724
958.817
940.294
931.317
927.065
922.209
919.597
920.291
922.522
927.81
934.381
950.446
1101.78
1080.86
1093.19
1104.37
1114.71
1107.36
1078.58
1045.52
1004.41
974.34
952.78
939.919
932.532
927.92
928.296
929.23
930.452
934.701
939.435
950.981
1101.19
1080.19
1091.91
1102.48
1114.29
1112.43
1096.97
1070.06
1027.68
994.315
968.421
950.328
938.733
933.443
934.363
936.189
938.34
941.39
943.464
951.468
1098.82
1077.76
1087.54
1097.45
1110.15
1110.52
1106.71
1093.86
1062.76
1033.11
1005.06
982.125
965.186
956.026
954.11
954.512
955.138
954.975
954.073
957.635
1251.87
1256.79
1259.73
1230.75
1210.76
1205.03
1194.88
1174.6
1147.13
1125.84
1109.8
1101.48
1098.4
1095.3
1096.3
1098.66
1101.25
1101.68
1101.29
1099.02
1256.67
1260.53
1261.14
1206.22
1194.09
1202.8
1198.09
1171.23
1124.96
1088.19
1062.59
1054.75
1058.17
1065.17
1071.84
1076.8
1080.73
1081.31
1080.89
1078.58
1258.39
1262.46
1206.91
1169.54
1186.51
1207.27
1204.39
1172.68
1110.2
1066.92
1042.39
1043.17
1049.81
1064.05
1078.36
1087.96
1094.02
1094.09
1093.27
1089.25
1230.04
1204.47
1166.71
1139.58
1166.18
1209.58
1214.8
1193.07
1109.89
994.915
1000.74
1011.94
1026.93
1047.67
1070.91
1094.62
1107.33
1107.01
1105.06
1099.62
1209.46
1190.18
1180.93
1154.67
969.134
979.337
989.165
1000.7
1013.87
1029.94
1052.64
1082.22
1105.01
1116.58
1116.63
1112.73
1202.04
1198.84
1202.65
1205.23
1003.87
1010.39
1010.1
1010.75
1013.4
1019.12
1029.57
1048.17
1078.29
1104.45
1114.3
1112.5
1191.71
1194.33
1200.74
1210.82
1023.95
1017.47
1014.41
1010.93
1009.78
1010.78
1014.39
1022.63
1039.92
1067.86
1090.67
1104.47
1171.23
1167.66
1169.57
1189.49
1007.18
976.455
979.495
982.182
985.04
987.921
992.504
999.555
1010.81
1030.48
1056.27
1086.1
1143.24
1120.9
1106.63
1106.63
968.9
1005.06
1023.24
1002.96
944.468
929.718
932.188
935.52
940.674
948.359
956.225
964.162
974.27
988.857
1009.85
1049.09
1121.71
1082.86
1060.64
990.952
979.408
1011.22
1015.98
971.948
925.667
914.134
911.462
914.204
919.247
924.439
930.306
937.189
945.592
958.611
975.561
1015.88
1105.64
1056.17
1035.83
996.021
988.454
1010.73
1013.09
975.995
929.264
907.176
901.321
905.166
908.908
912.133
916.8
921.961
928.219
937.344
950.298
986.578
1098.45
1050.56
1036.96
1006.7
999.001
1011.33
1009.55
978.674
934.736
911.509
903.847
897.77
899.464
903.955
909.707
916.147
921.657
927.684
935.62
964.34
1096.11
1054.85
1044.63
1021.22
1010.78
1013.74
1009.02
981.939
941.707
919.152
908.679
899.509
899.903
901.536
906.406
914.575
921.6
924.551
926.791
947.575
1093.11
1062.77
1060.52
1041.72
1025.58
1019.1
1010.03
985.556
950.256
926.892
913.607
904.751
901.905
902.731
906.35
913.148
919.475
923.308
926.342
942.721
1093.97
1070.06
1077.18
1066.36
1047.22
1028.94
1013.63
991.069
958.283
934.007
919.603
912.26
908.755
907.351
908.829
912.222
917.672
924.85
929.1
944.416
1096.11
1075.55
1087.2
1090.39
1077.75
1046.97
1022.05
999.116
966.186
941.121
925.99
920.606
918.75
916.341
913.679
914.844
919.312
927.626
933.29
948.112
1098.32
1078.98
1092.96
1105.39
1102.43
1076.84
1039.63
1011.21
976.413
949.649
933.173
927.739
926.875
923.89
920.587
921.326
924.511
930.969
937.107
951.794
1098.53
1079.11
1092.78
1105.55
1115.03
1103.49
1067.5
1031.51
991.438
962.943
943.152
934.452
930.7
927.537
928.54
930.957
933.054
937.522
942.726
953.592
1098.03
1078.4
1091.47
1103.68
1114.97
1112.89
1090.05
1057.14
1012.8
980.376
956.691
942.613
933.696
930.911
933.236
936.816
940.073
944.254
946.717
954.088
1095.83
1075.82
1087.04
1098.03
1110.91
1111.12
1104.09
1086.64
1051.66
1020.4
992.607
971.426
954.98
948.749
949.888
952.374
955.562
956.717
956.272
959.394
1251.67
1256.87
1258.82
1226.69
1205.82
1201.59
1192.07
1171.74
1143.67
1122.96
1107.03
1098.86
1096.4
1093.8
1094.95
1097.47
1099.94
1100.2
1099.63
1096.98
1257.19
1260.35
1256.73
1199.75
1189.55
1200.02
1196.18
1169.01
1121.53
1084.63
1059.35
1052.44
1056.23
1063.55
1070.99
1076.77
1080.71
1081.1
1080.5
1077.65
1258.19
1260.54
1194.04
1162.44
1182.58
1205.07
1202.68
1170.86
1106.62
1063.03
1040.71
1041.67
1048.18
1062.66
1078.46
1089.23
1094.95
1094.93
1093.95
1089.32
1226.44
1198.19
1159.3
1134.49
1159.08
1206.55
1211.95
1190.1
1103.6
989.34
995.911
1008.3
1023.82
1045.67
1070.99
1095.59
1109.47
1109.08
1106.8
1100.34
1204.65
1186.39
1179.37
1157.84
959.924
974.097
983.61
995.424
1008.9
1025.39
1048.16
1079.2
1105.02
1118.58
1118.71
1114.42
1199.18
1196.74
1201.62
1203.26
997.354
1006.28
1006.17
1006.89
1009.64
1015.01
1024.45
1041.17
1070.15
1102.26
1116.34
1114.58
1189.63
1193.26
1199.77
1208.69
1016.52
1012.48
1009.69
1006.66
1005.4
1006.18
1009.1
1016.04
1030.44
1056.74
1086.14
1103.69
1169.3
1166.4
1168.53
1187.33
999.332
970.134
973.51
976.352
979.524
982.632
986.816
993.115
1002.72
1019.03
1043.88
1079.83
1141.04
1119.49
1105.33
1102.88
964.82
999.778
1017.02
996.1
946.506
928.742
930.411
932.892
937.227
944.052
952.124
959.654
968.48
980.524
998.137
1038.93
1119.64
1081.78
1060.23
987.575
974.926
1006.84
1011.43
966.719
921.309
920.63
910.945
912.303
916.935
922.995
929.071
935.949
942.938
953.129
966.801
1005.11
1103.42
1055.73
1035.8
993.099
983.649
1006.39
1008.79
971.583
926.359
906.359
895.898
899.886
907.08
912.291
916.597
921.228
927.002
934.508
944.679
977.068
1094.82
1047.14
1036.32
1004.46
994.3
1006.91
1005.76
974.61
931.554
909.166
899.293
896.149
898.33
903.677
909.792
915.494
921.938
928.011
933.082
956.51
1092.09
1050.72
1041.65
1018.73
1006.45
1009.17
1004.62
977.759
937.568
915.869
906.912
898.126
899.115
901.7
907.981
914.885
922.06
925.94
926.984
942.481
1089.5
1058.07
1055.19
1038.41
1021.53
1014.11
1005.39
981.183
945.182
923.426
912.347
903.654
901.905
903.28
906.654
912.477
919.684
925.032
926.741
939.149
1090.35
1065.71
1071.68
1062.3
1042.3
1023.11
1008.28
985.918
953.342
930.116
916.98
910.285
908.681
907.106
907.908
910.745
917.219
925.824
929.354
941.675
1092.42
1071.52
1083.1
1086.81
1072.28
1039.04
1015.32
992.865
960.818
936.838
921.82
917.078
916.86
914.613
911.616
912.994
918.4
928.062
934.139
946.882
1094.73
1075.6
1090.13
1104.13
1098.95
1067.14
1029.76
1003.05
969.653
943.916
927.847
923.845
924.738
922.833
918.939
919.461
923.182
931.863
938.604
951.96
1095.04
1076.06
1090.25
1104.45
1114.47
1099.21
1055.91
1019.77
981.984
954.502
935.693
929.75
928.408
927.22
927.742
929.53
932.742
938.572
944.507
954.976
1094.57
1075.51
1089.36
1102.73
1115.07
1113.3
1084.52
1044.57
1000.03
968.946
946.717
935.34
929.507
928.339
930.638
935.161
939.726
945.438
948.929
955.144
1092.38
1073.02
1085.17
1096.89
1111.26
1111.69
1101.91
1079.88
1040.83
1008.07
980.401
960.232
945.767
941.197
943.414
948.282
953.882
957.222
956.756
958.981
1250.93
1256.27
1257.5
1223.34
1202.72
1199.53
1190.2
1169.75
1140.96
1120.06
1103.93
1095.95
1093.91
1091.8
1093.1
1095.91
1098.81
1099.28
1098.81
1096.28
1256.68
1259.93
1253.51
1195.49
1187.24
1198.58
1194.97
1167.53
1118.71
1080.99
1055.48
1048.68
1052.72
1060.64
1068.55
1075.18
1080
1080.7
1080.22
1077.48
1257.15
1257.95
1187.1
1158.29
1181.39
1203.93
1201.61
1169.88
1103.66
1058.31
1037.02
1038.31
1044.69
1059.31
1076.03
1088.04
1094.55
1094.53
1093.57
1089.29
1223.75
1194.51
1156.08
1131.3
1158.53
1204.87
1210.49
1188.96
1101.08
986.106
992.979
1005.93
1021.13
1042.4
1068.14
1093.7
1110.29
1110.15
1107.86
1101.17
1202.32
1184.51
1177.52
1154.28
964.191
974.467
983.758
994.844
1007.3
1022.9
1044.59
1075.93
1103.66
1119.39
1119.95
1115.76
1197.49
1195.34
1200.95
1202.34
997.363
1008.01
1007.66
1008.06
1009.97
1014.25
1022.42
1037.42
1064.71
1099.13
1116.95
1115.87
1188.42
1192.49
1199.26
1207.96
1016.43
1013.82
1011.09
1008.23
1005.61
1005.71
1007.45
1012.99
1025.46
1049.33
1081.31
1102.5
1167.97
1165.39
1167.9
1186.63
998.198
970.486
974.35
976.92
979.284
981.859
985.374
990.853
999.232
1013.37
1035.8
1074.51
1139.53
1118.09
1103.69
1100.26
962.54
996.137
1014.82
995.152
941.206
929.919
931.986
934.57
938.223
943.689
950.674
957.612
965.827
976.695
991.91
1031.91
1118.1
1080.43
1059.23
984.872
971.577
1004.87
1011.02
967.385
923.43
926.735
912.565
912.749
917.634
923.689
928.69
935.159
941.779
950.42
962.073
997.905
1102
1054.64
1035.4
990.905
980.315
1004.33
1008.31
971.896
929.173
911.122
892.394
896.482
907.306
913.61
917.268
921.004
925.829
932.434
940.918
970.684
1093.19
1045.62
1035.94
1002.84
991.061
1004.66
1005.43
974.493
934
912.303
896.798
895.779
898.534
903.572
910.058
915.973
922.405
927.316
930.912
951.572
1090.25
1048.94
1040.95
1017.51
1003.47
1006.61
1003.02
976.802
938.677
917.208
906.792
897.289
897.218
900.391
909.081
915.722
922.043
926.071
926.309
938.921
1087.73
1055.96
1053.54
1037.61
1018.98
1011.1
1003.35
979.577
944.459
922.904
912.47
902.095
900.604
902.547
906.785
911.667
918.262
924.699
925.988
935.925
1088.59
1063.64
1069.46
1061.65
1040.14
1019.62
1005.5
983.48
951.225
928.397
915.953
909.042
908.888
906.922
906.751
908.183
914.138
925.333
929.1
939.159
1090.59
1069.55
1081.02
1085.89
1070.17
1034.74
1011.59
989.445
957.891
934.874
919.793
915.128
915.618
912.374
908.359
909.269
915.102
928.905
935.702
945.288
1092.84
1073.64
1087.85
1103.14
1096.87
1061.51
1024.51
998.442
966.048
941.49
925.017
921.328
922.078
919.551
914.595
915.152
921.363
935.012
941.484
950.424
1093.14
1074.15
1087.92
1103.47
1113.41
1095.12
1048.26
1013.12
977.172
950.683
931.862
926.388
926.234
925.268
925.293
928.574
934.946
942.512
946.432
954.241
1092.68
1073.66
1087.13
1101.78
1114.43
1112.33
1079.58
1036.21
992.958
963.148
941.221
931.2
926.738
926.045
928.812
935.377
941.517
946.647
949.496
955.021
1090.41
1071.23
1083.34
1095.96
1110.73
1111.4
1099.49
1074.05
1033.23
1000.21
972.938
954.139
940.583
936.473
939.654
945.804
951.165
955.524
956.25
958.723
1250.85
1256.34
1257.55
1223.07
1202.43
1199.6
1190.26
1169.81
1140.93
1119.91
1103.74
1095.66
1093.69
1091.75
1093
1095.84
1099.01
1099.6
1099.16
1096.72
1256.56
1259.88
1253.65
1195.03
1187.21
1198.97
1195.23
1167.61
1118.88
1081
1055.42
1048.04
1051.98
1059.97
1068.13
1074.88
1080
1080.9
1080.46
1077.86
1256.96
1257.2
1186.17
1157.36
1181.94
1204.32
1201.91
1169.89
1103.94
1058.63
1036.94
1037.96
1043.65
1057.74
1074.95
1087.64
1094.82
1094.83
1093.91
1089.67
1223.66
1194.2
1155.91
1129.45
1161.39
1204.19
1209.9
1188.23
1099.51
985.851
992.686
1005.61
1020.49
1041.29
1066.72
1092.55
1110.22
1110.32
1108.2
1101.66
1202.26
1184.06
1176.68
1149.36
961.193
973.122
982.418
993.635
1006.14
1021.69
1043.22
1074.6
1102.57
1119.26
1120.11
1116.05
1197.42
1195.09
1200.75
1202.17
998.926
1006.64
1006.23
1006.62
1008.54
1012.83
1021.06
1036.15
1063.6
1098.46
1116.92
1115.99
1188.38
1192.42
1199.23
1207.87
1018.04
1012.54
1009.76
1006.95
1004.31
1004.42
1006.18
1011.83
1024.45
1048.48
1080.66
1102.3
1167.79
1165.17
1167.74
1186.41
999.372
969.265
973.226
975.991
978.444
981.048
984.527
989.96
998.318
1012.46
1034.99
1074.02
1139.51
1118.14
1103.88
1101.61
962.857
995.529
1015.03
995.816
954.028
928.751
931.853
934.831
938.449
943.652
950.349
957.066
965.137
975.915
991.099
1031.26
1118.33
1080.85
1059.82
985.07
971.745
1005.32
1010.75
966.649
925.237
928.035
912.879
912.939
916.974
922.324
927.741
934.214
940.665
949.249
961.057
997.103
1102.31
1055.04
1036.24
991.318
980.857
1005.03
1008.34
971.131
929.789
912.338
892.453
896.137
906.092
912.667
916.312
919.971
924.579
930.82
939.442
969.763
1093.74
1046.47
1036.84
1003.55
991.908
1005.47
1005.76
974.13
934.139
912.964
897.004
895.371
897.719
903.539
910.01
915.27
920.635
925.149
929.204
950.384
1090.88
1049.85
1041.93
1018.5
1004.56
1007.51
1003.74
977.052
938.793
917.699
906.974
897.611
898.413
901.511
909.25
915.303
920.782
924.734
924.916
937.529
1088.27
1056.81
1054.61
1039.11
1020.31
1012.08
1004.12
980.187
944.82
923.728
913.481
903.855
901.796
903.443
907.152
911.53
917.424
923.76
924.888
934.478
1089.11
1064.31
1070.21
1063.37
1041.82
1020.63
1006.35
984.207
951.825
929.413
917.735
910.76
909.893
907.591
906.943
907.974
913.528
924.33
927.935
937.772
1091.06
1070.13
1081.76
1087.62
1072.19
1035.88
1012.56
990.267
958.7
935.874
921.644
916.898
917.13
913.317
908.438
909.095
914.565
927.777
934.442
943.95
1093.13
1073.99
1088.38
1103.67
1098.64
1063
1025.7
999.37
966.985
942.608
926.521
923.473
923.857
920.689
914.789
915.149
920.948
934.128
940.534
949.316
1093.32
1074.36
1088.39
1103.77
1114.32
1096.3
1049.53
1014.19
978.206
951.846
933.306
928.572
928.08
926.532
925.876
928.516
934.626
941.957
945.939
953.759
1092.76
1073.8
1087.49
1102.02
1114.87
1113.18
1080.24
1036.84
993.981
964.252
942.663
932.846
928.708
927.148
929.533
935.598
941.489
946.539
949.403
954.799
1090.27
1071.16
1083.36
1095.95
1110.87
1111.98
1100.28
1074.42
1033.9
1000.87
973.94
955.257
942.051
937.64
940.705
946.688
951.928
956.08
956.578
958.8
1251.45
1256.95
1258.91
1226.1
1205.32
1201.84
1192.21
1171.83
1143.4
1122.63
1106.74
1098.48
1096.09
1093.62
1094.72
1097.4
1100.4
1100.87
1100.39
1098.01
1257.11
1260.24
1256.62
1198.77
1189.86
1200.88
1196.78
1169.29
1121.09
1083.62
1058.39
1051.11
1054.89
1062.34
1069.89
1076.02
1080.99
1081.75
1081.23
1078.65
1257.95
1259.9
1192.6
1160.81
1184.24
1206.1
1203.45
1171.28
1105.81
1060.9
1038.51
1039.64
1046.1
1060.37
1076.57
1087.96
1094.87
1095
1094.25
1090.22
1226.35
1197.45
1158.31
1131.18
1163.94
1206.12
1211.62
1189.8
1101.07
987.658
994.706
1007.43
1022.79
1043.97
1068.88
1093.97
1109.7
1109.52
1107.41
1101.23
1204.32
1185.06
1176.97
1150.4
959.536
972.941
982.903
994.804
1007.89
1023.81
1045.87
1076.91
1103.49
1118.59
1119.11
1115.13
1198.63
1195.77
1200.93
1202.66
994.664
1004.58
1004.55
1005.31
1007.96
1013.13
1022.34
1038.79
1067.88
1101.13
1116.47
1114.87
1189.25
1192.63
1199.33
1208.33
1013.36
1010.34
1007.72
1004.95
1003.5
1004.16
1006.9
1013.71
1028
1054.29
1084.63
1103.11
1168.66
1165.51
1167.75
1186.84
995.688
967.981
971.744
974.881
978.141
981.382
985.552
991.696
1001.07
1016.96
1041.56
1078.45
1140.58
1118.37
1103.55
1099.64
959.695
996.655
1014.59
994.579
947.244
925.898
929.717
932.876
936.909
943.125
950.814
958.292
966.976
978.732
995.981
1037.2
1119.73
1081.44
1059.51
987.455
974.641
1006.85
1011.73
967.393
924.791
923.52
911.314
912.409
916.857
922.854
927.924
933.92
940.739
950.739
964.313
1003.14
1103.76
1055.75
1036.48
993.895
984.077
1006.64
1009.05
971.577
928.77
910.506
897.663
901.961
909.128
913.15
916.497
920.21
925.151
932.117
942.1
974.783
1095.81
1048.68
1037.37
1006.12
995.297
1007.31
1006.1
974.581
933.132
911.958
901.577
897.763
899.619
905.309
911.008
916.105
921.869
926.293
930.522
953.753
1093.21
1052.43
1043.62
1021.25
1007.96
1009.77
1004.87
977.882
938.3
917.559
909.088
899.45
900.746
903.612
909.809
916.124
921.865
924.128
924.78
939.801
1090.39
1059.88
1057.74
1042.25
1023.66
1014.86
1005.59
981.317
945.448
924.987
914.346
905.458
903.632
905.267
908.219
912.953
918.577
923.179
924.548
936.615
1091.19
1067.08
1073.62
1066.87
1045.8
1024.04
1008.41
985.932
953.488
931.455
919.19
912.373
910.53
908.663
908.723
910.332
915.95
923.962
927.108
939.191
1093.07
1072.4
1084.36
1091.09
1076.6
1040.53
1015.5
992.747
961.039
938.198
924.253
919.167
918.548
915.119
911.225
912.408
917.418
926.427
932.174
944.52
1095.02
1075.91
1090.25
1105.38
1102.12
1069.48
1030.23
1002.92
969.973
945.218
930.277
926.339
926.305
923.499
918.739
919.179
922.63
930.875
937.391
950.432
1095.16
1076.15
1090.21
1105.15
1115.79
1101.37
1056.67
1019.78
982.261
955.608
937.877
932.233
930.756
929.149
928.824
929.784
932.65
938.191
944.192
954.602
1094.57
1075.49
1089.13
1103.06
1115.86
1114.27
1085.69
1044.7
1000.28
969.765
948.474
937.553
932.238
930.228
932.009
935.861
939.92
945.432
949.049
955.032
1092.02
1072.67
1084.6
1096.68
1111.43
1112.3
1102.49
1080.1
1041.07
1008.61
981.452
961.87
947.854
942.868
945.009
949.626
954.862
958.124
957.433
959.233
1251.71
1256.59
1259.46
1230.17
1210.5
1205.39
1195.11
1174.79
1146.93
1125.85
1110.1
1102.06
1098.9
1095.54
1096.39
1098.66
1101.5
1102.22
1101.94
1099.99
1256.58
1260.3
1260.27
1205.49
1194.63
1203.75
1198.77
1171.71
1124.26
1087.06
1061.58
1054.61
1058.16
1065.23
1071.88
1076.8
1081.01
1081.87
1081.56
1079.59
1258.13
1262.5
1205.48
1168.64
1187.83
1208.45
1205.37
1173.44
1108.79
1064.35
1040.01
1041.21
1048.7
1063.68
1078.48
1088.03
1094.4
1094.56
1093.87
1090.16
1229.79
1203.36
1164.83
1134.78
1166.18
1208.6
1213.77
1192.18
1104.8
993.196
999.309
1010.5
1025.69
1047.08
1071.13
1094.5
1107.81
1107.59
1105.76
1100.46
1208.65
1188.3
1178.57
1151.26
961.985
978.814
988.879
1000.24
1012.92
1028.7
1051.61
1081.84
1105.29
1117.23
1117.27
1113.41
1201.15
1197.49
1201.55
1203.21
998.379
1009.32
1008.95
1009.55
1012.09
1017.6
1027.91
1046.74
1077.49
1104.57
1114.9
1113.05
1190.99
1193.37
1199.97
1208.99
1016.33
1015.33
1012.34
1008.86
1007.5
1008.39
1011.91
1020.27
1037.85
1066.33
1090.2
1104.48
1170.43
1166.62
1168.52
1187.77
998.225
973.574
976.857
979.884
982.925
985.988
990.737
997.888
1009.2
1028.69
1054.7
1085.49
1142.67
1119.69
1104.71
1104.06
966.62
1001.68
1019.47
999.647
944.813
929.292
931.242
934.283
939.393
947.24
955.33
963.332
973.308
987.608
1008.41
1048.25
1121.58
1082.33
1059.72
991.59
980.127
1012.48
1017.57
974.136
927.383
916.265
910.222
912.995
918.775
924.624
930.482
936.951
944.964
957.684
974.521
1015.17
1105.54
1055.4
1035.56
997.091
989.65
1011.78
1014.48
977.773
931.937
909.668
902.909
906.756
910.553
913.197
917.191
921.986
928.068
937.02
949.823
985.961
1098.77
1050.9
1036.77
1007.95
1000.52
1012.27
1010.8
980.449
936.918
913.604
906.085
899.537
900.438
904.526
910.444
916.796
922.166
927.831
935.289
963.532
1096.52
1055.35
1045.13
1022.9
1012.59
1014.59
1009.8
983.505
942.962
920.872
910.972
900.748
900.626
902.403
907.52
915.24
921.756
924.314
926.21
946.432
1093.46
1063.55
1061.91
1044.6
1027.76
1019.85
1010.76
986.806
951.033
928.363
915.634
906.17
902.818
903.764
907.112
913.408
919.159
922.368
925.187
941.526
1094.35
1070.71
1078.39
1069.93
1050.41
1029.73
1014.29
991.945
959.002
935.202
921.356
913.698
909.513
907.987
909.34
912.169
917.162
923.817
927.874
943.192
1096.46
1075.91
1088.19
1094.15
1081.53
1048.11
1022.69
999.645
966.873
942.075
927.563
921.811
919.173
916.325
913.523
914.583
918.963
927.074
932.351
946.891
1098.54
1079.14
1093.14
1106.95
1105.87
1078.42
1040.25
1011.49
976.939
950.339
934.449
928.752
927.474
924.145
920.34
921.126
924.49
930.978
936.885
951.421
1098.67
1079.26
1092.91
1106.57
1116.82
1105.41
1068.42
1031.61
991.641
963.334
943.924
935.258
931.578
928.024
928.605
931.113
933.318
937.914
943.284
953.937
1098.07
1078.52
1091.61
1104.29
1116.44
1114.37
1091.49
1057.43
1012.77
980.426
956.986
943.156
934.431
931.409
933.638
937.192
940.467
944.959
947.366
954.363
1095.54
1075.67
1086.92
1098.14
1111.71
1112.26
1104.9
1087.03
1051.68
1020.25
992.48
971.493
955.052
949.039
950.304
953.006
956.303
957.496
956.768
959.619
1252.65
1256.49
1260.06
1235.19
1217.45
1210.24
1198.94
1178.68
1151.08
1129.79
1114.25
1106.26
1102.58
1098.56
1099.4
1101.66
1104.33
1104.89
1104.56
1102.4
1256.13
1259.85
1262.68
1213.52
1201.22
1208.14
1201.98
1175.23
1128.5
1090.82
1065.21
1059.17
1062.67
1069.3
1074.87
1079.04
1082.61
1083.22
1082.93
1080.95
1258.29
1263.36
1223.62
1180.76
1193.06
1211.98
1208.44
1176.7
1113.56
1067.83
1042.36
1044.21
1053.4
1069.31
1081.72
1089.9
1095.12
1095.24
1094.39
1090.37
1234.33
1210.81
1176.75
1141.5
1169.23
1212.31
1216.85
1195.44
1112.26
999.68
1004.24
1014.22
1029.64
1052.09
1076.09
1098.11
1106.84
1106.31
1104.36
1099.47
1215.51
1194.55
1182.81
1154.05
969.901
986.837
996.608
1007.12
1019.24
1035.59
1060.33
1088.61
1108.9
1116.66
1116.24
1112.18
1205.7
1201.55
1204.33
1206.07
1004.75
1016.81
1016.59
1017.31
1020.35
1026.7
1038.44
1059.19
1089.27
1109.27
1114.21
1112.1
1194.33
1195.91
1202.42
1211.52
1023.71
1024.33
1021.28
1017.24
1016.55
1017.8
1022.27
1032.27
1052.84
1079.9
1098.36
1107.61
1173.71
1169.28
1170.75
1190.26
1006.8
984.104
987.379
990.247
992.763
995.843
1001.19
1009.4
1022.81
1045.29
1070.52
1094.24
1145.99
1122.41
1107.47
1105.83
965.465
1007.55
1026.26
1006.44
942.189
928.672
933.589
939.685
948.256
957.581
965.164
973.552
984.777
1002.08
1025.64
1061.52
1124.93
1084.67
1061.19
997.45
987.315
1018.61
1024.83
982.411
926.743
908.402
911.739
917.954
924.342
930.773
937.768
945.017
954.95
970.314
990.362
1030.27
1109.1
1057.58
1036.58
1002.52
997.568
1018.08
1021.9
986.53
933.322
910.911
905.813
907.938
910.503
914.36
920.575
928.01
935.696
947.659
963.114
1000.46
1102.7
1055.37
1038.71
1012.62
1008.11
1018.65
1017.96
989.509
941.221
917.869
907.477
897.452
897.284
902.291
911.359
919.884
926.646
934.289
944.294
976.291
1100.09
1059.97
1049.45
1027.72
1019.46
1021.36
1017.53
992.325
950.619
926.218
911.857
898.017
897.256
899.512
905.712
915.685
922.629
926.388
931.587
957.864
1096.65
1068.05
1067.91
1050.05
1034.48
1027.36
1018.79
995.736
959.981
934.144
917.505
904.823
900.55
901.269
905.129
911.682
917.74
923.594
928.685
949.527
1097.65
1074.36
1082.88
1075.11
1057.92
1038.34
1023.17
1001.39
967.517
941.682
924.712
915.733
909.378
906.631
907.583
910.68
916.748
924.595
929.996
948.595
1099.94
1079.11
1091.32
1097.46
1087.28
1058.07
1032.89
1009.75
975.828
949.13
932.947
925.016
920.254
915.262
912.227
913.645
918.523
926.152
932.432
949.733
1102.04
1081.78
1094.75
1106.71
1108.96
1087.68
1052.64
1023.11
987.029
959.194
941.022
932.132
927.496
921.862
919.427
920.39
923.07
928.723
935.386
951.3
1102.13
1081.76
1094.38
1106.06
1116.52
1108.86
1079.16
1045.4
1004.31
974.444
953.114
940.123
932.291
927.59
928.273
929.448
930.911
935.509
940.579
952.064
1101.47
1080.93
1092.85
1103.73
1115.86
1113.93
1097.86
1070.09
1027.35
994.063
968.292
950.103
938.057
933.218
934.302
936.36
938.709
942.131
944.459
952.464
1098.84
1078.11
1088.04
1098.04
1111.23
1111.71
1107.36
1093.96
1062.51
1032.7
1004.45
981.341
964.006
955.246
953.744
954.427
955.384
955.399
954.581
958.078
1258.44
1262.12
1266.24
1244.19
1227.37
1218.81
1206.82
1186.15
1159.1
1137.91
1122.55
1114.75
1110.98
1107.41
1108.61
1111.06
1113.29
1113.63
1113.25
1111.02
1261.44
1265.7
1269.8
1223.99
1210.18
1216
1208.37
1181.55
1135.53
1098.08
1073.25
1068.01
1071.6
1078.39
1084.17
1088.35
1091.11
1091.32
1090.9
1088.67
1264.07
1269.26
1244.13
1196.09
1199.49
1216.54
1213.5
1182.01
1120.04
1074.4
1050.87
1053.41
1063.43
1079.68
1091.21
1099.43
1102.84
1102.65
1101.3
1096.6
1243.27
1221.06
1190.94
1152.15
1174.14
1216.87
1220.83
1199.43
1117.25
1007.22
1012.5
1023.69
1040.34
1063.61
1087.84
1108.74
1113.59
1112.69
1110.41
1105.04
1225.88
1204.58
1190.07
1159.69
975.607
995.598
1006.56
1017.83
1030.74
1048.3
1074.64
1101.19
1119.39
1122.97
1121.97
1117.05
1214.63
1209.76
1209.4
1210.72
1011.94
1026.43
1027.45
1029.19
1033.18
1040.58
1053.8
1076.33
1105.38
1119.95
1120.72
1117.67
1202.48
1202.31
1207.88
1215.75
1033.47
1035.56
1033.23
1029.8
1029.87
1031.65
1037.31
1049.2
1071.88
1096.93
1112.58
1116.31
1181.37
1175.6
1175.85
1194.38
1017.51
995.679
999.975
1003.48
1006.36
1010.06
1015.99
1025.09
1040.61
1064.79
1089.33
1107.93
1154.35
1128.85
1111.84
1106.47
976.198
1012.98
1033.34
1014.34
929.217
926.971
939.47
951.157
962.679
971.926
979.063
988.068
1000.95
1021.21
1046.56
1078.86
1133.71
1091.78
1066.63
1004.1
996.203
1026.62
1033.82
992.95
924.508
909.322
914.874
925.004
935.063
943.183
950.734
959.018
970.863
988.478
1010.64
1048.88
1118.33
1066.3
1045.45
1010.6
1007.47
1027.25
1031.76
998.098
939.199
914.415
908.074
911.448
916.642
922.96
931.346
941.005
950.836
964.613
981.396
1018.74
1112.02
1065.83
1048.9
1022.62
1018.42
1028.86
1029.1
1002.09
952.344
925.515
912.158
901.801
902.154
908.526
920.339
931.929
940.153
948.229
959.057
992.976
1108.89
1070.19
1061.01
1039.23
1030.32
1032.66
1029.47
1005.5
964.052
936.992
919.353
903.028
902.542
906.619
915.932
925.39
931.248
935.868
943.07
973.81
1105.61
1077.73
1079.54
1062.13
1046.22
1039.7
1031.53
1009.51
973.506
946.119
926.579
910.972
907.783
909.546
912.928
917.975
924.325
932.919
939.851
964.377
1106.88