/*--------------------------------*- C++ -*----------------------------------*\
  =========                 |
  \\      /  F ield         | OpenFOAM: The Open Source CFD Toolbox
   \\    /   O peration     | Website:  https://openfoam.org
    \\  /    A nd           | Version:  9
     \\/     M anipulation  |
\*---------------------------------------------------------------------------*/
FoamFile
{
    format      ascii;
    class       volVectorField;
    location    "0.005";
    object      U;
}
// * * * * * * * * * * * * * * * * * * * * * * * * * * * * * * * * * * * * * //

dimensions      [0 1 -1 0 0 0 0];

internalField   nonuniform List<vector> 
9720
(
(-853.878 -856.805 -62.4935)
(-656.399 -891.732 -54.2001)
(-537.009 -930.64 -68.5003)
(-470.297 -1038.03 -85.5346)
(-318.709 -1154.55 -91.3325)
(-89.504 -1201.39 -88.9009)
(163.701 -1200.67 -93.8481)
(446.354 -1207.23 -85.1192)
(763.299 -1184.44 -100.437)
(1010 -1067.77 -81.7733)
(1201.72 -924.449 -88.0008)
(1333.61 -788.843 -97.8338)
(1415.4 -669.572 -91.4452)
(1493.11 -582.422 -83.703)
(1553.59 -507.455 -93.5807)
(1617.26 -453.572 -96.2141)
(1678.89 -399.849 -94.2643)
(1753.85 -370.041 -94.9116)
(1819.96 -341.415 -103.445)
(1944.87 -314.016 -115.448)
(-887.456 -656.345 -51.5823)
(-694.957 -695.152 -42.111)
(-597.804 -746.618 -51.8433)
(-661.601 -905.315 -75.4978)
(-431.923 -1131.89 -94.7337)
(-137.419 -1177.77 -85.7731)
(148.42 -1160.05 -86.5576)
(499.631 -1174.23 -76.3849)
(939.46 -1112.38 -85.3465)
(1252.54 -901.192 -70.1035)
(1437.88 -681.354 -77.4497)
(1533.95 -516.974 -87.6864)
(1562.5 -395.224 -82.6402)
(1584.23 -320.125 -75.1952)
(1625.39 -287.386 -85.0578)
(1673.58 -267.614 -88.9933)
(1727.2 -245.993 -88.373)
(1791.96 -231.133 -87.8632)
(1853.6 -215.339 -93.2768)
(1971.8 -201.519 -106.966)
(-928.344 -538.301 -60.245)
(-745.148 -596.031 -44.0454)
(-696.232 -693.315 -47.8002)
(-831.892 -896.835 -78.9701)
(-491.222 -1156.2 -90.5365)
(-146.545 -1157.35 -77.0397)
(144.465 -1138.82 -75.2687)
(538.598 -1143.61 -73.0413)
(1063.57 -1007.71 -67.3209)
(1372.66 -686.781 -60.0338)
(1496.95 -490.303 -87.8053)
(1593.37 -371.352 -84.4287)
(1641.85 -271.537 -79.0002)
(1626.12 -210.337 -79.9243)
(1635.9 -166.192 -86.4754)
(1668.56 -148.259 -84.6608)
(1716.26 -137.422 -76.1661)
(1779.82 -126.221 -72.3424)
(1844.45 -112.669 -66.5274)
(1969.2 -103.712 -73.1848)
(-1031.18 -460.78 -68.0661)
(-904.812 -652.066 -52.2898)
(-904.923 -826.983 -56.5458)
(-965.941 -938.609 -80.8488)
(-697.581 -1062.98 -88.1065)
(-244.542 -1128.76 -85.2561)
(72.9248 -1099.73 -83.2606)
(418.986 -1093.67 -81.6173)
(1040.37 -996.503 -82.9952)
(1711.82 -543.92 -96.3189)
(1814.24 -466.254 -89.9388)
(1853.19 -398.442 -106.655)
(1859.29 -311.131 -107.566)
(1813.44 -218.143 -96.2858)
(1725.6 -122.066 -97.311)
(1701.59 -49.0553 -105.602)
(1721.33 -44.8173 -106.916)
(1771.81 -41.4975 -111.023)
(1831.93 -25.5614 -111.003)
(1956.04 -8.83492 -111.88)
(-1147.47 -313.076 -86.9111)
(-1128.45 -428.783 -85.7309)
(-1162.65 -486.249 -78.0451)
(-1081.15 -685.701 -77.7677)
(1768.84 -534.425 -106.104)
(2175.5 -377.978 -113.726)
(2159.28 -338.518 -118.089)
(2140.46 -294.62 -125.857)
(2113.05 -247.873 -132.354)
(2069.78 -184.421 -129.81)
(1981.55 -111.247 -138.895)
(1865.27 -44.7402 -137.172)
(1805.88 33.9082 -115.144)
(1819.66 67.4334 -112.372)
(1847.64 89.8948 -113.433)
(1933.72 100.541 -118.354)
(-1199.89 -84.4294 -88.9897)
(-1179.77 -135.17 -87.2915)
(-1158.86 -146.257 -79.4634)
(-1120.28 -242.186 -87.0235)
(2234.68 -205.209 -141.362)
(2298.7 -113.584 -128.269)
(2300.06 -111.834 -135.677)
(2300.22 -102.067 -139.397)
(2293.49 -85.8956 -142.38)
(2276.31 -63.1374 -140.795)
(2240.26 -15.7033 -144.764)
(2150.66 38.997 -146.496)
(2018.32 89.6652 -122.386)
(1954.81 135.892 -116.432)
(1949.71 178.995 -119.716)
(1996.59 201.458 -125.781)
(-1197 168.608 -97.3884)
(-1160.45 153.183 -92.1932)
(-1144.13 147.359 -80.7496)
(-1101.09 77.832 -88.2956)
(2299.26 46.365 -143.929)
(2376.91 144.583 -130.177)
(2387.24 143.009 -133.522)
(2393.59 146.852 -138.978)
(2391.53 149.355 -141.187)
(2383.49 158.646 -140.495)
(2367.26 180.679 -141.24)
(2325.61 216.02 -148.884)
(2235.48 263.408 -139.816)
(2111.78 322.77 -117.598)
(2035.95 358.239 -121.806)
(2048.46 358.097 -125.33)
(-1205.46 451.132 -89.5882)
(-1176.48 506.008 -82.9911)
(-1148.7 547.948 -80.0555)
(-1093.1 425.01 -89.1157)
(2371.78 373.428 -141.675)
(2443.43 580.657 -132.353)
(2464.59 557.504 -136.403)
(2479.93 529.091 -130.704)
(2480.6 498.99 -131.18)
(2490.42 470.39 -140.339)
(2485.59 442.092 -141.899)
(2467.1 436.209 -138.795)
(2429.67 446.727 -136.457)
(2357.95 469.526 -119.474)
(2244.27 499.221 -108.034)
(2210.13 474.554 -115.33)
(-1180.52 767.826 -108.243)
(-1108.94 946.896 -98.9602)
(-999.703 1073.6 -86.073)
(-976.94 1065.44 -107.891)
(-548.906 1812.37 -134.83)
(-216.281 2197.28 -142.462)
(45.6921 2258.96 -139.182)
(390.313 2331.05 -132.66)
(1776.76 1976.98 -125.822)
(2301.79 1294.25 -122.747)
(2330.15 1091.29 -106.921)
(2384.17 1000.84 -147.242)
(2444.9 935.352 -167.536)
(2471.65 868.568 -155.867)
(2494.36 810.74 -138.03)
(2525.03 761.312 -134.689)
(2510.96 726.799 -136.508)
(2473.51 719.093 -133.767)
(2395.07 742.33 -125.038)
(2319.88 708.51 -119.737)
(-1062.38 1013.31 -93.9558)
(-896.492 1256.61 -90.9831)
(-679.844 1375.62 -86.8023)
(-544.765 1713.28 -111.683)
(-394.03 2138.91 -120.911)
(-121.433 2247.86 -126.093)
(149.617 2326.99 -125.48)
(588.651 2392.33 -117.062)
(1210.98 2275.4 -130.925)
(1834.11 1922.14 -69.896)
(2214.93 1611.85 -154.573)
(2216.72 1402.31 -165.228)
(2288.23 1297.92 -151.989)
(2353.93 1211.07 -141.171)
(2420.73 1135.13 -122.188)
(2473.29 1064.99 -124.352)
(2521.15 1004.08 -149.803)
(2514.71 950.108 -140.344)
(2479.98 951.208 -124.908)
(2419.47 911.597 -104.279)
(-919.524 1204.47 -102.81)
(-680.976 1440.56 -100.524)
(-489.208 1497.32 -114.379)
(-466.16 1804.85 -110.731)
(-351.599 2126.5 -126.284)
(-116.681 2251.55 -132.938)
(144.913 2340.18 -129.409)
(559.993 2414.69 -121.42)
(1063.03 2316.49 -97.7955)
(1504.91 2149.37 -182.165)
(1934.74 1987.7 -186.662)
(2091.99 1741.2 -133.269)
(2132.83 1547.87 -111.007)
(2220.21 1475.07 -103.437)
(2311 1408.03 -105.029)
(2378.42 1327.38 -124.291)
(2422.21 1243.25 -144.13)
(2482.35 1170.62 -144.018)
(2476.52 1146.42 -118.215)
(2458.8 1100.12 -104.233)
(-784.487 1335.66 -114.08)
(-517.913 1536.21 -112.508)
(-376.589 1592.95 -111.39)
(-399.787 1839.04 -126.49)
(-307.55 2109.95 -134.746)
(-104.503 2253.13 -137.577)
(144.565 2351.52 -137.408)
(527.212 2431.73 -120.935)
(984.164 2367.1 -119.19)
(1338.06 2188.25 -165.3)
(1643.61 2042.97 -152.33)
(1859.4 1885.29 -88.5805)
(2024.92 1758.75 -67.6631)
(2143.62 1689.64 -76.9566)
(2213.74 1627.04 -122.326)
(2280.9 1554.06 -144.195)
(2327.92 1465.39 -136.14)
(2396.93 1387.83 -132.522)
(2467.58 1351.7 -124.006)
(2485.61 1283.7 -111.066)
(-665.325 1415.52 -106.237)
(-395.716 1560.19 -102.882)
(-279.683 1643.64 -102.887)
(-316.379 1845.32 -124.687)
(-261.073 2083.92 -137.935)
(-86.9629 2247.49 -141.523)
(147.12 2351.27 -142.632)
(494.735 2429.72 -125.735)
(917.594 2418.48 -137.948)
(1268.78 2273.77 -133.407)
(1491.99 2096.63 -126.548)
(1691.49 2009.43 -76.8613)
(1902.29 1932.15 -92.5775)
(2031.31 1819.83 -144.668)
(2074.21 1705.55 -166.739)
(2134.26 1663.45 -135.34)
(2211.02 1616.59 -92.3555)
(2315.16 1572.5 -77.2196)
(2409.87 1540.55 -100.82)
(2461.14 1449.63 -106.432)
(-577.861 1491.72 -98.4931)
(-319.976 1579.78 -93.775)
(-218.351 1624.62 -100.856)
(-228.205 1804.27 -112.303)
(-194.074 2045.04 -134.058)
(-62.3183 2232.84 -140.428)
(154.913 2344.91 -142.269)
(465.095 2439.79 -136.685)
(850.285 2442.95 -133.146)
(1187.96 2339.19 -111.601)
(1444.45 2192.92 -92.0505)
(1648.98 2122.33 -84.6651)
(1778.26 2027.73 -152.279)
(1898.45 1920.31 -205.086)
(1971.29 1809.67 -165.469)
(2058.29 1755.28 -85.1132)
(2151.53 1745.53 -44.5007)
(2252.77 1730.49 -44.5951)
(2337.71 1705.83 -105.444)
(2421.64 1604.78 -124.814)
(-503.242 1551.1 -108.093)
(-288.138 1620.2 -102.926)
(-173.974 1630.79 -106.082)
(-137.204 1721.7 -108.711)
(-123.381 1961.19 -138.445)
(-15.9691 2199.31 -143.564)
(175.328 2330.34 -142.714)
(436.146 2436.49 -137.618)
(792.32 2462.96 -121.228)
(1112.27 2403.99 -91.7217)
(1383.88 2293.84 -82.1082)
(1600.01 2203.02 -118.047)
(1681.55 2068.91 -163.536)
(1783.3 1980.32 -163.961)
(1882.1 1903.54 -68.2333)
(1985.77 1856.23 -42.6294)
(2086.84 1835.69 -37.6888)
(2172.05 1805.35 -61.7034)
(2248.06 1796.16 -126.78)
(2355.44 1723.54 -127.634)
(-449.895 1613.74 -111.013)
(-268.491 1668.38 -106.767)
(-153.356 1663.08 -103.286)
(-62.65 1694.66 -116.279)
(-58.8033 1849.01 -131.161)
(32.1638 2114.92 -142.646)
(208.548 2289.77 -148.608)
(430.688 2420.08 -133.989)
(744.563 2490.92 -123.341)
(1042.91 2452.07 -98.2308)
(1305.45 2365.52 -103.246)
(1530.83 2273.27 -130.86)
(1651.62 2129.69 -131.11)
(1748.83 2058.22 -87.3089)
(1844.5 1998 -47.3753)
(1930.07 1941.9 -84.9205)
(2010.25 1900.6 -71.4569)
(2081.35 1845.71 -87.8173)
(2151.61 1838.17 -119.227)
(2282.08 1811.14 -99.9357)
(-396.911 1674.65 -108.659)
(-246.644 1721.92 -105.365)
(-141.685 1711.47 -93.5946)
(-55.2608 1714.87 -117.212)
(23.2148 1791.17 -114.525)
(79.9834 1990.2 -120.163)
(252.686 2202.12 -135.879)
(440.265 2385.51 -130.217)
(710.955 2476.23 -127.751)
(983.621 2496.31 -129.376)
(1222.16 2408.4 -123.015)
(1444.63 2319.91 -114.449)
(1602.94 2204.06 -79.7901)
(1739.9 2149.15 -40.6481)
(1831.33 2092.66 -40.6712)
(1895.61 2020.83 -72.3806)
(1952.29 1960.27 -61.8987)
(2021.52 1892.37 -78.9061)
(2085.61 1884.42 -77.3069)
(2221 1890.34 -55.7452)
(-367.791 1749.17 -109.12)
(-231.726 1786.7 -104.414)
(-129.876 1775.59 -88.8396)
(-49.0628 1765.53 -120.225)
(57.0353 1806.94 -114.998)
(125.79 1937.14 -118.933)
(313.057 2083.86 -114.886)
(461.437 2318.75 -112.708)
(703.493 2439.53 -125.534)
(930.26 2490.27 -124.799)
(1152.55 2468.42 -120.919)
(1368.66 2387.76 -104.418)
(1555.07 2307.14 -59.2228)
(1722.82 2255.31 -34.1126)
(1813.87 2180.94 -62.7342)
(1851.99 2092.94 -91.2806)
(1895.24 2033.72 -81.8245)
(1963.13 1965.63 -67.6454)
(2024.14 1965.52 -28.1151)
(2170.43 1982.6 -15.0479)
(-339.662 1815.23 -117.025)
(-216.034 1848.54 -109.359)
(-116.317 1840.47 -83.0655)
(-31.6134 1825.5 -121.074)
(80.0126 1836.28 -119.636)
(168.752 1934.6 -124.36)
(345.898 2019.46 -124.049)
(484.79 2215.37 -107.384)
(722.909 2363.75 -118.576)
(929.168 2455.36 -110.504)
(1125.42 2461.04 -97.6724)
(1330.59 2452.16 -98.9575)
(1521.49 2398.53 -81.4105)
(1694.38 2339.2 -91.2233)
(1796.65 2257.04 -121.387)
(1848.98 2163.87 -116.049)
(1896.61 2094.76 -78.308)
(1976.86 2022.56 -28.3314)
(2044.44 2025.93 2.66865)
(2155.42 2043 -28.0847)
(-312.459 1940.2 -127.364)
(-202.137 1966.89 -121.114)
(-107.425 1965.17 -88.1811)
(-14.5552 1950.11 -122.014)
(91.4109 1925.47 -125.976)
(191.663 1984.22 -130.941)
(345.342 2035.52 -128.162)
(463.522 2193.64 -115.161)
(690.138 2301.63 -116.177)
(888.681 2402.63 -94.5836)
(1076.7 2446.52 -89.6246)
(1260.07 2472.79 -92.9659)
(1428.87 2451.59 -90.0327)
(1588.87 2417.57 -109.623)
(1714.91 2355.47 -115.658)
(1811.87 2286.13 -89.5356)
(1897.36 2221.2 -46.8353)
(1997.65 2170.75 -4.85438)
(2061.64 2148.18 -18.0348)
(2158.54 2144.4 -56.3354)
(-855.838 -860.266 -25.1466)
(-655.732 -895.53 -12.5237)
(-539.203 -936.495 -15.1155)
(-487.298 -1056.03 -14.824)
(-329.209 -1180.89 -33.6401)
(-93.6827 -1223.48 -38.5504)
(162.144 -1220.71 -44.9386)
(447.447 -1225.46 -37.2306)
(768.148 -1202.02 -49.8518)
(1014.91 -1082.97 -31.074)
(1207.49 -938.354 -35.4724)
(1339.26 -800.697 -43.3736)
(1421.36 -680.065 -36.0147)
(1499.86 -592.472 -27.8507)
(1558.83 -515.215 -36.0138)
(1620.16 -459.484 -39.83)
(1680.42 -405.074 -41.4493)
(1754.79 -375.026 -44.288)
(1821.35 -347.301 -54.029)
(1946.81 -320.698 -66.0341)
(-889.404 -658.153 -12.3042)
(-695.905 -701.118 7.22446)
(-601.748 -758.944 10.007)
(-687.006 -932.633 -5.87001)
(-441.221 -1176.57 -44.0184)
(-135.897 -1206.09 -40.5764)
(148.168 -1187.64 -43.3021)
(502.409 -1197.43 -34.2004)
(944.108 -1133.84 -40.2024)
(1262.13 -921.663 -25.2534)
(1446.2 -696.628 -29.8578)
(1541.75 -531.596 -38.6707)
(1576.89 -407.554 -28.7972)
(1594.55 -326.962 -17.8089)
(1632.44 -290.579 -27.4239)
(1677.62 -269.177 -33.2187)
(1728.98 -248.155 -37.1781)
(1792.53 -233.616 -39.9632)
(1853.9 -219.215 -48.0443)
(1973.12 -207.605 -62.24)
(-931.067 -541.448 -11.9261)
(-747.736 -604.173 11.5767)
(-733.279 -741.162 45.1938)
(-859.08 -950.714 -19.4434)
(-492.8 -1193.16 -50.0225)
(-141.911 -1190.35 -47.4189)
(151.621 -1167.8 -41.0261)
(544.498 -1176.1 -38.349)
(1068.58 -1034.93 -23.138)
(1388.16 -707.457 -18.8781)
(1509.19 -502.405 -38.0236)
(1596.58 -380.394 -40.81)
(1657.74 -281.008 -34.6485)
(1646.03 -217.53 -23.1446)
(1646.33 -171.136 -26.04)
(1674.07 -148.528 -23.9319)
(1717.76 -139.074 -20.9329)
(1779.46 -129.151 -21.6324)
(1842.92 -116.796 -21.7705)
(1967.67 -109.608 -33.1436)
(-1043.9 -474.834 -1.78022)
(-920.57 -680.635 11.419)
(-944.516 -867.778 -8.4911)
(-985.638 -997.508 -33.2226)
(-677.028 -1099.38 -51.5121)
(-243.933 -1168.18 -53.5756)
(72.9859 -1141.85 -53.1717)
(421.433 -1132.1 -46.2272)
(1039.37 -1041.07 -25.6868)
(1750.7 -565.135 -27.5077)
(1844.53 -468.504 -22.2704)
(1878.48 -397.33 -43.2738)
(1883.84 -313.059 -50.9256)
(1845.95 -222.431 -36.8111)
(1758.87 -131.514 -27.8637)
(1715.58 -51.7069 -45.2473)
(1729.4 -43.0264 -54.3604)
(1774.35 -43.4725 -65.368)
(1832.49 -30.0233 -71.1899)
(1955.19 -15.4348 -74.9588)
(-1169.61 -322.671 -29.1785)
(-1164.8 -443.418 -36.7699)
(-1194.7 -501.284 -47.3232)
(-1122.09 -712.186 -41.6477)
(1817.76 -552.301 -53.1308)
(2236.58 -390.211 -77.8869)
(2213.75 -349.81 -73.0312)
(2190.05 -305.326 -74.5537)
(2157.6 -259.742 -77.7203)
(2116.04 -195.093 -73.3893)
(2032.83 -118.968 -76.5073)
(1912.63 -56.347 -62.1682)
(1829.98 28.3457 -45.4371)
(1834.16 66.1863 -56.0041)
(1858.36 88.6483 -66.4321)
(1939.76 97.6535 -79.1651)
(-1221.21 -89.954 -38.915)
(-1207.68 -136.835 -43.3151)
(-1189.96 -144.43 -51.0159)
(-1159.94 -245.229 -52.0762)
(2330.44 -216.883 -99.8574)
(2365.09 -119.993 -84.8772)
(2362.92 -117.503 -84.4113)
(2360.87 -108.493 -83.6995)
(2352.21 -92.2835 -82.1359)
(2332.72 -70.1288 -75.8971)
(2298.17 -24.6681 -79.0583)
(2216.01 31.8474 -72.1203)
(2079.87 90.3329 -29.9011)
(1987.84 137.507 -37.0452)
(1974.99 174.101 -66.3328)
(2017.47 196.753 -84.2668)
(-1217.8 165.038 -49.603)
(-1188.3 149.844 -50.4476)
(-1171.1 150.449 -46.3304)
(-1141.92 76.0827 -56.4491)
(2397.87 39.6582 -101.891)
(2449.15 144.141 -86.2568)
(2455.49 142.428 -86.1357)
(2459.53 144.931 -83.7446)
(2457.64 146.875 -82.2301)
(2449.51 154.85 -78.1369)
(2434.64 174.84 -73.3969)
(2399.01 208.275 -76.5625)
(2317.51 251.185 -60.0725)
(2188.58 315.728 -13.6894)
(2083.09 363.231 -41.3702)
(2084.93 362.214 -60.7931)
(-1224.45 450.613 -43.391)
(-1201.55 505.891 -44.4901)
(-1178.76 548.596 -49.2577)
(-1130.47 423.329 -53.1178)
(2467.71 374.052 -102.085)
(2521.67 582.908 -87.7229)
(2536.88 558.035 -83.5108)
(2549.66 531.239 -73.3466)
(2549.02 501.319 -67.9276)
(2555.35 473.74 -73.401)
(2554.04 445.345 -70.5908)
(2536.25 434.042 -61.597)
(2502.95 443.421 -55.6644)
(2437.63 461.942 -28.9818)
(2320.37 499.961 -1.67968)
(2257.94 483.545 -30.2095)
(-1200.52 771.287 -58.7928)
(-1134.82 948.109 -58.1057)
(-1027.68 1072.07 -49.565)
(-1026.1 1058.84 -41.722)
(-581.795 1876.36 -53.3433)
(-229.809 2280.98 -103.26)
(38.103 2351.04 -103.335)
(388.869 2435.74 -95.14)
(1808.44 2072.88 -56.4368)
(2374.39 1317.03 -76.6817)
(2404.97 1104.56 -60.6347)
(2462.98 1006.95 -88.6059)
(2517.64 940.29 -101.293)
(2542.96 876.504 -81.7353)
(2557.03 814.644 -66.5292)
(2587.36 765.447 -62.5487)
(2579.91 727.76 -59.3378)
(2547.59 715.141 -47.5251)
(2479.77 737.507 -19.5419)
(2384.18 713.515 -21.4)
(-1081.47 1018.83 -42.3259)
(-923.168 1266.51 -46.0384)
(-703.664 1388.55 -49.308)
(-563.896 1750.76 -57.0201)
(-410.519 2212.7 -83.1444)
(-129.318 2333.18 -88.9784)
(144.913 2423.24 -87.7844)
(592.654 2499.9 -86.8065)
(1240.73 2396.56 -89.2677)
(1840.35 1924.91 -24.9779)
(2273.27 1615.73 -135.12)
(2308.83 1428.1 -118.753)
(2363.15 1310.75 -65.9165)
(2416.27 1216.3 -54.4705)
(2474.87 1139.45 -53.7193)
(2533.06 1073.25 -57.9481)
(2586.37 1014.16 -76.0899)
(2588.54 954.317 -57.1908)
(2556.77 950.47 -24.7777)
(2481.73 913.799 -2.52939)
(-936.457 1211.69 -47.9601)
(-702.916 1451.68 -48.3825)
(-509.045 1512.68 -57.908)
(-475.135 1841.6 -42.6625)
(-368.1 2192.69 -77.472)
(-124.645 2328.93 -87.4786)
(140.055 2428.55 -87.5402)
(561.394 2507.65 -80.5858)
(1077.37 2409.14 -49.579)
(1519.79 2245.5 -147.139)
(1993 2050.66 -150.832)
(2176.59 1793.04 -30.689)
(2193.74 1575.24 -5.24194)
(2263.21 1478.1 -40.4763)
(2360.43 1414.58 -52.8702)
(2442.38 1341.82 -47.3818)
(2489.3 1261.22 -53.4243)
(2543.25 1179.04 -56.7112)
(2543.25 1147.42 -21.6374)
(2516.34 1100.52 -5.36912)
(-797.99 1341.78 -55.8329)
(-535.996 1548.3 -54.9526)
(-392.679 1603.54 -55.0128)
(-408.107 1873.24 -52.0963)
(-324.095 2168.91 -77.0606)
(-112.722 2326.12 -85.1301)
(139.415 2432.13 -83.896)
(529.735 2519.45 -71.4949)
(994.81 2459.74 -57.8528)
(1362.66 2275.96 -103.947)
(1702.03 2142.91 -38.8406)
(1912.62 1932.5 18.7259)
(2069.17 1771.88 -27.4345)
(2200.07 1702.58 -26.8161)
(2280.71 1652.78 -33.2928)
(2340.52 1578.67 -28.5768)
(2385.87 1481.23 -21.9526)
(2441.31 1386.79 -50.3393)
(2514.15 1350.6 -49.08)
(2537.37 1286.27 -22.2639)
(-675.794 1419.78 -47.2519)
(-407.778 1571.8 -40.7301)
(-292.121 1660.45 -41.2437)
(-329.768 1875.36 -50.2945)
(-278.321 2136.19 -73.9495)
(-96.6064 2316.59 -81.1721)
(140.969 2430.12 -81.6966)
(497.266 2515.9 -66.8329)
(926.282 2503.06 -70.6049)
(1280.08 2346.58 -44.9054)
(1511.76 2158.99 -14.9102)
(1711.01 2052.99 -29.1437)
(1953.08 1984.13 -58.1226)
(2115.24 1884.54 -40.5271)
(2144.94 1755.4 -36.0129)
(2182.23 1669.72 -16.7941)
(2247.24 1616.84 -0.118044)
(2337.77 1570 -27.1469)
(2456.06 1547 -35.6642)
(2512.91 1458.8 -11.905)
(-587.658 1496.87 -38.9234)
(-325.275 1586.32 -30.0626)
(-226.313 1640.07 -30.2756)
(-240.898 1836.78 -30.5782)
(-211.306 2095.32 -63.3799)
(-75.0911 2297.35 -73.1725)
(147.736 2421.64 -76.3071)
(467.542 2519.92 -72.8758)
(858.781 2523.33 -61.1208)
(1194.41 2403.27 -26.8779)
(1447.23 2237.98 -20.8751)
(1662.82 2174 -25.1738)
(1841.44 2111.74 -47.1057)
(1975.23 1993.36 -74.2449)
(2015.93 1842.82 -51.3581)
(2088.18 1760.52 -5.25589)
(2175.11 1746.1 22.2517)
(2280.13 1740.32 15.095)
(2389.15 1727.7 -18.4262)
(2467.97 1619.73 -18.8288)
(-511.105 1555.29 -46.8811)
(-292.149 1625.01 -40.0339)
(-180.022 1638.18 -36.822)
(-150.857 1751.72 -17.9786)
(-136.039 2012.1 -57.6977)
(-31.0511 2263.09 -71.4132)
(166.288 2405.66 -69.9877)
(437.861 2517.95 -68.6885)
(796.041 2533.2 -52.5417)
(1119.04 2462.29 -24.2788)
(1393.96 2343.38 -26.4356)
(1627.17 2263.29 -28.5978)
(1723.38 2130.75 -37.4406)
(1815.01 2019.39 -51.0843)
(1898.6 1918.52 16.9896)
(2009.98 1868.37 25.6326)
(2118.08 1857.21 40.1426)
(2211.66 1831.25 39.498)
(2289.86 1812.55 -9.26922)
(2390.86 1725.08 -15.5567)
(-456.749 1616.54 -51.3772)
(-272.022 1671.46 -46.9466)
(-157.242 1666.79 -36.5512)
(-70.5036 1704.6 -42.8601)
(-72.6937 1890.89 -41.7431)
(21.1781 2181.67 -56.9616)
(197.548 2367.08 -69.2235)
(425.858 2499.57 -57.279)
(746.791 2560.49 -51.2107)
(1050.33 2514.79 -31.1369)
(1321.27 2428.59 -28.5789)
(1556.11 2327.31 -20.016)
(1657.62 2171.96 -13.4072)
(1751.78 2081.43 -5.1291)
(1855.36 2017.86 19.4073)
(1960.14 1970.83 -6.8959)
(2048.02 1934.13 27.2872)
(2123.37 1866.5 36.0021)
(2183.57 1838.38 -3.86219)
(2305.55 1804.55 -4.79783)
(-403.541 1676.52 -52.7785)
(-251.067 1723.86 -50.858)
(-147.073 1712.6 -34.9069)
(-56.8936 1722.02 -59.0094)
(15.6438 1811.43 -37.1649)
(77.0819 2046.71 -18.7089)
(239.734 2283.23 -46.383)
(434.856 2464.84 -48.0479)
(710.848 2550.43 -48.6438)
(991.283 2563.46 -53.8657)
(1237.96 2470.66 -35.0954)
(1458.82 2370.99 -2.70935)
(1602.54 2234.83 13.3542)
(1738.68 2163.88 26.7022)
(1848.39 2115.07 34.5904)
(1928.95 2052.9 24.8393)
(1980.96 1986.42 58.3284)
(2040.2 1901.41 46.9886)
(2097.89 1879.72 16.4063)
(2230.06 1884.31 20.0342)
(-374.355 1750.59 -55.4922)
(-236.552 1787.83 -53.4033)
(-136.44 1775.49 -36.1043)
(-54.0474 1768.85 -71.52)
(53.2886 1818.51 -54.3409)
(120.682 1966.21 -35.5104)
(305.506 2153.27 -4.7426)
(452.319 2398.62 -17.1848)
(698.543 2517.13 -35.4374)
(932.846 2563.47 -38.6504)
(1159.86 2525.7 -34.8253)
(1367.71 2425.82 -22.1576)
(1551.31 2321.74 -7.12782)
(1729 2270.86 25.0698)
(1837.83 2208.73 33.6579)
(1871.89 2125.96 30.9277)
(1905.26 2047.95 42.1642)
(1966.86 1966.94 33.2496)
(2025.12 1960.58 45.6972)
(2176.2 1980.16 56.596)
(-347.108 1817.18 -64.7034)
(-222.242 1849.73 -61.1095)
(-123.579 1839.6 -36.7484)
(-38.826 1826.79 -78.539)
(75.3495 1844.78 -69.3215)
(160.508 1954.79 -66.5359)
(347.32 2059.31 -40.7142)
(486.865 2284.21 2.34051)
(718.467 2447.45 -9.10315)
(927.968 2529.82 -8.34233)
(1126.01 2523.68 -0.0683692)
(1330 2494.71 -21.6824)
(1525.87 2434.63 -14.3804)
(1713.3 2380.14 -4.5787)
(1815.84 2288.8 -3.9215)
(1850.84 2187.84 4.38091)
(1894.57 2103.3 17.8606)
(1972.92 2020.28 45.1335)
(2043.42 2022.41 71.4708)
(2170.22 2048.68 51.3103)
(-320.345 1942.55 -75.4346)
(-210.037 1969.05 -73.6358)
(-115.464 1964.51 -46.4907)
(-22.9135 1949.94 -82.0777)
(84.941 1930.29 -83.8366)
(185.323 2000.12 -85.4058)
(345.566 2065.19 -60.3321)
(469.453 2234.31 -28.7874)
(693.815 2360.61 -16.5452)
(890.044 2461.2 7.22435)
(1076.02 2500.52 9.03952)
(1260.96 2520.51 -3.96863)
(1434.76 2496.74 3.38171)
(1602.75 2457.43 -4.43104)
(1719.57 2384.47 -1.91148)
(1807.61 2304.24 11.5225)
(1892.25 2226.74 31.5815)
(1996.17 2172.19 65.7029)
(2069.38 2158.32 61.7536)
(2171.79 2154.16 32.7664)
(-871.301 -868.679 -14.5447)
(-669.02 -905.148 -0.51224)
(-556.936 -951.686 2.85464)
(-520.848 -1088.38 3.46693)
(-342.018 -1221.95 -15.4705)
(-98.7591 -1256.48 -21.9354)
(160.867 -1250.63 -26.8771)
(452.263 -1256.83 -23.2628)
(775.877 -1231.23 -32.4933)
(1022.81 -1109.25 -12.6479)
(1219.01 -964.481 -15.0367)
(1351.71 -825.546 -23.8723)
(1434.21 -703.825 -18.4)
(1511.94 -615.745 -10.6568)
(1571.13 -536.821 -16.1754)
(1632.58 -480.894 -21.5714)
(1691.37 -426.638 -25.885)
(1763.86 -396.374 -29.366)
(1829.22 -368.951 -38.3247)
(1953.26 -342.642 -48.3207)
(-904.833 -664.083 -1.11315)
(-713.54 -710.764 18.0459)
(-626.058 -779.647 26.8253)
(-726.327 -966.412 12.7669)
(-451.023 -1218.56 -17.134)
(-137.612 -1233.48 -20.5791)
(148.532 -1213.88 -23.2568)
(510.471 -1226.51 -18.8787)
(952.136 -1154.8 -22.2715)
(1269.25 -936.465 -3.29003)
(1457.24 -710.563 -1.6992)
(1556.01 -551.583 -13.9323)
(1598.68 -429.394 -9.60097)
(1611.53 -344.13 0.533002)
(1646.95 -302.163 -6.30108)
(1691.52 -280.132 -13.6192)
(1741.71 -261.886 -20.4046)
(1802.95 -249.783 -24.3249)
(1862.32 -237.594 -32.8597)
(1979.74 -227.334 -44.8778)
(-941.436 -555.783 1.46566)
(-769.336 -621.386 18.6971)
(-812.947 -805.79 48.6615)
(-889.403 -1000.35 -0.704845)
(-505.996 -1217.99 -15.8384)
(-139.158 -1208.26 -20.5702)
(158.594 -1190.43 -19.5949)
(554.03 -1201.36 -18.6378)
(1074.15 -1043.47 -3.32843)
(1391.94 -709.423 -1.28931)
(1513.97 -502.119 -7.57312)
(1596.9 -384.682 -10.4286)
(1666.49 -292.686 -8.53486)
(1665.22 -225.761 -0.476232)
(1663.51 -179.152 -7.28517)
(1690.63 -156.009 -8.38762)
(1731.74 -149.521 -6.95165)
(1789.85 -143.981 -6.72576)
(1849.34 -135.5 -9.40314)
(1970.03 -129.433 -20.6867)
(-1073.55 -510.653 2.43342)
(-951.987 -721.354 6.1237)
(-996.06 -896.226 -14.8223)
(-1017.13 -1025.95 -16.4156)
(-683.786 -1140.86 -15.5391)
(-246.344 -1193.09 -28.086)
(74.0547 -1168.71 -28.625)
(426.577 -1160.13 -23.7265)
(1057.26 -1062.85 -6.49931)
(1795.54 -592.178 -4.81054)
(1877.99 -470.71 5.98088)
(1898.65 -379.392 -6.67918)
(1906.94 -290.25 -17.2414)
(1881.75 -199.21 -4.63152)
(1805.65 -129.263 2.51654)
(1746.5 -56.7621 -20.4324)
(1755.49 -34.6739 -36.3443)
(1790.6 -41.397 -45.2807)
(1841.56 -39.2705 -53.6624)
(1955.88 -32.5752 -58.1532)
(-1212.43 -343.944 -20.7652)
(-1213.55 -458.691 -29.7322)
(-1221.31 -513.535 -33.5746)
(-1136.77 -718.302 -28.1471)
(1833.78 -571.089 -38.7948)
(2284.06 -400.064 -54.7133)
(2269.39 -363.856 -47.3415)
(2247.59 -325.794 -48.2921)
(2212.75 -287.484 -50.9751)
(2173.85 -227.07 -44.9906)
(2103.59 -142.938 -47.9337)
(1989.32 -71.3773 -39.4822)
(1893.58 15.3992 -30.5447)
(1881 68.4127 -42.5525)
(1900.05 85.2331 -53.6511)
(1969.41 88.9107 -64.1699)
(-1252.44 -100.86 -22.9924)
(-1233.71 -140.807 -23.315)
(-1208.54 -141.098 -27.3138)
(-1192.11 -248.82 -31.1917)
(2343.41 -220.815 -63.8306)
(2418.59 -131.868 -49.648)
(2426.36 -129.573 -48.3947)
(2428.96 -120.036 -48.2074)
(2424.43 -103.578 -49.6941)
(2408.36 -82.8788 -45.4976)
(2380.1 -44.8062 -50.322)
(2313.96 17.6977 -52.6468)
(2194.67 88.5494 -13.8211)
(2080.94 129.334 -13.3244)
(2048.47 159.962 -53.074)
(2076.89 179.578 -72.0852)
(-1248.55 157.272 -31.3807)
(-1213.8 143.282 -28.128)
(-1189.79 154.723 -22.501)
(-1167.47 75.0482 -32.2714)
(2429.29 38.2181 -65.2094)
(2521.6 136.296 -49.8464)
(2532.21 132.846 -49.5772)
(2544.36 133.096 -51.9211)
(2548.23 137.437 -55.1561)
(2544.85 144.568 -55.6133)
(2534.87 159.438 -51.6499)
(2510.69 187.207 -52.3442)
(2447.95 231.782 -49.3535)
(2338.23 293.053 -2.88347)
(2206.97 353.573 -7.12521)
(2180.26 356.04 -51.8324)
(-1253.58 448.92 -26.5557)
(-1225.29 504.769 -22.4984)
(-1198.88 547.288 -23.94)
(-1156.96 425.493 -29.1919)
(2514.14 375.54 -59.6267)
(2603.86 580.31 -47.9652)
(2617.79 551.573 -35.9409)
(2636.54 526.29 -34.95)
(2644.54 499.123 -38.5133)
(2648.87 474.008 -46.4261)
(2654.97 446.825 -50.3349)
(2642.49 429.405 -42.8749)
(2619.51 434.547 -39.2074)
(2571.68 450.954 -23.3633)
(2475.59 492.838 12.2009)
(2382.26 486.869 -13.53)
(-1231.49 773.965 -40.497)
(-1161.52 946.029 -35.0354)
(-1052.81 1063.51 -21.5577)
(-1064.87 1048.16 -38.2998)
(-577.571 1843.91 -64.1345)
(-235.246 2336.94 -64.4812)
(36.1275 2419.09 -63.8051)
(383.371 2518.58 -61.9419)
(2042.82 1900.49 -35.9673)
(2478 1309.68 -39.6388)
(2500.47 1112.32 -8.97661)
(2551.59 1008.54 -25.3223)
(2594.78 935.953 -44.9711)
(2641.33 878.274 -45.4377)
(2653.13 815.291 -35.1054)
(2680.46 770.793 -40.7903)
(2688.48 727.24 -43.9377)
(2663.97 706.443 -36.5802)
(2620 724.221 -9.34426)
(2523.94 714.57 -7.56852)
(-1112.2 1025.87 -26.193)
(-950.577 1274.11 -24.1421)
(-729.529 1392.23 -26.3931)
(-624.919 1780.9 -37.0542)
(-414.501 2266.14 -46.8139)
(-133.301 2396.07 -47.709)
(140.513 2496.48 -43.0465)
(592.982 2581.79 -50.8646)
(1292.39 2454.16 -38.1474)
(1874.6 1888.42 8.89274)
(2324.57 1588.96 -119.851)
(2387.57 1425 -80.8488)
(2439.21 1306.5 -1.79076)
(2505.53 1221.14 11.2087)
(2567.68 1151.73 -27.5871)
(2617.84 1077.83 -38.4146)
(2672.24 1022.72 -57.3148)
(2693.65 955.565 -46.1426)
(2677.82 940.169 -12.465)
(2611.7 914.233 7.52488)
(-966.259 1222.19 -30.9125)
(-725.85 1462.28 -23.6773)
(-527.197 1518.23 -24.4522)
(-517.062 1879.14 -20.2039)
(-373.546 2254.51 -39.7824)
(-129.877 2402.13 -46.3501)
(133.705 2507.67 -45.5986)
(560 2591.96 -38.527)
(1103.36 2486.52 -26.6604)
(1556.74 2303.47 -128.03)
(2046.48 2066.45 -172.286)
(2275.71 1816.81 15.2245)
(2302.12 1616.46 60.174)
(2350.89 1496.17 -9.18959)
(2441.96 1424.35 -62.5094)
(2512.17 1349.4 -40.7572)
(2576.25 1273.41 -19.2564)
(2627.86 1196.49 -31.181)
(2658.56 1147.55 -11.3313)
(2635.01 1101.49 0.823485)
(-825.422 1352.74 -39.4244)
(-561.931 1558.54 -33.8216)
(-410.107 1597.39 -24.5334)
(-430.252 1901.19 -16.3119)
(-334.01 2233.61 -42.9055)
(-119.877 2405.33 -45.886)
(131.813 2521.78 -48.4249)
(531.997 2610.35 -39.7306)
(1017 2555.05 -44.7356)
(1385.83 2345.3 -84.9956)
(1764.29 2240.09 12.5703)
(2021.47 2020.9 74.672)
(2182.06 1830.14 -51.3731)
(2266.09 1716.92 -74.4315)
(2345.78 1663.22 -32.9905)
(2420.78 1599.51 4.04039)
(2485.06 1511.79 23.3159)
(2528.11 1414.56 -18.8059)
(2603.27 1361.75 -52.8912)
(2636.57 1292 -25.8112)
(-701.176 1431.16 -33.6153)
(-433.647 1592.76 -29.4761)
(-314.569 1671.49 -24.0861)
(-345.803 1910.05 -16.1775)
(-294.277 2201.9 -43.497)
(-105.823 2402.26 -46.4833)
(136.126 2525.18 -48.6246)
(501.613 2617.79 -44.3747)
(942.694 2597.34 -57.0827)
(1288.66 2419.99 -8.94022)
(1564.97 2247.75 50.2467)
(1786.25 2144.63 -50.6037)
(2022.72 2034.33 -126.099)
(2174.48 1919.48 -24.4799)
(2225.01 1795.06 40.1639)
(2270.88 1711.59 24.5066)
(2336.34 1651.84 19.1253)
(2402.01 1583.18 -32.7698)
(2509.05 1556.75 -50.9695)
(2595.12 1467.38 -11.1303)
(-612.244 1507.54 -25.7769)
(-345.567 1601.71 -17.2096)
(-243.516 1667.07 -15.7274)
(-251.068 1888.28 -8.06088)
(-236.17 2166.76 -38.5929)
(-90.1081 2387.52 -43.4712)
(142.201 2521.4 -47.8407)
(473.618 2620.96 -49.5148)
(874.714 2630.62 -48.4548)
(1208.94 2492.41 9.36921)
(1472.94 2320.38 -2.93835)
(1685.85 2227.68 -62.0824)
(1886.74 2146.37 -23.5952)
(2056.88 2056.33 8.13644)
(2109.46 1906.92 9.58009)
(2164.11 1799.12 0.371444)
(2236.75 1772.58 8.86515)
(2323.83 1737.56 -3.92412)
(2438.96 1738.26 -17.4046)
(2546.28 1636.81 -5.68887)
(-534.029 1566.03 -29.2634)
(-306.465 1637.71 -19.9929)
(-194.958 1657.18 -15.8654)
(-173.424 1811.03 -3.50684)
(-155.793 2100.21 -43.6324)
(-56.4031 2361.86 -48.3853)
(155.611 2510.45 -43.5968)
(444.402 2627.06 -50.5643)
(804.509 2635.25 -33.7091)
(1138.71 2556.97 -15.4696)
(1411.71 2423.26 -41.0315)
(1648.32 2317 -25.3456)
(1768.94 2184.11 28.8013)
(1892.88 2085.53 7.50132)
(1967.08 1964.14 26.9592)
(2073.55 1900.38 7.74246)
(2178.05 1887.89 24.339)
(2267.01 1844.25 53.6064)
(2349.85 1839.51 27.228)
(2466.35 1749.38 12.4069)
(-480.085 1627.09 -32.5359)
(-286.1 1682.92 -23.7904)
(-170.073 1682.06 -13.0851)
(-87.4546 1741.08 -20.602)
(-93.5893 1981.4 -33.505)
(0.61023 2296.98 -47.1156)
(181.154 2484.46 -45.2143)
(422.932 2613.97 -40.6491)
(756.669 2661.94 -35.4665)
(1064.42 2607.65 -22.1299)
(1337.34 2501.53 -22.5718)
(1582.05 2394.69 17.903)
(1697.82 2239.69 35.8257)
(1791.03 2137.33 9.49434)
(1894.33 2062.97 5.97359)
(2007.84 2009.53 -16.185)
(2102.47 1976.69 33.0202)
(2186.04 1900.51 78.6342)
(2245.63 1871 42.9692)
(2374.2 1822.7 18.1367)
(-426.856 1685.9 -35.1682)
(-267.408 1734.35 -28.7671)
(-162.33 1724.14 -12.1731)
(-56.6302 1747.81 -36.9958)
(-7.33971 1878.97 -20.7733)
(63.1263 2174.56 -8.06312)
(222.037 2420.05 -39.9525)
(426.351 2589.39 -35.3984)
(713.249 2667.54 -39.283)