/*--------------------------------*- C++ -*----------------------------------*\
  =========                 |
  \\      /  F ield         | OpenFOAM: The Open Source CFD Toolbox
   \\    /   O peration     | Website:  https://openfoam.org
    \\  /    A nd           | Version:  9
     \\/     M anipulation  |
\*---------------------------------------------------------------------------*/
FoamFile
{
    format      ascii;
    class       volScalarField;
    location    "0.008";
    object      p;
}
// * * * * * * * * * * * * * * * * * * * * * * * * * * * * * * * * * * * * * //

dimensions      [1 -1 -2 0 0 0 0];

internalField   nonuniform List<scalar> 
9720
(
1.28759e+06
1.102e+06
876217
557059
493911
527619
526194
450951
354587
280674
221209
190142
181728
186176
198692
223817
263024
313222
362745
444856
1.09305e+06
926234
400692
287481
415401
508184
509418
414613
266956
167348
115976
100120
103318
112977
130803
159370
199686
254355
308239
400673
887058
404900
242619
222988
406417
506927
508207
401795
207532
103497
77778
79090.3
85555.2
98525.6
116216
141020
174518
221368
275190
381263
562427
284109
220322
171794
303208
499547
536159
458199
192890
44971.9
48655.6
55654.9
63735
72070.5
81202.5
91924.6
105809
126069
157347
266933
482027
397903
390083
301422
35788.6
63746.9
69450.3
74029.3
77016.2
79318.7
82056.8
85840
91573.3
100273
112289
166759
508185
489862
490033
481653
88748.3
92698.6
90827.3
89388.3
88322
88371.3
88981.7
90085.1
91770.2
93994
96430.7
116762
505088
490795
491602
520015
98865.4
92570.8
91059.8
89689.7
88676.3
87793.4
87652.2
87903.8
88450.1
89442.1
90882.8
99873.5
431716
396788
384686
440765
80300.4
59023.6
62259.4
64094.1
65464.3
66992.7
68650.8
70529.7
72506.7
74475.4
76634.7
83384.1
337965
252304
194079
170202
33385.4
82853.9
92168.4
74194.6
8171.15
13755
22132.3
30299.1
36949.5
42644.6
47406.7
51041.3
54799.1
58985.4
62288
69546.7
267181
157438
96789.2
42360.4
59690
86461.8
86039.9
55238.4
14440.5
5399.54
7181.51
11809
18125.6
24276
29730.6
35017.5
40186.4
45834.1
50093.1
57542.7
211027
109183
74276.6
46308.7
65345
84594.4
84630.6
58715.6
22750.3
7500.36
4841.06
5666.49
8043.09
11871.5
17130.4
23065.5
28976.8
34789.2
39018.6
46972
182701
96114.3
75474.7
53013.2
69465
83228.3
83529
60827.4
30481
12515.2
5947.31
4762.7
5032.45
6753.06
10317.9
15305.3
20419.9
25246.6
29548.6
38200.1
174364
99495.6
82254.4
60738.5
72205.6
82587.7
82655.9
62304.7
36945.6
18967.1
8712.18
5211.77
5238.44
5678.96
7114.49
10055.8
13687
18020.6
22482.2
31021.1
178333
108620
95474
69088.5
74552.7
82830.6
82240.3
64062.6
42504.9
25064.5
12830.2
7352.76
5942.6
5577.01
5736.43
6834.91
9221.4
13195.7
17405.2
24992.3
189987
124996
112230
78186.7
77396.7
83639.6
82379.7
65953.1
47072.7
30273.1
18207.2
11371
7909.38
6088.45
5714.2
6013.36
7238.53
10214.6
13658.4
20266.6
214394
151276
134496
88236.2
81325.5
85027.7
82937.7
67883.6
50523.5
35335.1
24144.8
16622.3
11361.4
7785.83
6260.49
6393.49
7246.17
8703.72
10762.6
16260.8
253187
189026
164112
101276
87110.1
87024.1
83914.6
69924.4
54110.7
40408
29854.9
21757.3
15283.5
10641.7
8069.56
7515.84
7761.65
8464.43
9682.45
14044.1
303504
242702
206988
120205
95732
89675.7
85393.9
72119.9
58197
45849.9
35425.8
26601.8
19737.3
14750.8
11518.2
9677.85
8871.83
9042.06
9975
13762.4
353159
296730
258825
148945
107500
92526.6
87275.3
74572.2
61469.3
49962.6
39623.3
30876.8
24112.7
18853
15046.3
12376.9
10546.1
10483.6
11138.2
14310.2
433632
387701
363158
252847
160668
113494
97408.8
81978.5
69036.9
57686.2
47747.2
39454.7
32430.7
26408.5
21838.9
18346.7
15804.9
15019.8
15130.1
16631.8
1.28646e+06
1.09252e+06
822904
523339
480873
526434
525297
448182
348937
274914
215542
183604
175309
179703
191321
214954
252558
302370
353205
437799
1.08505e+06
855372
362080
276584
420438
513122
511688
414175
262672
161565
111509
95464.4
98507.1
107413
123556
150097
187977
240553
294420
389153
840092
364752
233409
216710
416393
512699
510881
401425
203143
97586.7
73602.9
75204.3
81157.6
92695.3
108655
131516
162947
207059
258703
364566
530646
271828
210691
163179
327035
498420
535945
457431
193028
42878.9
46036.6
52674
60219.2
67708.2
75597.7
85223.2
97781.1
116099
143953
247264
467884
395425
386696
287492
36236.9
62297.1
67433
71563.3
74116.7
75942
78166.4
81271.7
86088.5
93672.2
104176
152804
502810
489076
491452
480503
87161.7
90801.4
88763.4
86995.1
85520.8
85078.3
85368.5
86030.3
87235.5
88978.8
90914.8
108073
501060
489452
492818
518169
97166.8
90585.7
88876.1
87149.9
85586
84457.1
83883.9
83933.5
84221
84812.7
85885.8
93371
428245
396727
385657
440780
78802.3
57613.6
60408.9
61858.7
62867.9
64299.3
65855.1
67192.2
68487
70084.9
72116.3
78160.3
333021
250102
192094
175047
34001.1
82022.4
91238
72844.5
8407.39
13441.8
21082
28887.2
35605.2
40964
44966.2
47749.7
50898.5
55184.8
58631.7
65091.8
261261
152871
92273.6
41117.9
59525.5
86395.6
85797.4
54717.4
14168.9
5021.62
6811.57
11388.5
17310.4
22786.2
27396.9
32059.9
37292.4
42889.2
46733.9
53210.8
204329
105157
70577.7
44458.5
64644
84442.6
84268.4
57912.4
22026.7
7079.37
4475.92
5229.96
7234.14
10485.8
15274.1
21169.3
26876.4
32056.8
35596.1
42695.4
174596
90967.6
72137.3
50844.9
68545.4
82848.2
82832.6
59603.5
29428.7
11990.6
5440.35
4099.81
4289.04
5855.06
9289.78
13967
18557.5
22617
26251.1
34298.7
166614
93979.5
78202.8
58059.2
70954.6
81529
81538
60828.6
35888.4
18096.3
7797.11
4426.07
4540.48
5207.09
6648.58
9163.62
12162.5
15672.8
19643.7
27729.8
170997
102361
89483.7
65496.4
72807.3
81320.6
80581.9
62483.2
41153.5
23557.2
11310
6314.56
5402.61
5167.87
5302.67
6116.29
7985.37
11313.9
15118.8
22231.4
182436
117424
104200
73207.7
75033.3
81648.6
80322.7
64239.9
45052.2
28058.5
16253.4
10120.7
7232.04
5537.06
5004.63
5188.76
6233.12
8870.64
11954.6
17979.5
205628
142210
124747
82187.7
78082.7
82433.1
80493.3
65585.6
47871.9
32648.7
22219.2
15060.3
10131.4
6775.29
5362.38
5475.56
6236.01
7618.35
9536.25
14471.8
242520
178090
152980
93805.7
82718.3
83815.1
81001.3
66972.4
51076.8
37923.1
27876.1
19763.7
13444.1
9044.78
6834.18
6436.84
6658.52
7286.23
8354.6
12354.6
291657
229835
193969
110647
89982.2
85850
81943.1
68792.4
55285.1
43474.6
32990
23973.8
17235.4
12644.2
9900.59
8354.09
7610.59
7719.24
8513.15
11823.8
341362
283106
244254
136242
100057
88042.1
83335.7
71007.5
58626.9
47299.3
36678.3
27797.2
21318.4
16549.8
13154
10743.9
9049.6
8899.54
9423.45
12186.3
422663
374653
348082
234585
147264
105418
91565.1
77441.9
65300.1
54131.3
44109.8
36018.3
29441.1
23833.4
19481.4
16153.6
13750.9
12925.1
12891.3
14208.5
1.3225e+06
1.13673e+06
791061
495251
471067
529833
527069
447725
346710
273096
214235
180639
171514
176060
187485
210696
247893
298266
350581
438944
1.13055e+06
764762
322729
269332
424001
517010
512577
412393
258891
157953
110258
93051.6
95849.7
104526
120009
145513
182447
234463
290227
389150
804723
319718
226879
213695
417812
515740
510981
397734
197812
93491
71322.4
73998.4
79845.1
90450.3
105181
126684
157175
199856
251864
362664
492372
256549
202057
158429
331207
500949
538959
456886
185846
41507.4
44173.4
50865.7
58597.1
65743.6
72920.1
81618.8
93140.6
109927
135049
235355
452472
394801
385491
284189
32791.8
60097.1
64673.3
68649.9
71570.6
73506.3
75602.8
78473
82972.7
90072.9
99573.6
143358
500854
487705
488161
479851
84466.9
87875.7
86065.4
84445.9
83012.2
82823.6
83254.3
84187.5
85646.7
87548.5
89313.2
103526
501231
489579
489267
516676
94133.6
87550.1
85936.9
84447.3
83071.6
82014.6
81903.3
82169.8
82746.7
83552
84625.9
90975.5
427648
397103
384771
439684
75885.1
55443.2
58064.9
59653.3
60858.8
62494.6
64286.7
65600.7
66904.3
68644
70801.7
76530.1
331273
250606
193682
180364
32082.6
82141.6
91233.9
72817.1
8021.56
13031.9
20304.6
27593.5
34353.1
39508.3
43191.2
46040.5
49105.5
53580.6
57309
63623.1
257885
150178
89573.4
39252.9
58313
85854.1
85243.6
53783
13213.3
4647.19
6377.01
10769.5
16335.3
21477.6
25937.6
30480.7
35819.4
41345.8
45113.4
51543.9
200847
103946
67774.5
41825.6
62695.1
84037.2
83706.5
56644.4
20834
6546.43
3967.94
4623.78
6588.76
9741.07
14219
20024.6
25463.4
30242
33864.4
40975.6
168987
87640.8
70195.7
48148.8
66536.5
82407.5
82301
58411
28119.5
11204.1
4750.68
3626.25
3802.99
5230.56
8480.41
12828.1
17164.8
21175.4
24704.6
32700.5
160380
89811.8
75599.7
55533.2
69472.6
80995.8
81073.1
59799.3
34797.7
17004.7
7000.56
3888.49
4000.8
4691.55
6029.86
8365.65
11272.9
14539.1
18307.7
26320.4
165245
97593.2
85545.4
62676
71517.6
80747
80115.3
61603.7
40076.3
22364
10417.2
5521.3
4808.1
4810.52
4938.46
5726.95
7331.45
10255.6
13835.5
20985.8
176938
112390
99346.2
69822.9
73599.5
81114.5
80030.9
63590.4
43974
26963.8
15098.6
9030.31
6407.81
5080.52
4738.52
4825.36
5655.61
7947.47
10821.6
16841.8
199973
137091
119314
78157.6
76238
82027.5
80378.2
65067.2
46997.6
31619.3
21082.2
13727.8
9086.69
6178.97
4953.71
4997.48
5593.42
6841.11
8776.65
13582.6
236432
172949
147903
88956.5
80325
83535.9
81096.3
66516.7
50261.3
37111.2
26758.2
18382
12370.8
8184.76
6154.77
5780.5
5953.92
6585.04
7610.32
11297.4
285850
224262
188426
104352
86856.8
85572.6
82102.3
68422.3
54745
42842.9
31842.6
22750.2
16095.6
11577.8
8956.4
7504.57
6859.72
6992.83
7655.74
10533.6
336689
279235
239542
127538
95818.4
87493.6
83381.2
70714.8
58343.7
46751.5
35689.4
26646.9
20172.9
15469.3
12117.5
9844.64
8255.16
7945.67
8359.21
10873.6
421506
374965
349465
223920
138345
101589
90143.1
76767.4
64813.9
53467.8
43144.5
35035.6
28494.1
22939.1
18518.9
15168.6
12631.4
11567.2
11589.4
12945.4
1.33847e+06
1.17143e+06
752183
470157
464461
530946
526989
445628
342189
268020
211017
176347
167020
172194
184515
207916
244754
295268
348660
439545
1.1664e+06
679930
289686
261286
423606
517126
512718
410769
255223
152950
107672
89687.9
92142.8
100766
116306
141560
178255
229421
285664
387596
761435
283828
223269
210661
411892
515645
511200
396042
194374
89342.4
67178.8
71319.5
77911.2
87827.6
101342
121381
151070
192865
244857
358992
455444
246374
201882
160758
314202
502009
540121
455352
174740
39407.6
41613.5
48206
56433.3
63608.1
70262.8
77916.4
87976.5
102760
125069
220936
439094
397838
389977
297529
34689.5
58685.9
62992.7
66767.9
70108.8
72219.8
73928.9
76095.6
79694.6
85709.6
93851.9
132093
497622
486412
487015
475958
82159.8
86504.8
84822.5
83257.3
81893.4
81371.8
81653
82395.7
83680.2
85428.6
86867.1
97936.8
499071
487922
486715
514114
91806.8
86382.5
84860.9
83520.7
82227.2
81108.2
80537.9
80658.5
81075.6
81759.5
82625
87546.2
425132
394669
380993
436492
73839.4
54133.4
56585.2
58258.3
59629.2
61239.1
62884.2
64020.1
65210.1
66814.9
68642.6
73618.9
328459
247887
189692
172860
31358.4
81003
90500.4
72256.5
7817
12114.4
19210.7
26297.7
32815.1
38072.3
41797
44812.7
47722.8
51546.6
55034.8
61287.6
255612
147835
86914.9
38031.5
57580.1
85285.2
85032.9
53425
13015.5
4338.92
5880.82
9930.72
15161.3
20074.1
24766.3
29452.8
34416.5
39525.3
43329.9
49794.4
200448
103564
64962.5
40131.5
61676.7
83521.2
83536.2
56272.7
20476.6
6139.93
3579.49
4132.68
5883.35
9095.63
13489.3
18902.4
24110.1
28538.8
32182.9
39304.9
166836
85703.4
68602.6
46332.4
65263.9
81926.2
82221.8
58095.2
27489.4
10631.3
4291.82
3174.04
3415.78
4787.87
7724.74
11736.6
15696.2
19589.2
23356.3
31201.7
155770
87218.6
74408.6
54168
68536.2
80622.1
81112.6
59613.6
33962.4
16365
6355.69
3470.79
3577.79
4149.16
5345.3
7421.94
10109.6
13530.5
17238.5
24973.9
160444
94238.4
83440.2
61045.2
70654.8
80005.2
80074.4
61298.1
39437.8
21628.5
9855.29
4976.34
4188.02
4379.02
4605.18
5308.03
6844.41
9630.81
12903.8
19749.6
172070
108376
95787.9
67500.3
72369.7
80281.9
79731.2
63099.7
43429.3
26325.4
14382.6
8079.25
5534.27
4703.76
4588.36
4670.93
5437.74
7417.43
9915.6
15669.1
194245
131954
113857
74701.3
74491.6
81081.9
79937.9
64464.7
46495.7
30883.3
19910.3
12388.8
7888.94
5589.22
4767.44
4820.66
5294.31
6312
8015.72
12682
229368
166523
140984
84191.7
77821.7
82435.3
80442.3
65829.2
49474
35851
25395
16816
10962.7
7446.02
5792.22
5434.94
5549.4
5993.37
6904.92
10481.4
278457
215267
178997
97607.2
83365.9
84346.7
81288.4
67619.2
53368.1
41283.4
30275.4
21199.4
14788
10614.2
8194.76
6851.01
6192.17
6290.3
6937.25
9580.21
331029
270871
228150
117314
90868.1
85955.8
82309.2
69659.9
56858.6
45312.6
34124.7
25203.3
18768.5
14225.5
11069.2
8946.33
7461.5
7176.51
7560.72
9857.85
421367
372509
341795
206467
126948
96662
87507.9
74961.6
63166.2
51955
41355.4
33250.3
26861.9
21539.8
17271.5
14119.7
11676
10455.3
10483.8
11850.2
1.35334e+06
1.19457e+06
727929
451374
461879
531774
528022
445105
339365
264336
208421
173810
164013
170113
183699
207943
244765
295703
349427
440014
1.19066e+06
642569
275827
257396
428970
519613
514439
411270
252861
149631
105736
87675.8
89350.3
97565.7
113904
140063
177005
228157
284294
385768
737950
267443
219514
210728
418035
518624
512886
396681
191695
86698.8
64638.2
69456.2
76423.3
85679.6
98072.6
116944
146008
187403
239563
354768
437854
239805
196712
158367
318197
503608
542006
456876
175784
38042.6
40285.3
46662.6
55152.2
62372.9
68695.9
75685.7
84837.6
98176.9
118270
209607
432490
394908
384396
292114
30554.4
57653.1
61889.7
65564.9
69217.7
71759.4
73465.5
75393.6
78401.7
83573.7
90610
124579
495114
485063
486847
474214
81789.1
86193.3
84404.8
82804
81422.8
80805.4
81065.5
81739.1
82821.6
84348.8
85446
94284.9
496799
486966
486304
512943
91632.8
86372.1
84777.9
83317.2
81970.3
80840.3
80261.2
80249.4
80469.5
80978.9
81578.1
85333.6
422572
392856
378997
434922
74093.3
53916.5
56217.4
57710
59066.5
60711.6
62305.7
63356.1
64384.6
65764.3
67341.1
71690.1
324885
244341
185616
169805
30008.4
80896
90745.5
72049.8
7619.4
11898.3
18892.3
25783.2
31954.1
37224.2
41430.8
44514.6
47078.6
50238
53503.4
59614.9
253115
145447
84835.3
37427.5
57407.3
85346.7
85306.7
53202.1
12830.6
4184.33
5611.41
9379.95
14689.6
20044.1
24591.4
29002.8
33399
38238.1
42300.9
48731.2
199435
102387
63181.7
39447.6
61658.6
83580.7
83702.7
56182.3
20239.2
5878.87
3367.77
4034.89
6025.6
9172.52
13329.2
18241.1
23251.9
28343.9
32073
38438.2
165645
84585.4
67383.8
45501
65067.8
81941
82413.7
58187.6
27287.4
10111.1
4167.38
3193.79
3339.85
4568.51
7201.89
11053.4
15538.9
19889.3
23342
30295
153813
85952.3
73724.7
53560.6
68293.3
80574.7
81482
59678.5
33391.9
15861.8
6444.78
3386.79
3398.03
3816.99
4993.62
7268.64
10281.2
13627.8
17017.1
24182.5
158134
92709.4
82683.6
60454.3
70442.8
79727
80518.9
61064.7
38634.2
21476.4
9890.85
4750.11
3856.92
4106.31
4659.06
5596.22
7108.85
9582.75
12547.9
19183.3
169338
106435
94497.9
66647
71993.6
79896.6
79729.2
62569.8
43075
26158.5
14240.2
7525.67
5125.29
4745.77
4835.93
4921.64
5511.72
7106.28
9541.11
15355.6
190795
129250
111605
73366.6
73928.6
80564.1
79752.1
64089
46448.5
30602.3
19253.1
11618.8
7606.32
5844.39
5026.11
4971.78
5213.92
6168.12
8009.92
12638.7
224951
162756
137488
82109
76896.5
81770.4
80077.4
65657.9
49288.6
35027.7
24435.3
16410.8
10858.9
7563.07
5817.39
5333.83
5453.02
6169.63
7183.77
10488.7
273298
209305
174010
94557.6
81909
83554.5
80812.3
67260.7
52506.3
39981.6
29652.8
20997.5
14464.3
10320.8
7797.9
6624.84
6351.2
6563.37
7045.02
9113.9
326714
263566
220400
112256
88615.2
85015.3
81650.6
68865.4
55693.7
44239.9
33545.3
24689.4
18133.2
13606.3
10532.3
8786.87
7642.54
7214.69
7396.66
9223.72
420662
368101
332801
194865
120661
93910.9
85881.3
73462.8
61980.3
51064
40323.1
32002.5
25679.9
20612.9
16647.1
13723.6
11401.6
9745.3
9680.49
11088.1
1.35341e+06
1.19318e+06
721915
447306
462647
533515
528999
445759
339582
264496
208678
173528
163204
169612
183936
208902
246234
297575
351256
441632
1.19275e+06
640103
273419
255720
431886
522702
515637
411724
253004
149834
106266
87966.7
89123
96767.2
113417
140208
177785
229800
286473
387959
740848
265076
218091
209566
422903
521745
514009
397049
191539
86996.9
65059.1
69859.1
76676.5
85707.1
98045.4
116955
146351
188313
241545
358014
437507
238116
195076
156466
331527
505668
542364
458140
174398
37942.9
40295.4
46762
55428.9
62657.4
68849.4
75689.5
84755.5
98177.7
118650
211863
430762
392298
381084
279275
28930.2
57285.2
61612
65307.6
69012.9
71468.6
73050.7
74884.9
77862.5
83090
90236.8
124776
494273
484024
485829
475139
81580.9
85847.5
84039.6
82466.6
81126.6
80272.8
80464.6
81098.3
82202.6
83792.6
84946.5
93913.6
495438
486193
485929
512045
91462.3
86084.7
84410.3
83013.1
81784.9
80590
79783.7
79772.4
80053.1
80616.9
81235
85015.8
421275
392074
378678
433837
73725.8
53740.2
56237.4
57899.3
59198.5
60705.9
62136.4
63292
64537.6
65966.6
67485.4
71732.9
323881
244064
186223
173916
29098.4
81092.6
90949.5
72519.3
7682.7
12220.8
19262.9
26183
32304
37477.1
41639.2
44683.4
47200
50417.5
53650
59691.9
252490
145343
85271
37105.1
57340.3
85615.5
85533.5
53406.7
12842.7
4238.45
5662.26
9495.88
14934.8
20271.5
24671.6
28982.9
33378.1
38254.4
42301.6
48676.2
198765
102218
63065.8
39202.5
61563.1
83971.9
84005.8
56138.8
20109.2
5847.89
3350.95
4058.02
6087.47
9199.65
13289.7
18148.3
23242.9
28304.6
31969.2
38285.2
165446
84680.8
67330.9
45366.6
65165.4
82435.3
82710.6
57893.5
27081.3
9958.47
4141.35
3154.32
3293.95
4509.07
7120.42
11028.5
15493.5
19714.9
23153.3
30099.3
154053
86101.6
73813.1
53416.3
68575.8
81161.1
81642.6
59409.3
33265.1
15630.3
6362.05
3341.88
3348.47
3746.99
4956.71
7235.74
10173.7
13455.3
16827.1
23974.8
158539
92937.8
83103.9
60551.7
70964.8
80407.9
80613.2
61243.8
38593
21140.3
9772.64
4695.36
3810.4
4060.26
4548.65
5407.06
6896.63
9365.24
12369.5
18988.5
169834
106774
95147.2
66872.8
72692.1
80614.5
80011.5
63116.8
42818.2
25846
14118
7510.88
5172.2
4660.59
4670.37
4735.79
5326.05
7025.67
9497.41
15213.8
191337
129694
112349
73841.4
74684.9
81327.8
80144.2
64384.4
46226.3
30417.1
19252.8
11686.7
7646.3
5690.34
4851.83
4800.98
5140.66
6196.71
7946.76
12478.7
225597
163244
138057
82743.1
77662.3
82542.5
80536.2
65538.1
49107
35118.3
24543.6
16380.7
10767.2
7420.75
5662.39
5256.55
5426.72
6063.25
6963.26
10219
273859
209720
174517
95144.1
82706.7
84322.5
81260.8
67062.1
52629.1
40184.7
29605.9
20850.9
14403.4
10213.4
7721.06
6602.94
6216.06
6356.82
6843.45
8929.97
326989
263633
220756
112766
89435
85774.8
82104
68873.1
55919.8
44130.8
33422.9
24623
18093.2
13527.2
10465
8664.61
7412.39
7000.98
7231.65
9126.44
420769
367801
331675
194032
120993
94445.1
86321.2
73640.1
61855.5
50640.9
40144.4
31995.9
25645.6
20499
16514.4
13605.1
11217.5
9568.13
9609.93
11062.7
1.33983e+06
1.17108e+06
741520
462890
466746
534112
529955
447228
341938
267450
210941
175526
166014
171939
185481
210243
248016
299357
353005
443118
1.17109e+06
675081
286490
260299
433926
523598
515979
412731
254488
152580
108012
89550.6
91245.2
99541.7
115977
142601
180648
233410
290203
391533
766083
278393
219810
211818
426036
522645
513806
397867
192888
89102.7
67198.8
71384.9
77720
87169.1
100644
121252
152028
195299
249146
364606
454721
241028
194724
157275
333962
506601
542182
458891
175224
38656.1
41232.4
47987.1
56430.3
63618.2
70236.9
77899.8
88017
103041
126080
224987
434387
390298
381018
279560
29092.7
57434.8
61916.1
65876.2
69449.9
71665.8
73362.2
75537.9
79210.2
85306.2
93522.1
132603
493843
483176
485653
475575
81220.3
85637.5
83910.5
82314.4
80930.9
80323.2
80631.6
81448.9
82826.9
84670.7
86132.7
97459.1
495275
486016
486014
512378
91027.9
85580.7
84033.5
82705.4
81538.8
80380
79884
80057.6
80576.6
81387.5
82322.9
87239.5
421456
392224
379017
434545
73215.6
53705.6
56348.5
58074.4
59359.8
60810.1
62465.3
63802.8
65177.3
66901.4
68767.5
73642
324613
244197
185820
168184
29629.6
81346.9
91127
72889.3
7544.48
12404.4
19580.7
26537.8
32920.5
38215.2
41971.8
44936.7
47794.4
51563.4
55094.3
61337
253189
146233
86027.1
38223.3
58016.2
85967.8
85726.9
53568.1
12591.8
4284.46
5864.43
9990.39
15400.9
20418.2
25002.1
29454.6
34235.8
39403.4
43309.8
49717.9
198424
102412
64536.1
40511.9
62313.9
84090.1
84111.1
56318.8
19980.9
5974.23
3498.38
4128.55
5996.47
9213.11
13459.7
18747.1
23999.8
28474.4
32102.6
39119.2
166176
85242.5
68449.1
46801.1
65941.1
82433.8
82731.2
58166.6
27041.6
10293
4203.26
3089.85
3309.83
4621.28
7504.72
11566.7
15626.2
19524.6
23250.1
30957.7
156079
87198.5
74863.3
54786.6
69211.5
81101.1
81583.1
59611.5
33534
15883.2
6210.4
3345.49
3429.52
3971.97
5240.08
7386.96
10086
13437.7
17029.1
24697.3
160829
94569.6
84537.1
61967.4
71395.8
80534.8
80516.3
61281.2
38962.8
21125.3
9605.89
4787.73
4048.1
4270.58
4510.24
5207.9
6709.79
9378.69
12669.2
19521.9
172439
108718
97024.3
68585.1
73131.9
80818.7
80047.4
63171.9
43006
25889.1
14075.8
7876.24
5511.24
4637.61
4454.05
4516.68
5204.53
7237.95
9803.3
15466.5
194717
132275
114890
75869.5
75266.8
81620.9
80247.9
64579.6
46227.7
30536.7
19670.2
12235.5
7906.03
5540.09
4616.1
4630.51
5169.28
6309.72
7953.65
12475
230210
167010
141628
85174.2
78578.4
82957.9
80806.2
65907.5
49243.3
35644.3
25191.8
16647.8
10935.7
7345.62
5579.49
5304.14
5502
5964
6800.38
10204.8
279514
216006
179577
98321.9
84069.2
84863.7
81650.5
67583.4
53171.7
41031.7
30018.3
21022.7
14655.2
10412.9
8028.09
6813.62
6161.18
6208.95
6810.2
9332.14
332143
271752
228323
117507
91401.2
86433.9
82612.7
69468.2
56691.4
45058.9
33912.1
25011.2
18586.7
14070.1
10962.3
8863.77
7358.89
7029.06
7391.62
9663.86
422358
373463
341143
204572
126315
96587.7
87534.4
74598.1
62936.7
51717.9
41199.9
33119.3
26739.9
21474.5
17214
14014.7
11462.3
10141
10298
11695.5
1.32333e+06
1.13551e+06
778230
491796
475502
535293
530953
449600
345789
271593
213326
179357
170476
175517
188002
212468
250495
301209
353250
441120
1.1306e+06
755202
319959
271480
433167
524031
516883
414697
257351
156258
109435
91932.7
94511.2
103284
119783
146714
184960
238107
293299
391528
805952
315033
226272
216395
427684
522838
515177
400386
195961
92298.7
70274.6
73167.4
79046.1
89495.2
104660
127232
159241
203816
257309
368015
489674
252474
199183
159683
337336
507350
543919
460673
178276
40391.4
43276.5
50160.2
58094.6
65415.1
72787.9
81599.9
93416.9
110813
137563
241927
446609
389943
382756
281289
31151.2
58557.4
63381.5
67672.8
70841
72849.7
74951.6
77806
82318.8
89471.4
99184.3
144858
495928
484216
487170
476393
81325.6
86504.1
84748
83178.1
81759.7
81537.3
81965.2
82908.3
84389.1
86280.8
88049.1
103010
496755
487211
488302
513352
90848.6
86182.1
84765.3
83423.3
82116.4
81019.9
80897
81128.1
81718.3
82561.3
83630.9
90077.1
423971
394713
382725
436501
72928.4
54181.3
57112.6
58797.8
60018.2
61658.1
63529
64936.9
66268.6
67985.2
70118.3
75819.8
328063
247658
190142
176749
30630.6
82204.3
91463.3
72971.7
7971.84
12797.8
19867.8
27038.3
33768.8
39143.6
42984.9
45774.7
48722.8
53102.8
56883.3
63195.3
255897
149129
89053.2
38922.7
58377
86310.7
85759.2
54074.2
13222
4508.87
6170.45
10520.1
16190.3
21419.8
25774.4
30154.2
35353.5
41014.3
44906.1
51217.8
199091
102718
66722.3
41632.5
62952.6
84431.6
84200.4
56951.1
20664.2
6351.44
3875.17
4555.08
6526.7
9572.23
13911.8
19666.9
25214.3
30126.3
33723.7
40618.5
168564
86805.4
69477.4
48100.1
66894
82772.7
82811.5
58616
27833.3
10995.6
4679.29
3521.18
3651.93
4982.74
8165.58
12625.1
17045.6
21041.2
24475.1
32324.1
159987
89295.8
75555
55625.6
69883.5
81370.2
81566.6
59830.4
34497.5
16886.9
6891.25
3729.66
3824.02
4557.13
6013.32
8383.14
11241.2
14370
18022.7
26043.7
164804
97084.2
85926.9
62912.5
71935.3
81041.4
80507.2
61559.2
39885.9
22212.4
10152.9
5245.15
4679.96
4794.16
4955.37
5704.86
7207.01
10010.4
13626.8
20868
176637
111819
99453
70053.5
73949.9
81393.6
80364
63602
43787.3
26619.3
14655
8684.58
6372.6
5092.21
4605.87
4660.6
5465.65
7812.62
10757.3
16769.4
200123
136586
118849
78234.5
76476.6
82253.8
80634.2
65078.4
46645.1
31074
20579.8
13439.9
9040.14
6119.42
4767.01
4799.28
5460.1
6809.47
8746.05
13463.5
237346
172817
146959
88663.3
80389.7
83702.5
81267.8
66395.3
49699.3
36461.6
26370.1
18157
12239.5
7961.51
5859.03
5597.37
5832.52
6500.19
7534.99
11086
287733
225113
187228
103357
86655.5
85685.7
82213.7
68154
54174
42378.7
31566.3
22453.6
15727.2
11139.9
8641.86
7364.33
6738.42
6886.52
7542.19
10284.2
339499
281184
238454
125317
95209.2
87564.2
83427.2
70399.1
57999.2
46438.8
35369.8
26165.3
19672
15101.3
11940.9
9711.85
8118.03
7770.18
8157.49
10605.8
424904
377880
349300
219140
135722
100707
89810.3
76370.3
64536.9
53081.9
42660.4
34493.5
28161.1
22841.3
18489
15035.5
12364.3
11194.2
11287.8
12659.1
1.28695e+06
1.09402e+06
811377
521025
485694
533893
529119
450033
348744
274524
215511
182893
174791
179501
191902
216298
254203
303689
353839
437894
1.08374e+06
845547
359877
283073
430184
521068
514932
415074
261721
160994
111538
95208.9
98051.9
106914
123508
150706
189097
241980
295197
388799
839008
360841
234452
222449
425680
519916
514083
401778
201996
97279.9
73601.2
75161.8
80885.6
92113.2
108285
131898
164300
209749
262171
366286
528185
266742
207351
162690
339572
506523
542702
460194
188626
42420.4
45680.3
52413.3
59927.4
67340
75271.2
84971.8
98004.5
117349
147510
254156
463405
391351
384619
284234
33175.9
60783.8
65915.2
70204.6
72830.4
74629.7
76839
79994.1
84938.7
92794.1
103742
155157
497928
485296
489986
478728
83883.5
89078.6
87006.3
85216
83734.9
83243.1
83522
84166.6
85328.5
87016.8
88983.8
107489
497679
487741
492324
516529
93346.9
88670.4
86975.7
85307.8
83775.9
82676.5
82105.7
82168.5
82446.1
83013.2
84069.5
91910.2
425535
396217
386060
440284
75065.9
56379.3
59169.2
60569.3
61589.7
63073
64670.7
65967
67183.8
68724.2
70734.7
76808.6
330152
249619
193238
173615
32630
81837.2
91169.3
73001
8255.13
13340.3
20834.1
28452.9
35099.9
40428.8
44217.3
46814.2
49890.2
54169.6
57612.1
63986.1
257988
151754
92330.8
40447.6
58833.4
86217.8
85763.8
54584.8
13695
4876.77
6698.03
11295.1
17139.8
22391.4
26782.1
31295.5
36511.4
42150.5
45921.5
52224.5
201062
103776
69679.8
43686.6
63988.8
84368.3
84301.6
57755.1
21424.3
6878.69
4410.01
5152.47
7036.94
10130.7
14813.8
20698.8
26400.5
31490.6
34913.7
41835.3
172090
89596.3
71185.2
49926.4
67965.9
82781.5
82903.7
59355.9
28869.9
11752.4
5343.65
3978.91
4155.25
5670.64
9067.9
13746.9
18266.2
22154.7
25677.2
33598.2
164439
92329.4
77163.3
57060
70495.1
81410.6
81559
60526.2
35449.9
17858.4
7584.2
4278.5
4415.3
5157.74
6646.23
9112.81
11957.1
15324.8
19208.8
27231.1
169178
100369
88310
64493.4
72393.4
81137.8
80505.7
62263.5
40852
23221.3
10946
6081.1
5318.83
5136.77
5283.48
6038.84
7817.29
11040.7
14814.8
21911.7
181270
115599
102769
72149.3
74584.3
81476.9
80387.6
64182.7
44756.8
27555.4
15747.1
9784.7
7130.42
5477
4865.48
5048.41
6083.07
8716.59
11812.3
17757.3
205592
140919
122926
80972.6
77509.7
82283
80575.8
65535.8
47427.8
32019.1
21675.2
14707.7
9959.14
6591.62
5169.7
5300.95
6096.48
7585.37
9539.97
14311.2
243856
177784
151055
92118.5
81894.1
83662.9
81046.4
66800.3
50500.9
37289.4
27423.8
19430.6
13145.5
8699.47
6533.24
6258.15
6543.05
7234.24
8284.76
12123.1
294789
231633
192159
108042
88750.7
85652.5
81884.4
68456.5
54777.3
43020.2
32599.1
23531.1
16755.8
12159.3
9538.43
8167.3
7487.14
7609.77
8378.34
11563.5
345764
286397
243397
132081
98180.8
87665.6
83148.5
70581.5
58243.7
46915.3
36199.8
27207.4
20741.6
16074.6
12840.8
10525
8852.45
8678.79
9191.7
11915.8
427757
379041
349869
228728
142843
103449
90633.9
76703.3
64751.8
53527.2
43427.3
35340.9
28929.4
23495.1
19230.9
15873.6
13399.5
12531.2
12572.1
13921.2
1.28786e+06
1.10474e+06
862010
551147
496963
536292
531964
453847
356128
282065
222149
190299
181565
186084
198972
224575
263833
313527
362629
444088
1.0896e+06
921047
395933
292590
426673
517891
513922
415348
266974
167980
116637
100539
103530
113036
131005
159781
200008
254428
308190
399532
890257
403148
242437
227472
419524
515353
511182
401220
206800
103763
78657.7
79687.3
85655.5
98235.1
116176
141666
175766
223384
277755
381649
563147
278046
214383
166533
334443
502935
538215
456888
191398
44587.3
48435.7
55599.6
63542.2
71671
80840.4
91619.8
106238
128021
162433
275241
478417
391359
383428
286497
35404.2
61616.4
67280.2
71966.4
74919.6
77174.1
79951.6
83957.1
90080.4
99351.6
112205
170743
501912
485063
488849
480924
85231.2
89823.3
87933.2
86476.9
85485.8
85625.6
86282.9
87446.7
89141.7
91379.5
93997.5
116570
500517
487953
491867
517972
94811.7
89532
88007.6
86655.6
85660
84858.9
84833.1
85149.5
85748.8
86806
88326.3
98125.9
428034
395162
383990
441058
76782.7
57036.6
60213
62009.7
63385.5
64934.8
66603.9
68457
70368.4
72315.8
74501.8
81476.5
334068
249667
191224
173457
34180.9
82047.3
91258.4
73114.1
8519.72
13349.4
21453.2
29435.4
35986.2
41546.8
46054.3
49532.5
53248.9
57414.4
60636.8
67819.7
262541
155095
95905.7
42309.4
60073.8
86774.9
86430.4
55545.3
14332.8
5318.75
7084.88
11593.3
17715.8
23629.8
28864.6
34018.2
39129.2
44666.4
48771.9
56039.8
206663
107323
73486.6
46367.8
65770.6
84943.9
85095.8
58972.7
22651.4
7421.61
4794.57
5562.29
7804.81
11495.9
16652.7
22477.6
28275.2
33934.1
38007.5
45765.4
178808
94125.3
74629.7
53067.9
69940.2
83668.9
84024.7
61016.3
30503.4
12465.5
5864.99
4691.31
4967.44
6641.85
10137.3
15040.7
20007.1
24659.6
28829.5
37281
171202
97150.1
81132
60655.1
72608.7
82836.3
83082.4
62498.3
37065.1
18945.8
8578.78
5155.45
5199.67
5664.81
7119.25
9991.28
13467.7
17667.6
22012.9
30365.8
175632
105857
93809.4
68746.3
74794.1
83004.9
82583
64327.3
42625.2
24978.2
12644.4
7266.48
5923.85
5551.86
5714.72
6794.99
9132.5
12999.5
17096.4
24528.9
187966
122256
109914
77434.5
77406.3
83746.9
82735.7
66264
47133.4
30104.9
17990.4
11220.5
7852.32
6030.12
5629.36
5920.66
7158.34
10104.8
13499.3
19983
213552
148953
131479
87061.8
81030.6
85108.5
83305.3
68164.2
50515.5
35164.5
23953
16460.7
11239.6
7623.9
6113.8
6259
7104.42
8605.56
10722.3
16126
253881
187706
160701
99321.6
86422.1
87121.5
84277
70133.2
54094.2
40301.2
29739.9
21632.9
15097.2
10365.9
7810.28
7329.79
7590.18
8313.54
9541.19
13850.9
306344
243985
203760
117005
94505.4
89733.5
85676.4
72219.8
58257.1
45838.4
35370.4
26443.5
19466.9
14391.5
11171.8
9406.33
8646.44
8844.99
9787.64
13484
357946
299901
257098
143874
105463
92345.1
87417.9
74596.8
61532.3
49992
39532.3
30652.9
23787.5
18485.1
14691.9
12036.5
10255
10208.2
10856
13988
439983
392923
365124
246484
155806
111405
96610.3
81571
68808.4
57497.5
47480.1
39120.6
32099.8
26079.2
21492
17956.3
15396.8
14573.8
14756.4
16286.2
450976
247173
456047
320175
455581
293183
457791
534893
492643
536580
499352
534676
490610