/*--------------------------------*- C++ -*----------------------------------*\
  =========                 |
  \\      /  F ield         | OpenFOAM: The Open Source CFD Toolbox
   \\    /   O peration     | Website:  https://openfoam.org
    \\  /    A nd           | Version:  9
     \\/     M anipulation  |
\*---------------------------------------------------------------------------*/
FoamFile
{
    format      ascii;
    class       surfaceScalarField;
    location    "0.008";
    object      phi;
}
// * * * * * * * * * * * * * * * * * * * * * * * * * * * * * * * * * * * * * //

dimensions      [0 3 -1 0 0 0 0];

internalField   nonuniform List<scalar> 
28500
(
-113.962
-114.887
7.7855
-102.557
-123.848
9.90869
-123.685
-189.525
6.85859
-108.393
-260.547
-0.611675
-57.6913
-288.371
-1.50559
-0.746073
-283.971
-1.95097
56.436
-282.249
-2.41112
129.344
-287.278
-1.38958
196.203
-276.666
-1.84888
243.746
-235.738
-1.02501
277.927
-188.337
1.38775
299.402
-159.499
-0.306773
314.614
-137.412
-0.546292
327.847
-122.513
3.71613
338.475
-112.28
7.85933
342.44
-101.191
6.78723
342.682
-92.1785
4.04051
342.643
-83.5343
3.29623
343.791
-76.2959
4.19164
-73.6223
3.65595
-123.288
-101.386
10.4541
-165.662
-163
10.1245
-193.446
-227.388
2.36565
-142.964
-266.979
-4.59564
-61.2335
-282.201
-1.97012
-0.731239
-283.826
-2.09517
60.5842
-281.996
-1.48044
148.126
-286.178
-1.47018
238.93
-262.525
0.415516
295.258
-201.309
-0.866797
330.325
-144.513
2.75831
353.557
-130.608
3.16641
372.092
-117.102
1.18392
386.866
-106.547
4.35311
398.703
-101.911
6.85491
402.548
-91.9716
7.29889
399.317
-80.1207
5.52616
391.063
-67.9748
3.61071
382.513
-55.2964
4.06426
-53.085
3.97589
-186.417
-117.667
9.5424
-228.172
-191.437
5.2296
-219.727
-218.095
-1.48322
-153.06
-63.9061
-5.93741
-64.3318
-65.1661
-65.4686
-66.1303
-69.6941
-1.11359
-69.6456
-70.7678
-70.3522
-0.416117
-69.9133
-1.41571
-70.1291
-70.7125
-70.736
66.2539
-69.5162
-0.927454
-69.8226
-70.0978
-70.4162
159.386
-69.9131
-1.05967
-70.0965
-70.5005
-70.8708
261.049
-63.6183
1.12888
-51.598
-64.72
-52.6635
318.566
-178.77
0.0603489
359.273
-154.699
-1.94468
403.073
-148.931
2.54084
438.812
-149.111
5.42583
463.414
-146.525
1.14847
479.252
-140.284
-2.77998
485.428
-128.618
-4.64528
483.738
-110.964
-1.05627
475.255
-92.255
-0.536924
461.39
-65.1297
-0.0106014
-35.4156
0.41805
-259.21
-105.907
2.76253
-266.292
-142.869
1.0612
-65.0565
-153.688
2.4167
-64.6959
-64.6747
-65.2623
-58.7974
-57.3045
-0.871262
-27.5568
-1.03163
45.8315
-17.1487
-16.9588
-16.9589
-17.0915
17.7634
-7.95425
-0.166675
-17.5948
-17.3338
-17.3782
-17.5902
0.0816753
7.86108
-0.516126
-17.4591
-17.2011
-17.2145
-17.445
-17.6029
27.2572
-0.190083
-17.7026
-17.2944
-17.3225
-17.6648
-48.9352
62.4762
-59.4173
-0.821019
472.512
-130.408
-3.14042
-87.8044
-112.695
-87.877
-112.765
507.072
-131.039
-7.26564
526.668
-129.955
-4.52597
539.104
-127.445
-1.9041
546.824
-122.503
-3.14515
550.705
-114.668
-2.81035
552.593
-106.997
-5.6159
551.373
-96.1035
-3.22502
547.922
-84.3929
-2.18938
538.843
-66.3921
-1.93535
-29.6415
-0.328162
-288.189
-58.2364
-1.26724
-281.366
-61.8233
-1.50419
-69.7442
-67.0567
-0.115172
-69.7287
-70.2533
-70.1737
-27.3129
0.271774
46.4538
-17.2971
-17.5727
-17.7703
-17.3151
6.19357
30.7747
-7.63633
-0.607943
584.753
-68.5582
-4.09069
-142.684
-144.826
-144.041
-146.452
588.486
-68.0068
-3.37
591.97
-66.3234
-4.54501
595.131
-63.5087
-4.62243
597.883
-60.7025
-6.36898
598.787
-57.6629
-6.14637
597.898
-55.8013
-4.79649
595.734
-53.2698
-4.60164
590.789
-50.5834
-4.60599
582.796
-47.6022
-4.14767
-18.9625
-2.50666
-285.051
-0.638978
-1.79055
-284.927
-1.04843
-1.90433
-70.2081
-0.811623
-1.52943
-70.6158
-70.7701
-71.0767
17.8185
-8.017
-0.303245
-17.5398
-17.5635
-17.5568
-17.4958
3.65131
36.2475
-2.59015
-0.268304
589.082
0.39447
-4.22587
-145.367
-147.037
-147.045
-148.681
589.641
0.306386
-4.39561
590.049
-0.343153
-4.78723
590.015
-0.680394
-4.85108
589.579
-0.789068
-4.67554
588.807
-1.24422
-4.90652
587.661
-1.15667
-5.10034
586.726
-0.58265
-5.12236
585.744
0.793774
-5.19488
584.747
2.38996
-5.05658
10.8734
-4.0567
-283.06
56.8678
-3.53937
-282.745
60.785
-2.78395
-69.7047
66.7649
-1.76513
-69.8765
-70.223
-70.5626
0.098315
7.83585
-0.901922
-17.5134
-17.2811
-17.2925
-17.5018
-0.0605391
36.4991
0.883112
-0.285472
592.44
67.1724
-4.11717
-146.935
-147.103
-148.54
-148.764
593.458
64.5541
-4.4791
594.273
62.7146
-4.00682
594.656
60.5004
-4.13678
595.345
58.5821
-5.04288
596.02
57.2495
-5.63767
596.267
55.8704
-5.52134
596.709
55.2717
-4.94486
596.807
54.4484
-4.48581
596.626
52.9342
-4.78795
53.8185
-4.70752
-288.412
130.08
-3.08824
-286.883
149.41
-3.27179
-69.8851
160.311
-2.72528
-70.0279
-70.5975
-70.8247
-17.6027
27.4187
-0.671957
-17.5848
-17.4238
-17.4228
-17.4487
-3.70065
36.7126
4.98198
-0.295248
597.866
173.357
-5.69428
-147.402
-147.238
-149.018
-148.846
600.164
165.667
-1.25039
601.78
158.979
-2.25358
603.173
152.859
-6.53104
603.703
144.39
-8.62806
604.437
137.097
-5.93375
603.962
130.303
-2.42811
603.174
124.01
-2.79812
603.432
118.329
-5.34511
602.854
112.186
-5.95172
106.376
-4.75297
-276.763
197.141
-3.85064
-261.416
240.688
-3.06907
-62.939
262.858
-4.19894
-51.1999
-64.8043
-52.8368
-48.8133
-58.9104
64.1964
-1.77698
8.20008
-6.80577
34.2671
-0.777759
3.63051
-2.58284
35.3415
-0.32562
-0.10036
0.935389
35.6318
-0.277465
-3.78942
5.05087
35.9107
-0.250772
-8.66978
-10.5399
121.955
127.422
-2.19681
-15.1587
-7.95149
-14.4586
-16.0339
-13.058
-17.0483
562.407
335.389
10.0212
-134.445
-118.54
-135.043
-119.176
577.7
285.419
-6.3366
586.227
259.82
-13.4487
594.354
244.012
-8.71526
599.183
229.874
0.739802
600.979
214.388
4.81523
604.16
201.247
-0.457311
605.344
189.112
-8.81661
606.403
177.243
-9.4329
608.474
169.096
-5.32377
156.297
-2.98353
-234.596
244.313
-3.97383
-199.218
296.639
-5.45028
-177.894
319.109
-5.77975
-133.162
469.583
-9.30234
-88.8616
-114.052
-88.5471
-112.317
-68.8519
573.039
-4.55724
-140.402
-141.673
-141.651
-143.522
1.21892
576.821
-5.04062
-142.007
-143.661
-144.001
-145.59
69.9161
580.598
-4.35529
-143.565
-144.05
-145.519
-146.027
181.632
585.689
-5.37401
-144.944
-145.581
-147.139
-147.967
320.018
560.956
7.93429
-134.189
-123.575
-137.244
-125.696
458.413
478.116
-11.3789
510.016
387.272
-41.0519
535.251
336.138
-10.0972
555.272
310.154
8.88139
569.334
296.158
10.1218
579.492
281.25
-1.92307
588.097
261.287
-14.7072
593.146
247.053
-14.3874
597.335
231.493
-4.23127
601.506
220.831
0.723046
203.697
-1.70654
-187.844
278.095
-2.45511
-141.191
330.754
-3.11096
-152.799
358.777
-6.704
-131.467
501.104
-10.1966
-68.2919
576.855
-3.7895
1.33061
577.585
-5.07198
66.9194
581.875
-4.54514
168.699
585.631
-1.29046
281.901
569.585
-1.36287
380.272
526.628
-35.3953
449.536
468.282
-17.723
481.59
396.605
24.68
506.914
355.332
11.4024
535.917
348.966
-8.13503
549.95
334.898
-21.8746
560.271
313.964
-17.0846
573.124
298.559
-2.59626
580.468
280.612
6.99342
587.702
270.684
1.60902
247.695
-2.8935
-158.641
299.123
-4.02801
-130.851
352.748
-3.03882
-150.249
403.032
-1.86054
-130.659
519.997
-5.28038
-65.9008
580.678
-5.21529
0.707661
577.822
-5.69786
64.3894
582.798
-4.19706
158.19
587.001
-1.6776
257.117
574.787
-13.1983
338.027
541.988
-8.99266
390.568
499.644
27.3486
429.895
448.007
18.6055
468.515
398.011
-17.8158
494.824
378.862
-31.8191
512.483
373.384
-20.7497
526.807
355.868
-1.81484
542.626
342.649
10.0286
555.257
328.149
7.05297
566.216
313.61
-4.3533
286.296
-6.16734
-136.247
314.303
-4.6074
-117.318
371.468
-5.27034
-150.675
436.933
1.26461
-127.477
530.708
-3.63332
-62.6351
583.945
-5.13761
0.344725
577.673
-5.76924
61.9172
583.388
-4.77708
151.003
589.191
-5.84462
237.149
580.216
-11.1683
311.046
553.573
9.25488
361.053
518.345
16.9005
396.486
485.664
-11.5144
426.9
435.592
-35.0665
455.183
402.252
-22.3427
481.875
401.326
2.33119
495.847
388.477
14.3615
513.512
380.735
12.1844
529.266
364.785
-2.11353
540.383
347.628
-11.1681
321.415
-7.62446
-122.475
327.899
-0.21804
-106.477
386.823
-1.33198
-145.675
458.981
-1.16346
-121.055
536.827
-4.85796
-59.7437
586.728
-7.32262
0.0668961
577.299
-5.88403
59.5903
584.2
-5.47733
142.124
590.343
-8.47499
222.439
583.647
-1.71087
292.303
562.061
11.0631
350.338
538.664
-1.47934
380.017
505.155
-23.5482
399.923
466.858
-18.9106
430.784
437.612
9.93218
460.564
428.055
23.4176
475.299
415.202
16.1681
488.087
406.745
5.03566
498.886
390.932
-10.0148
509.284
378.449
-8.52822
355.448
-2.62331
-113.398
338.894
4.33598
-102.509
398.96
2.74424
-138.085
473.89
-3.77324
-112.708
540.716
-4.01934
-56.6327
587.478
-6.59652
-0.388944
576.591
-6.3102
58.0111
585.051
-5.62493
134.367
591.394
-6.2731
206.965
585.983
3.36787
275.153
569.202
-0.0967457
331.285
547.845
-17.3677
370.573
516.486
-15.7501
396.869
485.16
5.0565
421.563
461.922
22.1737
452.021
457.776
21.8142
470.574
444.825
7.78744
475.286
429.296
-7.69614
476.456
414.603
-10.8618
485.547
406.743
-0.622543
386.55
4.67414
-102.557
342.854
3.72537
-93.269
403.328
4.59171
-125.97
480.616
-5.2336
-104.966
543.175
-7.24223
-54.6833
586.549
-5.389
-0.64237
575.557
-6.45854
56.0092
585.642
-5.7288
128.04
590.903
-3.62228
194.991
589.687
-0.566078
254.623
576.983
-13.2916
307.849
555.169
-15.7868
350.325
526.627
-0.38506
383.233
494.943
15.2186
408.749
470.303
16.2558
435.8
468.285
7.39172
455.562
458.202
-7.9594
461.55
444.277
-12.5326
468.638
431.617
-2.89507
480.927
428.2
11.731
411.572
9.95747
-93.2784
342.762
1.35553
-81.4691
400.27
3.65194
-108.776
479.664
-1.2535
-94.235
542.159
-4.18109
-52.0514
584.369
-5.56808
-0.146495
574.677
-6.39382
54.8207
586.035
-5.73164
121.583
590.041
-3.63076
183.942
591.388
-8.22743
240.547
581.548
-13.9796
292.314
565.977
-3.49217
336.072
539.635
10.2498
373.187
509.76
14.3301
399.427
481.009
7.25177
422.966
468.198
-7.32239
439.849
458.682
-13.2005
452.008
453.431
-4.15489
469.59
449.938
13.5715
478.472
446.427
20.2891
430.729
12.3981
-83.8616
342.219
0.79169
-68.3487
391.021
1.82938
-90.9631
471.644
-1.37451
-82.9157
538.825
-3.0615
-49.3932
579.398
-5.58992
1.07365
573.498
-6.43663
53.7449
586.071
-5.96828
115.864
590.239
-4.89697
172.96
592.79
-8.75822
226.072
585.851
-5.12823
274.589
573.117
5.60666
320.296
549.852
7.33141
355.599
523.709
0.822166
382.015
493.438
-8.00025
408.264
469.023
-11.1253
427.304
460.838
-4.52092
444.094
464.622
10.6706
461.902
461.858
19.2705
469.297
456.914
14.5057
440.233
6.4192
-75.7823
343.004
1.84919
-54.0831
381.065
2.38493
-64.8719
457.734
0.012692
-65.3556
530.451
-2.73227
-46.2681
571.456
-5.02851
2.69256
572.168
-6.24336
52.1205
585.735
-6.20157
109.559
589.293
-5.67579
165.186
594.822
-5.25829
216.127
590.438
-0.512566
264.348
579.882
1.41639
306.016
559.769
-2.98454
339.508
535.657
-9.23668
370.031
505.691
-7.13838
399.581
479.739
-0.701577
419.334
468.94
7.71548
437.341
468.942
15.013
454.294
463.884
13.8688
460.614
455.633
6.0199
444.082
4.75306
-73.2529
1.7787
-51.7006
2.30706
-34.9054
0.702346
-29.1204
-0.0743118
-18.5903
-2.72847
11.5159
-5.01356
52.9674
-5.68489
104.057
-5.21898
152.65
-3.47886
199.108
-1.91907
242.398
-1.82861
280.638
-4.09908
315.281
-5.63423
347.996
-0.523835
378.113
5.44601
402.117
7.17142
420.796
8.21129
435.419
4.52456
444.735
4.04336
8.6092
-112.757
-114.037
8.10268
-103.412
-129.322
11.9276
-130.471
-201.214
16.1425
-111.425
-271.045
5.01105
-56.7857
-293.349
0.617239
-0.420752
-289.428
-0.533607
56.6814
-287.444
-1.34915
130.383
-292.741
-0.394386
197.454
-281.174
0.734423
245.141
-239.803
1.29236
279.878
-191.785
3.69392
300.921
-162.144
3.92703
315.688
-138.487
2.94191
328.915
-122.731
6.48499
339.897
-112.426
10.9931
343.921
-101.116
10.6896
343.818
-91.9768
8.11321
343.389
-83.2517
6.73699
344.2
-75.6023
6.2014
-73.103
4.76732
-128.243
-102.68
12.4157
-175.971
-175.464
19.4546
-196.145
-234.096
10.7734
-142.817
-276.936
-0.76014
-59.8843
-288.379
-0.657472
-0.0467528
-290.484
-0.64736
60.9847
-288.206
-0.957178
148.946
-292.664
-0.998506
240.476
-267.819
2.94863
298.048
-207.716
2.93123
333.911
-148.61
5.06067
356.822
-132.16
7.70991
374.959
-118.419
5.2139
390.131
-107.544
8.84126
402.525
-102.562
12.9616
406.529
-92.4211
13.3599
403.42
-80.5028
11.8802
394.69
-68.0697
10.2946
384.579
-54.1675
9.77875
-51.4199
6.5197
-196.124
-124.096
17.3719
-232.739
-197.097
12.2493
-222.624
-224.376
-0.791525
-151.681
-66.7789
4.23941
-66.9357
-67.238
-67.6035
-64.5828
-72.3717
0.476598
-71.807
-73.1624
-72.6202
-0.387563
-72.4677
-0.499279
-72.1518
-73.4001
-72.8749
66.5755
-71.4914
-0.721297
-71.7634
-72.1877
-72.4979
160.128
-71.8911
-0.731499
-72.2887
-72.5956
-72.894
264.236
-65.8751
3.42494
-53.8992
-65.8679
-53.7597
323.877
-182.697
6.45204
364.68
-158.441
4.06859
408.141
-150.225
6.57821
445.484
-151.21
9.94853
471.258
-148.898
7.8763
487.006
-142.891
6.03721
492.908
-132.032
3.36291
490.997
-114.473
6.58454
482.177
-95.1644
6.42764
467.23
-67.6904
7.9822
-35.417
6.22698
-267.07
-109.426
6.65291
-273.306
-145.164
-0.318262
-65.4815
-154.989
-0.453106
-65.8429
-66.2205
-66.8517
-0.404474
-58.4021
-59.3881
0.606038
0.859302
-26.4973
-0.0140935
45.9877
-18.0874
-18.5453
-17.9625
-18.7021
0.00747018
17.5352
-8.04934
0.0469568
-18.2244
-18.0602
-18.056
-18.1469
0.420148
0.100659
7.88755
-0.418826
-18.0033
-17.6683
-17.9001
-17.7563
0.0566176
-17.6433
27.2709
-0.118777
-18.241
-17.8337
-18.166
-17.9281
-49.1621
-0.46923
62.6289
-61.6739
0.617115
484.237
-132.774
4.79814
-89.2135
-114.354
-90.3588
-117.856
518.2
-133.189
2.57033
536.912
-131.034
2.60791
549.204
-128.695
4.30983
556.845
-123.779
2.99671
560.36
-116.172
4.45179
561.631
-108.618
1.95872
559.826
-98.0188
4.50249
556.025
-86.4901
5.74859
547.08
-69.1983
7.54448
-32.1761
8.90611
-292.441
-58.3816
0.6051
-286.831
-62.1702
-1.53224
-71.0508
-67.1003
-0.146848
-71.3613
-71.5188
-72.0407
-0.635865
-27.6006
0.334073
45.6296
-17.3436
-17.1187
-17.3356
-17.1767
0.119162
6.02119
30.7726
-7.65877
-0.0529326
597.029
-68.9059
-0.64924
-146.281
-148.554
-147.687
-149.503
600.031
-68.2302
0.596987
602.832
-66.4966
-0.117129
605.464
-63.6389
0.235481
607.883
-60.8204
-1.44472
608.701
-57.7516
-1.3817
607.638
-55.926
0.14311
605.16
-53.5232
1.30301
600.017
-51.1206
1.64379
591.947
-48.6116
2.84544
-21.6354
6.06979
-289.606
-0.782512
-0.603641
-290.498
-0.807653
-1.26237
-72.0985
-0.630502
-1.33117
-72.2707
-72.894
-72.8357
0.241569
17.9231
-8.03108
-0.211748
-18.2513
-17.8813
-18.1542
-18.0112
0.178899
3.5862
37.1547
-2.54746
-0.160476
601.06
0.743353
-1.19431
-149.016
-150.691
-149.841
-151.57
600.834
0.360037
-1.08021
600.652
0.158049
-1.17793
600.267
-0.280512
-0.910002
599.467
-0.651032
-0.336359
598.394
-1.03075
0.0350301
596.933
-1.13342
0.210891
595.656
-0.663382
0.551543
594.27
0.678648
0.524665
592.943
2.11196
1.00553
9.67815
3.16118
-288.03
56.7281
-1.71005
-288.627
60.9378
-1.1246
-71.4721
66.628
-0.848572
-71.8615
-72.1498
-72.5178
0.739037
0.108903
7.77676
-0.65525
-18.0029
-17.7081
-17.9091
-17.7762
0.193123
-0.0625341
37.414
0.869978
-0.172898
605.034
67.5646
-0.552377
-150.609
-150.866
-151.558
-151.854
605.178
64.943
-0.963904
605.399
63.3813
-0.205576
605.657
61.2254
0.321917
606.09
58.7728
0.094879
606.238
57.4695
-0.261089
606.223
56.1582
-0.331666
606.22
55.3993
0.197333
605.948
54.8252
1.12504
605.529
53.0381
1.27119
53.3253
1.88395
-293.426
130.509
-1.63272
-292.909
149.456
-2.19811
-71.8993
160.296
-1.47189
-72.1175
-72.5557
-72.8119
0.512423
-17.532
27.2034
-0.444388
-18.1115
-17.8869
-18.0545
-17.9777
0.194186
-3.62886
37.6039
4.88204
-0.164404
610.382
173.75
-2.73188
-151.18
-150.898
-152.269
-152.33
612.164
167.448
2.18632
613.489
159.338
3.37015
614.587
152.862
0.235677
614.602
144.65
-3.36689
614.745
137.545
-2.10969
614.055
131.427
2.14004
612.977
125.006
3.83605
612.56
119.056
1.92633
611.719
112.761
0.289031
106.755
1.51647
-281.582
198.06
-1.32737
-267.221
241.608
-0.870765
-64.9193
265.276
-1.3032
-52.9799
-65.789
-53.5776
-48.4286
0.75175
-60.9138
63.6458
-0.528508
0.228171
8.23461
-7.08869
34.1989
-0.250774
0.257125
3.55151
-2.52477
36.5497
-0.257465
0.209072
-0.110728
0.928837
36.849
-0.215023
0.173024
-3.72964
4.9556
37.1922
-0.173855
-7.99592
-12.0548
1.31308
122.764
131.787
-0.192936
-14.395
-7.96911
-14.3645
-17.2249
-12.2717
-17.2255
574.667
343.179
14.6591
-136.285
-120.276
-137.527
-122.186
589.602
289.022
4.79767
597.33
261.089
-7.79566
603.838
243.866
-7.45525
609.329
230.979
1.31128
612.002
216.399
10.0524
614.656
202.806
8.85229
615.443
190.324
0.909647
615.777
178.106
-3.2811
617.173
170.215
-0.524031
157.658
3.16522
-239.649
246.005
-1.60167
-206.523
299.236
-1.53644
-180.733
323.864
0.350928
-133.639
482.384
-2.91949
-89.6663
-115.873
-90.2309
-117.336
-68.9782
590.462
-3.73261
-145.027
-146.668
-146.676
-148.345
1.72506
594.789
-4.32474
-147.22
-148.87
-148.838
-150.568
70.5531
599.136
-3.20781
-148.859
-149.392
-150.591
-151.174
182.464
604.952
-4.97128
-150.535
-151.409
-152.326
-153.146
325.589
578.919
10.4597
-140.071
-127.825
-142.26
-128.899
468.437
488.503
11.4593
522.085
394.162
-32.9997
544.703
340.929
-14.3343
565.993
315.074
8.72207
580.565
299.049
18.4007
589.932
282.686
11.6003
597.77
262.743
-2.87357
602.269
247.14
-9.26267
606.424
233.266
-1.5046
610.602
223.118
6.81178
205.882
6.2013
-192.471
280.527
-0.441983
-146.785
334.551
-1.14802
-155.953
363.493
-0.51223
-132.335
514.341
-3.68516
-68.164
592.927
-2.24497
1.57842
593.844
-4.28853
67.6817
598.621
-3.48808
170.877
603.223
-0.363831
281.831
587.298
5.98605
382.972
537.548
-30.9975
456.787
473.682
-29.3052
495.585
407.825
24.3885
517.076
362.5
30.2712
543.859
349.063
11.909
559.243
335.195
-10.3207
568.416
314.557
-13.4036
582.078
301.47
-2.3151
591.161
283.644
13.9272
596.773
273.628
13.2324
250.54
6.8073
-162.716
300.772
0.328158
-133.101
356.357
1.7987
-150.059
406.707
1.13304
-130.745
532.198
-0.0429762
-66.0229
595.462
-3.17446
1.26482
592.939
-4.45309
65.1052
598.238
-2.77985
159.843
603.647
1.16397
259.064
591.233
-8.24057
340.387
552.974
-13.0168
401.06
511.769
28.7646
440.341
456.789
47.1967
478.084
405.634
12.3577
504.225
381.029
-19.659
520.202
374.972
-19.0048
536.375
359.996
-0.713292
553.515
346.746
19.3272
563.883
330.651
23.2814
574.448
317.372
8.76108
289.345
2.64033
-138.544
315.159
-0.23197
-119.19
374.356
-0.627426
-151.069
442.888
3.67317
-128.184
543.109
1.54283
-62.9769
597.769
-2.62287
0.711741
591.985
-4.14831
62.6248
597.92
-2.26667
151.935
604.832
-2.01742
238.443
594.79
-10.064
314.221
566.267
8.62062
365.036
528.068
34.1348
401.057
494.209
16.2916
433.917
444.509
-25.2997
460.497
405.644
-22.2106
489.25
403.903
1.72797
506.481
391.317
26.8165
520.965
381.581
30.9006
537.141
366.738
14.3042
549.173
351.162
-1.2565
324.169
1.41313
-123.113
328.539
2.80863
-107.59
389.775
3.19889
-146.964
467.007
4.75622
-122.403
549.421
0.439914
-60.155
599.851
-4.27413
0.361728
590.883
-3.69916
59.975
597.994
-2.37621
143.007
605.184
-5.86336
224.472
597.779
-1.71429
294.922
575.712
18.1521
350.397
547.648
16.3267
382.837
514.989
-14.2204
403.86
472.763
-19.3041
433.617
440.119
8.85559
463.631
430.622
30.9413
477.66
414.478
33.5853
492.477
406.162
18.7567
506.551
392.118
-1.60417
517.769
380.898
-0.0752286
357.085
7.80263
-113.583
340.035
7.09488
-103.025
402.42
8.27858
-140.799
482.417
5.28875
-114.711
552.822
2.55949
-56.9506
600.368
-3.65976
-0.0634719
589.615
-3.39873
58.4368
598.106
-2.59291
135.494
605.255
-4.67999
210.026
600.185
7.38232
277.545
582.229
11.5763
333.299
558.804
-7.32666
374.103
526.274
-14.8105
400.91
495.699
5.71213
424.751
468.075
32.6298
450.622
457.838
39.4875
470.903
442.779
22.4364
479.62
428.974
-1.35615
482.082
416.457
-4.5143
491.955
408.015
9.52014
387.491
15.9647
-102.412
344.35
7.6713
-93.5688
407.006
10.1948
-129.985
488.859
2.92261
-107.206
554.466
-0.0128307
-55.0637
599.153
-2.13493
-0.470585
587.99
-3.12078
56.723
598.06
-2.35571
129.702
604.073
-0.500991
197.413
603.009
6.55293
257.564
588.998
-3.33809
310.12
565.561
-12.5709
355.53
537.577
1.41183
386.702
507.317
28.7616
409.311
476.899
35.5865
434.54
471.734
23.2208
457.465
461.265
-2.13367
465.124
446.56
-7.47639
472.844
433.465
5.93413
482.828
428.413
24.8044
412.595
20.7961
-93.0348
344.041
6.18745
-81.7248
404.123
9.69306
-113.173
487.627
6.50728
-96.8288
552.668
3.14515
-52.5676
596.534
-1.07109
-0.0836635
586.531
-2.54087
55.4992
597.795
-1.91196
123.201
602.635
1.15033
185.647
604.012
-1.09792
241.646
592.782
-9.92645
295.486
576.146
-2.66701
340.493
550.455
19.5637
375.74
519.025
32.2298
400.387
488.824
22.4342
423.623
475.019
1.32677
441.959
463.945
-6.73016
455.227
457.163
6.40983
471.854
450.828
30.6721
479.409
447.412
35.1924
432.89
21.1404
-83.7112
343.152
5.36233
-68.5069
394.706
8.25059
-94.8086
479.217
5.61766
-85.8022
548.811
4.61315
-50.161
591.293
-0.662013
1.12129
584.807
-2.48551
54.4078
597.281
-1.58993
116.898
602.363
-0.107141
174.269
604.551
-4.47118
228.158
596.203
-2.69754
277.727
583.561
12.3203
324.018
558.595
21.7063
360.015
532.744
16.2034
385.69
503.129
1.41514
411.092
476.81
-3.11328
429.437
466.08
6.2149
445.357
466.536
28.1079
461.921
463.016
39.1976
470.558
459.67
30.3949
444.041
16.8086
-75.4389
343.626
5.42334
-53.4069
383.726
8.36502
-68.0966
464.231
7.58814
-69.0383
540.29
6.53634
-47.7432
583.164
0.922926
2.32667
583.073
-1.80067
52.3636
596.583
-1.44981
110.511
601.297
-1.31871
166.651
605.86
-1.97137
218.483
600.296
4.32618
267.528
588.84
10.7481
310.634
568.252
7.80239
344.627
545.006
0.257605
374.111
514.929
1.16215
401.963
487.768
9.85318
420.96
472.462
22.3549
438.354
470.11
30.7309
456.611
466.527
28.7793
463.591
459.902
19.0505
447.603
19.612
-73.0927
4.17211
-50.7593
5.84881
-35.5675
6.3615
-32.394
8.94323
-21.8719
5.17436
10.0375
0.877865
52.6883
-0.321895
104.693
-0.248751
154.116
1.29152
201.155
4.09003
245.203
5.72327
283.886
3.26607
318.679
2.50225
350.907
8.52831
380.296
16.5097
404.327
19.4251
422.925
19.5946
438.232
15.4243
447.929
18.1896
24.3185
-111.905
-111.626
5.5827
-107.474
-141.652
9.28236
-140.838
-219.142
14.1504
-116.034
-284.015
3.33685
-55.8332
-297.25
0.347297
0.243351
-295.641
-0.372661
57.7937
-293.697
-1.05142
131.827
-298.915
-0.718725
199.333
-286.467
0.371858
247.483
-245.241
0.314239
282.787
-196.357
2.48172
304.434
-165.596
4.41101
318.913
-141.436
3.21918
331.752
-124.017
5.79613
343.357
-113.73
10.0214
348.513
-102.591
9.72201
348.597
-93.1288
7.1746
347.541
-84.6558
5.98374
347.491
-76.3758
5.16414
-73.6719
3.49592
-140.226
-105.163
9.38697
-199.181
-197.392
20.6276
-201.943
-238.797
6.91249
-144.304
-286.131
-1.15187
-59.9969
-293.803
-0.563012
1.06498
-296.612
-0.217466
62.571
-294.285
-0.756028
150.428
-298.715
-1.54437
243.4
-272.485
1.61091
302.452
-213.197
1.09511
338.883
-156.334
2.48013
362.788
-132.061
7.4706
381.137
-118.856
4.95347
397.039
-108.398
8.13937
411.603
-104.511
12.9407
417.414
-95.0804
13.4248
415.399
-82.9016
11.4641
407.396
-70.5275
9.78507
395.49
-54.9834
9.70117
-51.1047
5.82363
-217.218
-134.863
15.7917
-242.347
-203.247
7.31159
-229.494
-230.061
-2.32106
-152.929
-67.7712
5.27538
-68.2268
-67.8065
-68.488
-64.3719
-73.8496
0.251051
-73.5675
-73.8941
-73.8093
0.233366
-74.0841
-0.0980829
-73.8463
-74.3407
-74.2473
67.8054
-72.9452
-0.462715
-73.3061
-73.2261
-73.5628
161.195
-73.4204
-1.30177
-73.7275
-73.6574
-73.7521
267.853
-67.2672
0.35537
-55.1841
-66.5827
-54.4387
332.222
-183.745
4.49827
375.182
-166.173
2.79995
416.704
-152.144
5.17821
455.042
-150.258
9.22073
484.3
-150.029
8.26664
503.33
-145.682
8.38327
510.647
-136.623
5.53005
509.613
-120.388
8.03652
501.427
-101.124
7.20184
486.369
-74.2441
8.61937
-38.2594
6.73763
-280.386
-114.449
4.79173
-284.09
-146.528
-1.49887
-66.8259
-155.864
0.854435
-67.5632
-67.3099
-67.8542
-0.425783
-59.387
-60.4446
0.248752
-0.224764
-26.362
0.629288
46.0554
-18.3607
-19.0052
-18.3434
-19.0216
0.0067011
17.3454
-7.86687
-0.0729098
-18.4762
-18.5495
-18.4554
-18.5859
0.456235
-0.0460024
8.02804
-0.487729
-18.3506
-18.0818
-18.3038
-18.1328
0.107742
-17.88
27.6034
-0.055392
-18.593
-18.2015
-18.5428
-18.2583
-49.7876
-0.620218
63.512
-63.4882
1.01525
498.35
-133.766
2.17305
-91.0426
-116.829
-92.3894
-122.428
533.8
-137.324
4.10048
552.639
-132.931
3.59796
566.006
-129.436
5.23174
575.47
-125.588
4.04433
580.287
-118.841
5.87012
581.999
-111.311
3.69583
580.359
-101.44
5.2507
576.717
-90.4082
6.43185
569.138
-74.8423
8.53381
-38.7054
10.3348
-297.286
-58.1284
0.569843
-292.985
-62.2614
-0.952451
-72.2721
-66.745
-0.0688621
-72.8936
-72.9618
-73.5141
-0.246846
-27.686
-0.221571
46.1972
-17.6137
-17.3991
-17.529
-17.4702
0.0638218
5.94579
31.7668
-7.6508
-0.00676959
613.924
-69.5289
2.83164
-149.549
-151.651
-153.434
-154.651
618.067
-68.2173
3.74113
621.222
-67.1261
3.16079
624.01
-64.6008
3.48146
626.72
-61.825
1.89958
628.288
-58.7125
1.01965
627.909
-56.4808
1.50479
625.832
-54.3586
2.38471
621.32
-52.4734
2.42264
614.091
-50.719
3.50126
-27.9903
6.92867
-295.536
-1.19467
-0.450132
-295.909
-0.255943
-0.791264
-73.6871
-0.252989
-0.682186
-73.3841
-73.9374
-73.5623
0.189379
17.9407
-7.97374
-0.0964982
-18.6153
-18.4219
-18.5577
-18.4543
0.0339979
3.58457
37.6893
-2.54904
0.0162145
618.488
0.76219
1.68543
-151.984
-153.772
-154.947
-156.661
618.899
0.431394
1.67771
619.227
0.130223
1.5002
619.215
-0.219516
1.33821
618.793
-0.429807
1.59222
617.96
-0.890701
1.71158
616.69
-1.20525
1.6128
615.369
-0.967177
1.88573
613.943
0.0541345
1.8296
612.668
1.25158
2.27169
7.22978
4.28807
-293.619
56.5841
-0.784494
-294.149
61.6523
-0.529741
-72.9272
67.0359
-0.0992432
-73.2296
-73.1845
-73.4942
0.525257
-0.0405103
8.00405
-0.387377
-18.3447
-18.0591
-18.2983
-18.0912
0.0342361
-0.083118
38.0581
0.888315
0.0194506
622.983
68.3659
2.91473
-153.815
-154.129
-156.706
-157.07
623.825
65.657
2.20459
624.673
63.6888
2.49072
625.382
62.0534
3.07098
626.076
59.7649
3.04576
626.678
57.8592
2.3894
626.715
56.6312
1.65205
626.72
55.405
1.62448
626.658
55.1033
2.10224
626.41
53.3252
2.71373
52.5922
3.42525
-298.861
130.934
-0.526036
-298.518
149.404
-0.991851
-73.3584
160.381
-0.319814
-73.7003
-73.7237
-74.1202
0.354623
-17.7813
27.4071
-0.204312
-18.6053
-18.1744
-18.5183
-18.2205
0.000693423
-3.64731
38.3338
4.89823
0.0525982
628.628
175.387
0.197429
-154.801
-154.68
-157.742
-158.025
631.125
169.482
3.83586
633.307
161.012
6.66286
634.983
153.644
4.85215
634.81
145.6
0.159951
634.512
138.11
-0.965991
634.848
132.805
2.3355
634.452
126.468
5.264
633.905
120.662
4.58525
632.814
114.546
2.11764
107.711
2.64398
-287.246
198.981
0.409396
-273.272
241.782
1.38795
-67.2147
264.914
0.861533
-55.4489
-67.5785
-55.6142
-49.4609
0.798133
-63.1359
63.0963
0.145177
0.290552
5.90338
-7.64172
31.5089
-0.231386
0.254742
3.52843
-2.49379
37.4534
-0.233819
0.212424
-0.140267
0.94896
37.8101
-0.188138
0.167601
-3.73228
4.96362
38.1623
-0.139289
-10.5066
-9.21877
-0.655615
132.403
128.626
1.34124
-15.6727
-10.5225
-15.7744
-16.1001
-9.26895
-15.8808
595.099
340.176
14.6447
-142.622
-127.562
-143.698
-127.347
609.644
289.098
14.3995
617.172
263.452
-0.166381
621.558
243.752
-5.52023
626.852
231.287
0.0343568
633.188
219.054
10.2664
636.985
205.802
12.8727
638.091
193.32
6.58433
636.741
180.929
-0.727191
637.117
172.976
-0.168537
160.186
3.66116
-246.599
247.854
0.299673
-214.732
300.904
2.36305
-186.388
327.798
3.57974
-132.301
490.973
-0.584057
-90.3165
-115.541
-90.6087
-116.916
-68.1733
607.463
-2.23874
-148.072
-150.307
-150.08
-152.428
1.95768
612.235
-2.79642
-150.809
-152.621
-152.948
-154.744
70.7446
617.04
-1.41193
-152.672
-153.192
-154.783
-155.345
180.225
622.991
-3.60671
-154.194
-155.089
-156.324
-156.971
335.569
590.074
9.42913
-140.189
-125.885
-144.54
-129.807
485.874
487.906
27.8891
542.023
391.428
-21.4411
561.459
341.051
-16.5001
582.839
317.407
4.61661
601.284
303.237
20.3514
611.97
286.342
19.7375
618.331
266.755
6.82346
621.395
248.944
-5.66445
624.525
235.713
-2.83224
630.34
227.301
6.54545
209.825
7.88115
-198.423
283.094
0.628547
-158.51
337.15
0.547905
-168.756
369.496
3.12528
-137.045
527.538
-0.903591
-66.9797
611.827
-1.17478
1.92428
612.559
-2.85809
68.0571
617.581
-1.95761
172.752
624.022
-0.109591
286.656
604.636
9.34915
387.159
544.488
-22.6261
461.66
467.093
-34.4759
514.663
412.746
15.4576
537.8
374.729
37.5402
561.152
352.281
27.0595
578.14
337.275
2.70329
586.017
315.764
-10.2971
596.794
303.165
-5.68841
612.203
289.068
11.3071
618.539
278.894
16.4811
256.142
10.1386
-167.518
303.904
2.56818
-135.018
360.629
3.0811
-155.634
412.511
1.21311
-133.361
546.714
0.246003
-65.6456
614.965
-1.93924
1.84376
612.697
-2.87411
65.8544
618.066
-1.67642
162.691
625.754
2.7478
263.386
610.947
-4.06987
340.431
562.321
-17.2857
410.083
520.912
16.4429
463.655
469.996
53.343
497.566
419.792
36.0689
521.872
384.665
-4.37287
533.266
373.33
-16.7003
549.404
361.66
-5.22026
572.95
353.04
16.3997
584.951
336.344
28.3418
595.525
324.752
15.1601
295.76
5.18806
-143.12
317.735
1.25987
-121.316
379.443
2.12078
-153.365
451.411
2.63095
-129.75
559.917
1.60976
-63.1852
617.611
-1.54689
1.29874
612.565
-2.90188
63.8031
618.338
-0.91655
154.245
627.32
1.02481
241.594
613.778
-10.216
316.894
580.324
1.49145
377.564
542.298
35.3115
419.293
505.274
36.1466
451.791
458.868
-10.8886
471.865
409.156
-22.8541
498.419
401.407
-3.36992
523.386
394.721
25.0695
539.734
386.405
35.4306
557.091
372.237
22.7784
570.01
358.365
1.26663
330.968
2.17162
-125.641
330.538
2.2377
-110.845
396.072
3.38748
-151.476
480.046
4.20795
-125.167
568.974
-0.0907907
-60.4741
620.118
-2.9019
0.925549
612.025
-2.63717
61.1153
618.707
-0.861988
145.428
626.957
-3.4804
227.546
617.546
-5.19145
300.942
595.978
15.6132
357.028
563.004
23.7718
390.945
528.739
-4.06304
410.252
481.109
-21.2134
437.456
441.359
-1.7579
470.442
430.107
30.5444
489.135
414.603
37.3158
508.041
408.696
25.3074
525.785
395.929
0.193997
536.361
386.203
-1.60798
362.832
7.92572
-116.003
342.836
5.43213
-107.542
411.258
6.8064
-146.732
499.207
5.4515
-118.708
573.883
1.78829
-57.473
621.557
-3.30772
0.586591
611.129
-2.47329
59.2778
619.351
-1.37968
137.629
626.312
-4.54056
214.726
623.116
4.69233
283.619
605.55
14.1476
339.531
577.105
-0.279352
379.045