/*--------------------------------*- C++ -*----------------------------------*\
  =========                 |
  \\      /  F ield         | OpenFOAM: The Open Source CFD Toolbox
   \\    /   O peration     | Website:  https://openfoam.org
    \\  /    A nd           | Version:  9
     \\/     M anipulation  |
\*---------------------------------------------------------------------------*/
FoamFile
{
    format      ascii;
    class       volScalarField;
    location    "0.008";
    object      rho;
}
// * * * * * * * * * * * * * * * * * * * * * * * * * * * * * * * * * * * * * //

dimensions      [1 -3 0 0 0 0 0];

internalField   nonuniform List<scalar> 
9720
(
3.45711
3.04005
2.51358
1.79175
1.66947
1.76377
1.76155
1.56137
1.28684
1.05656
0.861873
0.745743
0.708666
0.717804
0.7524
0.825277
0.939432
1.08326
1.22329
1.44362
3.02045
2.64618
1.38433
1.07768
1.45717
1.71073
1.71432
1.45696
1.022
0.691966
0.496666
0.42711
0.43491
0.4649
0.521786
0.611994
0.736635
0.900067
1.05812
1.31684
2.53663
1.39681
0.935745
0.875601
1.42884
1.70386
1.70734
1.41725
0.823905
0.450244
0.33453
0.335862
0.356741
0.401309
0.461609
0.5438
0.650864
0.793971
0.952204
1.25045
1.80062
1.06774
0.867592
0.71023
1.13301
1.68605
1.78276
1.57114
0.778724
0.213761
0.230717
0.261542
0.29645
0.331581
0.368905
0.410315
0.459796
0.528173
0.629573
0.946865
1.63626
1.40814
1.38274
1.12809
0.17426
0.310794
0.33459
0.353476
0.365764
0.37504
0.385506
0.399402
0.420145
0.451254
0.493958
0.663875
1.71155
1.66198
1.65818
1.63731
0.409894
0.423906
0.417357
0.41246
0.409085
0.40953
0.411889
0.415945
0.422151
0.430334
0.439281
0.508121
1.70479
1.66498
1.66274
1.73948
0.446543
0.423379
0.418273
0.413746
0.410484
0.407468
0.407343
0.408368
0.410551
0.414336
0.419729
0.451634
1.50832
1.40725
1.36918
1.52368
0.378302
0.294834
0.309568
0.318191
0.324356
0.330729
0.337309
0.344588
0.35219
0.359737
0.368009
0.393075
1.23794
0.975852
0.778926
0.700594
0.171724
0.388036
0.422202
0.355251
0.0435635
0.0757741
0.121801
0.165563
0.199924
0.227699
0.249903
0.266371
0.282709
0.300177
0.313413
0.341352
1.01461
0.65796
0.426321
0.205182
0.295293
0.400817
0.399206
0.281131
0.080925
0.0298104
0.0403715
0.0666208
0.101887
0.135967
0.165659
0.193211
0.218602
0.244263
0.26278
0.293319
0.828085
0.472995
0.323489
0.223153
0.318912
0.394154
0.394355
0.296145
0.127336
0.0421908
0.0274426
0.032388
0.0464808
0.068661
0.0984344
0.131023
0.162097
0.191255
0.211908
0.247641
0.721855
0.414385
0.324877
0.252912
0.336074
0.389363
0.390741
0.305495
0.169336
0.0707434
0.033836
0.0277439
0.0296342
0.0395421
0.0596873
0.0873762
0.115714
0.142251
0.165347
0.20709
0.68527
0.422966
0.347273
0.28656
0.347505
0.387589
0.387789
0.311797
0.202438
0.107177
0.0501963
0.0305336
0.0307783
0.0332603
0.0413073
0.0577637
0.0784991
0.102882
0.127322
0.17038
0.693393
0.451516
0.393072
0.321716
0.35694
0.388644
0.386681
0.318961
0.228893
0.141418
0.0741608
0.0426858
0.0345639
0.0326484
0.0337481
0.0400305
0.0536125
0.0752916
0.0982723
0.138093
0.72583
0.50412
0.45064
0.358848
0.367722
0.3917
0.387295
0.326389
0.249739
0.170192
0.104613
0.065086
0.0451532
0.0352253
0.0337812
0.0355009
0.0421678
0.0579974
0.0767661
0.111983
0.797169
0.587833
0.525518
0.397553
0.382167
0.396729
0.389475
0.333889
0.265112
0.196743
0.137241
0.0940268
0.0641325
0.04445
0.036642
0.0374038
0.0419742
0.0495035
0.0606075
0.0897536
0.910895
0.705805
0.621867
0.444241
0.403207
0.404043
0.393237
0.341802
0.28049
0.221401
0.167479
0.122688
0.0864312
0.0604826
0.046274
0.043087
0.044459
0.0482367
0.0546311
0.0770972
1.05617
0.867787
0.755151
0.50881
0.434228
0.413821
0.398837
0.350288
0.297302
0.24568
0.195539
0.149535
0.111446
0.0830494
0.064344
0.0540952
0.050034
0.0510745
0.0559318
0.0745931
1.19826
1.0278
0.909241
0.603083
0.476357
0.424359
0.405896
0.359729
0.310239
0.263144
0.215867
0.17252
0.135591
0.105707
0.0837817
0.0686033
0.0587061
0.0583197
0.0614326
0.0763732
1.41636
1.28434
1.20355
0.906879
0.643838
0.495862
0.442021
0.387311
0.33918
0.294219
0.251754
0.213623
0.1779
0.145614
0.120155
0.10037
0.0857665
0.0804971
0.0801803
0.0860583
3.45028
3.01383
2.38766
1.70887
1.63499
1.75946
1.75797
1.55287
1.26984
1.03799
0.842665
0.722898
0.686098
0.695253
0.727432
0.79606
0.905753
1.0489
1.19347
1.42248
2.99665
2.4759
1.27633
1.04448
1.47066
1.72301
1.71924
1.45481
1.00745
0.670861
0.479071
0.408788
0.416433
0.44437
0.496328
0.580748
0.698642
0.856786
1.01569
1.28259
2.42284
1.28407
0.905387
0.854882
1.45594
1.71845
1.71316
1.41507
0.807257
0.426729
0.317618
0.320161
0.339911
0.380258
0.435405
0.511868
0.613369
0.749541
0.902469
1.20101
1.72119
1.02945
0.835023
0.679826
1.20338
1.68162
1.78114
1.56837
0.778141
0.204223
0.219548
0.249394
0.282672
0.314977
0.347913
0.386022
0.431732
0.494474
0.586057
0.887526
1.59841
1.40058
1.37221
1.086
0.174506
0.305403
0.327158
0.344423
0.355074
0.362589
0.371235
0.382736
0.400282
0.427661
0.465494
0.619168
1.69591
1.65885
1.66149
1.63346
0.404022
0.417329
0.410092
0.403981
0.398723
0.397669
0.398819
0.401218
0.405618
0.412068
0.419243
0.478189
1.69281
1.66015
1.66534
1.73394
0.440435
0.416513
0.410635
0.404724
0.399294
0.395422
0.393461
0.393864
0.395047
0.397341
0.401407
0.428354
1.49778
1.40606
1.37093
1.5231
0.372627
0.289286
0.302685
0.30973
0.314437
0.320465
0.326614
0.331805
0.336826
0.343026
0.350914
0.373687
1.22332
0.968406
0.771139
0.716526
0.17201
0.384702
0.418553
0.349751
0.043072
0.0730844
0.116343
0.158689
0.193636
0.220197
0.239478
0.252712
0.26693
0.285186
0.299128
0.324218
0.996078
0.641283
0.407828
0.198231
0.294553
0.400766
0.398504
0.278884
0.0785052
0.0274251
0.0376411
0.063533
0.0972672
0.128726
0.154731
0.179916
0.205977
0.231698
0.248718
0.275886
0.806445
0.456721
0.307737
0.214214
0.316177
0.393716
0.393194
0.293075
0.122764
0.0392966
0.0249948
0.0295652
0.0420815
0.061502
0.0887729
0.121105
0.151613
0.178497
0.196596
0.229666
0.693725
0.393573
0.310411
0.24314
0.332577
0.388143
0.388272
0.300772
0.163269
0.0671218
0.0306844
0.0239993
0.0254773
0.0344082
0.0536842
0.0799489
0.106135
0.129321
0.149666
0.189738
0.658243
0.401384
0.330878
0.275166
0.342702
0.383417
0.383793
0.306123
0.196765
0.10195
0.0451216
0.0262008
0.0267266
0.0302754
0.038305
0.0527801
0.0705367
0.0908659
0.113055
0.154719
0.667828
0.428112
0.370832
0.307214
0.35031
0.383214
0.380446
0.312852
0.222351
0.133685
0.0661092
0.0368774
0.031237
0.0298888
0.0309286
0.0359255
0.046895
0.0654633
0.0865256
0.124476
0.700102
0.477233
0.422399
0.339451
0.358936
0.384457
0.379785
0.319778
0.240713
0.159331
0.0941007
0.0579554
0.041107
0.0318826
0.0297487
0.0309356
0.0366837
0.0507931
0.0678211
0.100561
0.768156
0.556973
0.49226
0.375152
0.37024
0.387261
0.380471
0.325023
0.253807
0.184207
0.126718
0.085494
0.0575685
0.0390049
0.0317268
0.0323678
0.0364435
0.0436294
0.0541473
0.0807995
0.876547
0.669851
0.585062
0.417809
0.387199
0.3923
0.38246
0.33044
0.267999
0.210151
0.157141
0.112342
0.0769146
0.0521208
0.0396575
0.0372618
0.0385084
0.0419516
0.0477181
0.0686222
1.01876
0.82669
0.713702
0.476174
0.41358
0.399854
0.386087
0.337541
0.285669
0.235196
0.183812
0.136415
0.0986274
0.0721276
0.0558019
0.0470778
0.0433871
0.0442221
0.0484434
0.0649356
1.16169
0.985167
0.864076
0.561346
0.450127
0.408021
0.391375
0.346151
0.299029
0.251798
0.202526
0.157649
0.121388
0.0937693
0.0738581
0.0601783
0.0510466
0.0502949
0.0528636
0.0660664
1.38408
1.24531
1.15819
0.851236
0.60063
0.468025
0.42108
0.370389
0.324771
0.279983
0.236596
0.198163
0.163353
0.13268
0.108291
0.089423
0.0755797
0.0702278
0.0693496
0.0747036
3.51715
3.09846
2.30705
1.64196
1.60924
1.76725
1.76135
1.55028
1.26212
1.03047
0.836628
0.709797
0.669697
0.679037
0.710362
0.777083
0.88449
1.02814
1.17656
1.41722
3.08437
2.2618
1.16795
1.02171
1.47944
1.73165
1.71981
1.44845
0.994091
0.656046
0.4717
0.39685
0.403509
0.430396
0.479964
0.560754
0.675014
0.830395
0.993609
1.27202
2.33128
1.15835
0.883272
0.843832
1.45854
1.72532
1.71196
1.4035
0.787042
0.408369
0.306412
0.311779
0.331164
0.368368
0.419546
0.491791
0.590409
0.722064
0.87492
1.18387
1.62649
0.981871
0.806016
0.662492
1.2145
1.68656
1.78699
1.56514
0.750409
0.196592
0.211045
0.241067
0.275255
0.306627
0.337205
0.372397
0.415109
0.473064
0.556082
0.847623
1.55697
1.39762
1.36735
1.07532
0.161293
0.29692
0.316812
0.333624
0.345594
0.353516
0.361745
0.372492
0.389016
0.414752
0.449169
0.58864
1.68948
1.65368
1.65059
1.63047
0.394628
0.406996
0.400502
0.394849
0.389578
0.389464
0.39114
0.39457
0.399881
0.406896
0.413417
0.462707
1.69224
1.65876
1.65339
1.72806
0.430179
0.405839
0.400226
0.395123
0.390325
0.38652
0.386475
0.387533
0.389753
0.392852
0.396939
0.419996
1.49479
1.40558
1.36663
1.51797
0.362253
0.281242
0.293939
0.301485
0.30688
0.313601
0.320774
0.325961
0.331075
0.337848
0.346242
0.367966
1.21767
0.969536
0.776389
0.734579
0.158226
0.385573
0.419141
0.350163
0.0400959
0.0707133
0.112378
0.152308
0.187509
0.213431
0.231732
0.245672
0.259861
0.279114
0.294305
0.318944
0.985109
0.631019
0.395805
0.188383
0.289104
0.398984
0.396725
0.274714
0.07239
0.0250967
0.0349151
0.0595355
0.091439
0.121662
0.14725
0.172162
0.198874
0.224686
0.241753
0.269298
0.794936
0.44997
0.294538
0.202061
0.308398
0.392468
0.391391
0.288118
0.115769
0.0359516
0.0219389
0.0258797
0.0379917
0.0567973
0.0820772
0.113697
0.14345
0.168977
0.188006
0.222075
0.672491
0.378006
0.299276
0.230742
0.324916
0.386818
0.386597
0.296252
0.15577
0.0621526
0.0265925
0.0209977
0.0224353
0.0304436
0.0483206
0.072719
0.0975472
0.120746
0.140678
0.181265
0.634221
0.382879
0.317451
0.263648
0.337127
0.381596
0.382349
0.30229
0.190585
0.0953997
0.0402439
0.0228812
0.0233053
0.026692
0.0340959
0.0474128
0.0645413
0.0833903
0.104434
0.146243
0.645064
0.407578
0.353081
0.29499
0.345552
0.381329
0.378934
0.309603
0.216821
0.126757
0.0605539
0.0320444
0.0273437
0.0271308
0.0280663
0.0328572
0.0422897
0.0585679
0.0783127
0.116286
0.678149
0.456057
0.402031
0.325482
0.353791
0.382803
0.37897
0.317502
0.23571
0.152984
0.0869332
0.051331
0.0359812
0.0286924
0.0274112
0.0281494
0.0326862
0.0448498
0.0604925
0.0929549
0.745473
0.535533
0.470227
0.359579
0.363741
0.386199
0.380369
0.323343
0.250079
0.178352
0.119435
0.0773943
0.0510323
0.0349527
0.0286748
0.0289715
0.0321483
0.0385822
0.0489443
0.0746151
0.851857
0.647757
0.564101
0.400299
0.378826
0.391707
0.383153
0.329059
0.264798
0.205544
0.150309
0.103866
0.069915
0.0463813
0.0350831
0.0329027
0.0338858
0.0372196
0.0426079
0.0616523
0.993776
0.802233
0.691048
0.454307
0.402647
0.399226
0.38702
0.336495
0.283801
0.231893
0.177338
0.128765
0.0910093
0.0649458
0.0495119
0.0415384
0.0383809
0.0392782
0.0427573
0.0568628
1.13923
0.964168
0.84299
0.532064
0.435354
0.406336
0.391878
0.345399
0.298322
0.249358
0.197468
0.150405
0.113609
0.0862232
0.0667237
0.0540213
0.0455924
0.0440534
0.0460328
0.0578182
1.37217
1.2354
1.1508
0.815011
0.572056
0.455382
0.416432
0.368276
0.32338
0.277768
0.232791
0.192457
0.15681
0.125832
0.101209
0.0824051
0.068034
0.0615869
0.0610034
0.066445
3.53755
3.15563
2.2095
1.58003
1.59125
1.76921
1.75994
1.54356
1.24873
1.01457
0.826538
0.693352
0.65205
0.662974
0.696929
0.763884
0.869422
1.01221
1.16257
1.41012
3.14587
2.06399
1.07506
0.996311
1.47764
1.73081
1.71906
1.4431
0.983162
0.638526
0.460747
0.38236
0.387534
0.413921
0.463482
0.543255
0.656255
0.808195
0.971389
1.25683
2.22386
1.05728
0.871364
0.832752
1.44126
1.72406
1.71166
1.39805
0.776697
0.391132
0.28896
0.298237
0.319783
0.354824
0.402244
0.470166
0.566459
0.695464
0.847444
1.16189
1.53461
0.950383
0.805356
0.667683
1.16331
1.68882
1.78923
1.5605
0.705726
0.184985
0.198462
0.228319
0.264511
0.296478
0.325627
0.357637
0.396079
0.447876
0.52222
0.800898
1.52072
1.40526
1.37917
1.11409
0.18371
0.290585
0.309737
0.326012
0.339647
0.348276
0.355127
0.363388
0.376744
0.398719
0.428505
0.552044
1.67989
1.64898
1.64657
1.61797
0.386178
0.401729
0.395714
0.390315
0.385299
0.38385
0.385021
0.387827
0.392528
0.398991
0.404313
0.443234
1.6855
1.65284
1.64534
1.71976
0.421899
0.401371
0.396117
0.391634
0.387161
0.383136
0.381279
0.38181
0.383487
0.386199
0.389523
0.407612
1.48668
1.39787
1.35522
1.50822
0.354624
0.275167
0.287633
0.295847
0.30205
0.308658
0.315219
0.319801
0.324609
0.330969
0.338096
0.357092
1.20899
0.961049
0.762963
0.706951
0.15985
0.381077
0.416245
0.347842
0.0378038
0.0646912
0.105678
0.144715
0.179256
0.206098
0.225153
0.240304
0.254135
0.270882
0.285292
0.30998
0.977695
0.622167
0.383752
0.180583
0.285583
0.396506
0.3956
0.273076
0.070909
0.0229885
0.0317915
0.0542809
0.0842211
0.113591
0.140461
0.166301
0.19156
0.216009
0.233735
0.262082
0.792987
0.446977
0.281682
0.193174
0.304038
0.390236
0.39045
0.286529
0.11354
0.0334185
0.0195081
0.0228205
0.0335669
0.0524602
0.0772142
0.106748
0.135566
0.159974
0.179617
0.214558
0.664088
0.368615
0.289608
0.221496
0.319726
0.384801
0.386082
0.294959
0.152179
0.058417
0.0237353
0.0181634
0.0198841
0.0275579
0.0436597
0.0660539
0.0890469
0.111668
0.132822
0.173279
0.616407
0.37103
0.30901
0.256212
0.333241
0.380127
0.382379
0.301519
0.186187
0.091076
0.036254
0.0201857
0.0206531
0.0234014
0.0298497
0.0415984
0.0573956
0.0769184
0.0977194
0.13854
0.626455
0.392701
0.341678
0.286997
0.341989
0.378359
0.378589
0.308301
0.213404
0.122256
0.0568691
0.0286674
0.0236807
0.0243557
0.0256994
0.029903
0.038772
0.0541836
0.0723416
0.108983
0.659202
0.43875
0.386028
0.315361
0.34894
0.379548
0.377781
0.315507
0.232936
0.149085
0.0824767
0.0458056
0.0309038
0.0261926
0.0259085
0.0266212
0.0307589
0.0412102
0.0548981
0.0858443
0.723754
0.514632
0.448703
0.345772
0.357164
0.382661
0.378687
0.321001
0.247747
0.174154
0.112637
0.0697875
0.0441032
0.0312738
0.0269887
0.0273348
0.0298364
0.0351262
0.044178
0.0688464
0.825817
0.622753
0.53839
0.382762
0.369604
0.387695
0.38072
0.326461
0.261477
0.199191
0.142772
0.095107
0.0617754
0.0416503
0.032403
0.0303947
0.031101
0.0334333
0.0380939
0.056345
0.966018
0.769431
0.658268
0.430796
0.389962
0.394788
0.384053
0.333519
0.278265
0.224617
0.169419
0.120028
0.0832869
0.0588839
0.0446564
0.0374321
0.0342581
0.0348365
0.0380831
0.0508295
1.11542
0.932201
0.804835
0.49777
0.4176
0.400769
0.387986
0.341481
0.292549
0.243005
0.190092
0.142286
0.10537
0.0786798
0.0601791
0.0483416
0.0405523
0.0390382
0.0407825
0.0514013
1.36366
1.21865
1.11986
0.760328
0.535586
0.438561
0.40711
0.361669
0.317181
0.271676
0.225332
0.18347
0.147736
0.117546
0.0933735
0.0755043
0.0617514
0.0545828
0.0539963
0.0593205
3.56156
3.19453
2.15
1.53042
1.58439
1.77106
1.76201
1.54167
1.24077
1.00352
0.819324
0.684009
0.640889
0.654594
0.692625
0.76198
0.867122
1.01037
1.16092
1.40748
3.18627
1.97305
1.03467
0.984522
1.49213
1.73702
1.72306
1.44411
0.976649
0.627657
0.453497
0.374353
0.376683
0.40152
0.453597
0.536171
0.649725
0.801126
0.963261
1.24679
2.16412
1.00886
0.859269
0.832953
1.45823
1.73158
1.71567
1.3995
0.769326
0.381247
0.278954
0.29004
0.312528
0.345506
0.38935
0.453997
0.548615
0.676673
0.828847
1.14427
1.48979
0.929557
0.78764
0.658477
1.17484
1.69211
1.7933
1.56378
0.716915
0.17881
0.19192
0.22102
0.257969
0.290319
0.318525
0.348423
0.384263
0.43168
0.499014
0.764916
1.50271
1.39712
1.36378
1.0976
0.153959
0.2858
0.30485
0.320871
0.33578
0.346049
0.352935
0.360419
0.371658
0.390644
0.416544
0.527279
1.67286
1.64509
1.64654
1.61319
0.384144
0.400134
0.39378
0.388309
0.383307
0.381455
0.382554
0.385159
0.389158
0.39484
0.398927
0.43023
1.67895
1.65014
1.64429
1.7164
0.420565
0.400914
0.395478
0.390628
0.38602
0.382038
0.379933
0.380194
0.381133
0.38321
0.385547
0.399448
1.47915
1.39261
1.34955
1.50376
0.354977
0.273758
0.285716
0.293302
0.299717
0.306611
0.312904
0.317178
0.321399
0.326942
0.333114
0.349749
1.19831
0.950166
0.749446
0.69556
0.153174
0.380369
0.416761
0.34674
0.0363038
0.0628354
0.103152
0.141509
0.174768
0.202016
0.223305
0.2388
0.251222
0.265424
0.279159
0.303508
0.969876
0.61355
0.374739
0.176604
0.284802
0.396668
0.396553
0.272126
0.0695274
0.0219087
0.0302176
0.0511177
0.0808272
0.112141
0.138886
0.163553
0.186751
0.210361
0.229457
0.257823
0.789799
0.441951
0.273832
0.189015
0.303981
0.390446
0.391041
0.286074
0.112065
0.0319618
0.0182972
0.0220534
0.0335693
0.0522222
0.0758118
0.103014
0.130745
0.158499
0.178642
0.21061
0.659552
0.363673
0.283318
0.216956
0.318987
0.384872
0.386832
0.295399
0.150884
0.0555084
0.0228643
0.0178023
0.0190621
0.0260491
0.0406857
0.062002
0.0872403
0.112164
0.131787
0.168631
0.608819
0.365316
0.304247
0.252586
0.332287
0.38005
0.38384
0.301929
0.183412
0.0877696
0.0361072
0.0193439
0.0194328
0.0216218
0.0277751
0.0402543
0.0573344
0.0765896
0.0957714
0.134136
0.617549
0.385679
0.336582
0.283726
0.341124
0.377368
0.380448
0.307519
0.209733
0.120578
0.0565214
0.0271182
0.021854
0.0227824
0.0255759
0.0308226
0.0394829
0.0533468
0.0698957
0.105599
0.648746
0.429936
0.379105
0.311398
0.347485
0.378135
0.37774
0.313475
0.231249
0.147719
0.0812344
0.042658
0.0285747
0.026004
0.0265889
0.0273864
0.0306786
0.0392453
0.0524642
0.083513
0.71109
0.50324
0.438881
0.340269
0.355088
0.380774
0.378063
0.319573
0.247419
0.172368
0.109031
0.0653763
0.0421747
0.0320799
0.0277738
0.0277576
0.0290791
0.0339959
0.0435784
0.0678877
0.810308
0.608182
0.524948
0.374979
0.366231
0.385292
0.379419
0.3259
0.260636
0.195324
0.137688
0.0922902
0.060529
0.041705
0.0320767
0.0295922
0.0302783
0.0338824
0.0389286
0.0558349
0.94841
0.748746
0.640807
0.420117
0.384682
0.39192
0.38235
0.332285
0.274742
0.21892
0.16616
0.118275
0.081019
0.0569498
0.0423129
0.035953
0.0345246
0.0355596
0.0379024
0.0480609
1.09994
0.907954
0.779929
0.480716
0.409475
0.397379
0.385612
0.338549
0.287928
0.238461
0.18712
0.139065
0.101569
0.0750511
0.0569641
0.0468419
0.0407857
0.0385001
0.039347
0.0479543
1.3582
1.20247
1.09118
0.725137
0.515385
0.429044
0.401278
0.356079
0.312667
0.268025
0.220681
0.177449
0.14165
0.112493
0.0895284
0.0727828
0.0598839
0.0506975
0.0497592
0.0551802
3.5614
3.19143
2.1363
1.51922
1.58673
1.77575
1.7646
1.54337
1.24144
1.00389
0.82011
0.683265
0.638214
0.652866
0.693181
0.764759
0.871391
1.01566
1.16599
1.41171
3.18889
1.96644
1.02757
0.979481
1.50032
1.74537
1.72632
1.44524
0.976938
0.628091
0.45538
0.375354
0.375971
0.398804
0.451846
0.536469
0.652025
0.805861
0.96934
1.25254
2.16921
1.00169
0.854723
0.829191
1.4721
1.74036
1.7188
1.40044
0.768396
0.382166
0.280353
0.291353
0.313284
0.345438
0.389004
0.453692
0.549339
0.678951
0.833825
1.15237
1.48866
0.92421
0.782081
0.652071
1.2135
1.69723
1.79416
1.5672
0.711176
0.178556
0.191982
0.221415
0.258885
0.291246
0.318969
0.348318
0.383808
0.431466
0.499949
0.770698
1.49802
1.38983
1.35448
1.05978
0.148025
0.284316
0.303697
0.319769
0.334831
0.344728
0.351158
0.358301
0.369468
0.388716
0.415066
0.52753
1.67064
1.64244
1.64393
1.61591
0.383262
0.398859
0.392425
0.387023
0.382221
0.379384
0.380193
0.382634
0.386734
0.392686
0.397004
0.4288
1.67534
1.64833
1.64328
1.71407
0.419812
0.399871
0.394135
0.389515
0.385358
0.381117
0.378113
0.378354
0.379532
0.38183
0.384248
0.398259
1.47569
1.39043
1.34854
1.50047
0.353434
0.273335
0.286067
0.294353
0.300375
0.306641
0.312305
0.316992
0.322062
0.327773
0.333702
0.349946
1.19525
0.949309
0.751913
0.712754
0.142336
0.381348
0.417781
0.348743
0.0355825
0.064448
0.10508
0.143746
0.17678
0.20349
0.224428
0.239671
0.251873
0.266333
0.279925
0.303959
0.967996
0.61314
0.376228
0.175002
0.284485
0.397974
0.397731
0.272918
0.068547
0.0220386
0.0304687
0.0517616
0.0821523
0.113438
0.139568
0.16377
0.187001
0.210759
0.229729
0.257794
0.788222
0.441118
0.273115
0.187803
0.303675
0.392161
0.392488
0.286125
0.110803
0.0316474
0.0181683
0.0221573
0.0338871
0.0524927
0.0758013
0.102753
0.130874
0.158497
0.178341
0.21017
0.6587
0.363911
0.282841
0.216268
0.319539
0.386925
0.388201
0.294435
0.149301
0.0545409
0.0226753
0.0175421
0.0187999
0.0257542
0.0403349
0.0619476
0.0871082
0.111415
0.131008
0.16787
0.609528
0.365669
0.304226
0.251981
0.333616
0.382393
0.384649
0.301089
0.182415
0.0863993
0.0355883
0.0190514
0.0191393
0.0212599
0.0276025
0.0401114
0.056822
0.0757847
0.0948606
0.133219
0.61857
0.386178
0.337592
0.284018
0.343347
0.38003
0.380941
0.30846
0.209352
0.118743
0.0557139
0.0267502
0.0215542
0.0225179
0.0250253
0.0298764
0.0384323
0.0522455
0.0689986
0.104675
0.649847
0.43061
0.380784
0.312149
0.350324
0.380936
0.379023
0.315837
0.230093
0.145969
0.0803175
0.0424253
0.0286991
0.0255588
0.0257733
0.0264901
0.0297619
0.03876
0.0521824
0.0827894
0.71216
0.504008
0.440726
0.341964
0.358077
0.383733
0.379632
0.320911
0.246512
0.171267
0.108656
0.0655324
0.0422898
0.0312904
0.0269134
0.0269042
0.0287019
0.0341057
0.0432466
0.0671228
0.811491
0.608853
0.526123
0.37726
0.36919
0.388248
0.381239
0.325572
0.259951
0.195506
0.13795
0.0919401
0.0599827
0.0409392
0.031288
0.02918
0.030101
0.0333158
0.0378404
0.0545354
0.949188
0.74909
0.641721
0.42218
0.387694
0.394821
0.384107
0.331642
0.27535
0.219706
0.165742
0.117307
0.0805413
0.0562774
0.0418706
0.0358198
0.0338709
0.034582
0.0369706
0.0471924
1.09991
0.907203
0.780326
0.482443
0.412508
0.400228
0.387377
0.338717
0.288945
0.237956
0.186375
0.138475
0.10116
0.0745243
0.0565951
0.0463138
0.0397312
0.037528
0.0385871
0.0474586
1.35801
1.20099
1.08761
0.722902
0.516767
0.431057
0.402978
0.356882
0.312266
0.26629
0.219723
0.177098
0.141266
0.111802
0.0888106
0.0721969
0.0589938
0.0498561
0.0494227
0.0549742
3.53981
3.15494
2.18604
1.56101
1.59772
1.77749
1.7676
1.5477
1.24822
1.01297
0.826835
0.690561
0.648631
0.661847
0.699621
0.77073
0.879026
1.02399
1.17476
1.41942
3.15261
2.05134
1.0657
0.993632
1.50617
1.74806
1.72744
1.44824
0.981338
0.637502
0.46199
0.381667
0.384281
0.409435
0.461802
0.545888
0.66298
0.819326
0.983727
1.26685
2.23149
1.04086
0.860124
0.836529
1.48104
1.74305
1.71866
1.40295
0.772692
0.390414
0.28869
0.297873
0.318467
0.351865
0.398999
0.46864
0.568177
0.701183
0.857605
1.17504
1.53192
0.933409
0.781067
0.654746
1.22068
1.69997
1.7938
1.56925
0.714178
0.182366
0.196583
0.227002
0.263804
0.295864
0.324958
0.357043
0.395614
0.448088
0.524471
0.810471
1.5079
1.38432
1.35422
1.06091
0.148695
0.285306
0.305159
0.322152
0.336628
0.345679
0.352524
0.360856
0.374544
0.396892
0.426983
0.552674
1.66971
1.64045
1.64362
1.61719
0.382084
0.398324
0.392152
0.386617
0.381572
0.37974
0.380995
0.384067
0.389136
0.396009
0.401452
0.441273
1.67527
1.64838
1.6438
1.71527
0.418394
0.398224
0.392911
0.388488
0.384566
0.380349
0.3788
0.379532
0.381576
0.384761
0.388369
0.40648
1.47653
1.39117
1.34982
1.50306
0.351695
0.27394
0.286937
0.29526
0.3011
0.30713
0.313782
0.31914
0.324632
0.331422
0.338706
0.357338
1.19738
0.949578
0.750262
0.691088
0.152114
0.382485
0.418629
0.350316
0.0358322
0.066344
0.107736
0.146264
0.180352
0.207285
0.226255
0.241054
0.254638
0.271273
0.28598
0.310598
0.970112
0.616426
0.379827
0.180841
0.28753
0.399211
0.39838
0.273337
0.067494
0.022528
0.0316801
0.0546126
0.0853656
0.115334
0.141826
0.166604
0.191262
0.216069
0.234222
0.262273
0.787533
0.4424
0.279514
0.194002
0.306742
0.392514
0.392807
0.286648
0.110107
0.0323197
0.0190176
0.0227168
0.0339835
0.0530968
0.0772081
0.10614
0.135187
0.159916
0.17956
0.214242
0.661075
0.366737
0.288169
0.222798
0.322535
0.386824
0.388186
0.29534
0.149103
0.0563425
0.02314
0.0175352
0.01922
0.0266378
0.0425492
0.0651635
0.0886139
0.111323
0.13232
0.172313
0.616806
0.370357
0.309358
0.258165
0.335947
0.381979
0.384324
0.301733
0.183568
0.0881307
0.0352206
0.0193956
0.0197769
0.0225105
0.0292621
0.0413256
0.0571474
0.0763668
0.0965569
0.137164
0.626751
0.392827
0.343965
0.290126
0.344842
0.380342
0.380442
0.308539
0.210859
0.119154
0.0552246
0.027499
0.0228727
0.0237045
0.0251043
0.0292488
0.0379527
0.0527688
0.07098
0.107674
0.659035
0.438375
0.388534
0.319128
0.351805
0.381538
0.37907
0.316068
0.23081
0.146385
0.0804358
0.044474
0.0306002
0.0257133
0.0250722
0.0257421
0.0294684
0.0400941
0.0540797
0.084623
0.72359
0.513696
0.450272
0.349862
0.360022
0.384626
0.379923
0.321659
0.246486
0.172014
0.110836
0.0685943
0.0439369
0.0308355
0.0260989
0.0262928
0.0291126
0.0349349
0.0436749
0.0676965
0.826404
0.62198
0.538617
0.386111
0.37235
0.389563
0.382118
0.326922
0.260527
0.197909
0.141227
0.0937549
0.0613385
0.0409543
0.0312104
0.0296273
0.0306927
0.0331137
0.0374287
0.0548945
0.967013
0.769192
0.658246
0.433113
0.392461
0.396616
0.385405
0.333503
0.277584
0.223348
0.167632
0.118577
0.0822486
0.0576422
0.0436648
0.0370961
0.0339267
0.034303
0.0373488
0.0495589
1.1165
0.932236
0.803496
0.49821
0.419414
0.402448
0.389097
0.340864
0.292051
0.241783
0.188528
0.140739
0.103992
0.0775459
0.0593743
0.0478089
0.0399503
0.0382493
0.0399052
0.0503729
1.36488
1.21916
1.11602
0.754467
0.533703
0.438334
0.407242
0.360452
0.316451
0.270605
0.224128
0.182191
0.14655
0.11665
0.0926404
0.0747882
0.0606419
0.0530398
0.0530818
0.0584294
3.51874
3.09679
2.27933
1.6352
1.62133
1.78151
1.77143
1.55519
1.25969
1.02622
0.834342
0.705321
0.666171
0.677073
0.711709
0.782436
0.892516
1.03731
1.18488
1.42327
3.08278
2.24006
1.16017
1.02836
1.50477
1.75007
1.73105
1.45472
0.990249
0.650798
0.468569
0.392473
0.398431
0.425644
0.478503
0.563792
0.682019
0.840579
1.0021
1.27828
2.33193
1.14528
0.881199
0.852089
1.48623
1.74423
1.72307
1.41087
0.782735
0.40388
0.301863
0.307743
0.327228
0.363896
0.416374
0.491754
0.59459
0.731124
0.887366
1.19639
1.61842
0.969402
0.796404
0.66463
1.23104
1.70258
1.7991
1.57495
0.725161
0.191412
0.206492
0.237268
0.272243
0.304365
0.335796
0.371345
0.414881
0.474523
0.562208
0.863719
1.54092
1.38385
1.35958
1.06635
0.157097
0.290345
0.311217
0.329243
0.342141
0.350382
0.358662
0.369373
0.385968
0.411922
0.447092
0.591511
1.67591
1.64408
1.64845
1.61988
0.382752
0.401711
0.395383
0.38987
0.384653
0.384353
0.386001
0.389448
0.394854
0.401866
0.408407
0.460146
1.67986
1.65272
1.65099
1.71817
0.418079
0.400647
0.395758
0.391186
0.386678
0.382697
0.382579
0.383488
0.385754
0.388994
0.393072
0.416487
1.4845
1.39897
1.36094
1.50838
0.350925
0.276076
0.290015
0.298065
0.303629
0.310475
0.317961
0.323466
0.328654
0.335329
0.343655
0.365322
1.20794
0.960258
0.764475
0.722539
0.149989
0.385387
0.419552
0.350417
0.0390932
0.06882
0.109847
0.149453
0.184958
0.211904
0.230859
0.244563
0.258353
0.277457
0.293006
0.317611
0.978903
0.626925
0.392577
0.185566
0.289085
0.400311
0.398283
0.275512
0.0718965
0.0241764
0.033674
0.0579892
0.0902757
0.121067
0.146363
0.170629
0.197024
0.223632
0.241299
0.268376
0.790117
0.444662
0.28913
0.200089
0.309144
0.393623
0.392917
0.289031
0.114426
0.034701
0.021317
0.0253119
0.0373522
0.0557545
0.0803678
0.111697
0.142044
0.168384
0.187469
0.220916
0.670112
0.374231
0.294886
0.229483
0.326044
0.387907
0.38824
0.296876
0.153869
0.0605997
0.0259715
0.0202044
0.0215078
0.0290254
0.0465693
0.0713773
0.0966264
0.119898
0.139388
0.179539
0.631864
0.379918
0.315317
0.263064
0.338399
0.382756
0.383996
0.302329
0.188754
0.0940637
0.039307
0.021893
0.0222666
0.0259471
0.0338308
0.0472671
0.0641029
0.0822573
0.102699
0.144605
0.642293
0.404215
0.352288
0.295064
0.346822
0.382146
0.38019
0.309424
0.215433
0.125363
0.0588795
0.0304147
0.0265633
0.0268464
0.0279612
0.0325223
0.0414183
0.0570379
0.0769204
0.115336
0.675422
0.451944
0.400124
0.325606
0.354798
0.383565
0.380039
0.317516
0.234362
0.150815
0.0842961
0.0492617
0.0355912
0.0285798
0.0264853
0.0271322
0.0315272
0.0438791
0.0597959
0.0922415
0.743741
0.531173
0.46634
0.359222
0.364338
0.386766
0.381118
0.323281
0.248146
0.175328
0.116367
0.0754759
0.0505271
0.0344776
0.027558
0.0278029
0.0312992
0.0381741
0.048525
0.0737974
0.851985
0.644242
0.558724
0.398771
0.378772
0.392045
0.383567
0.328439
0.262197
0.20234
0.147797
0.102194
0.0689963
0.0450888
0.033437
0.0318413
0.0330898
0.0365811
0.0420208
0.0604579
0.996417
0.801278
0.685006
0.450469
0.40161
0.399369
0.387219
0.335328
0.281466
0.229689
0.175423
0.126887
0.0888885
0.0625641
0.0477686
0.0406644
0.037576
0.0385618
0.0420243
0.0555421
1.14432
0.966146
0.83716
0.524236
0.432842
0.406342
0.391852
0.344124
0.29704
0.247834
0.195392
0.147608
0.110755
0.0840559
0.0654601
0.0531442
0.0447373
0.0430555
0.0449268
0.0564385
1.37924
1.24015
1.14667
0.799643
0.563542
0.452258
0.415168
0.366856
0.322397
0.275995
0.230195
0.189486
0.154571
0.124736
0.100525
0.0814451
0.0665786
0.0597001
0.059507
0.0649675
3.45201
3.01947
2.36533
1.70725
1.64864
1.77917
1.76799
1.55774
1.26928
1.03647
0.842295
0.720522
0.684532
0.694734
0.729334
0.800414
0.911222
1.05369
1.19635
1.42332
2.99299
2.45596
1.27128
1.06445
1.49776
1.74376
1.7276
1.4572
1.00456
0.6683
0.478899
0.407735
0.414952
0.442863
0.496301
0.5828
0.702259
0.861319
1.01844
1.28223
2.41738
1.27359
0.908755
0.872956
1.48221
1.73815
1.72189
1.41615
0.803246
0.424978
0.317113
0.319649
0.338748
0.378051
0.433718
0.512253
0.616246
0.755631
0.910361
1.20518
1.71215
1.01405
0.824456
0.676839
1.23923
1.70222
1.79767
1.5748
0.761199
0.202199
0.217882
0.248059
0.28116
0.313154
0.346254
0.384353
0.431292
0.497023
0.595393
0.905224
1.58582
1.38888
1.36615
1.07584
0.161252
0.299275
0.32095
0.338729
0.349598
0.356978
0.365541
0.377224
0.395262
0.423611
0.462961
0.624158
1.6825
1.64833
1.65766
1.62759
0.392259
0.410972
0.403444
0.397096
0.391766
0.390374
0.391434
0.393723
0.397962
0.404198
0.411481
0.474777
1.68363
1.65542
1.66402
1.72818
0.427186
0.40952
0.403556
0.397758
0.392368
0.388542
0.386519
0.386874
0.388012
0.390184
0.394177
0.422357
1.49044
1.40455
1.37173
1.52054
0.358992
0.284774
0.297893
0.304665
0.309364
0.315562
0.321841
0.326846
0.331553
0.337537
0.345355
0.368245
1.21497
0.966783
0.774808
0.710648
0.165186
0.384192
0.418576
0.350577
0.0409242
0.0729798
0.115506
0.15699
0.191551
0.217885
0.236256
0.248746
0.262761
0.281098
0.295045
0.319788
0.986221
0.637172
0.407257
0.194866
0.291648
0.40022
0.398484
0.278149
0.0758458
0.0266768
0.0370505
0.0629632
0.0963705
0.126974
0.151987
0.176602
0.202687
0.228628
0.245357
0.271879
0.796822
0.450907
0.303074
0.210472
0.313542
0.393521
0.393392
0.292448
0.119615
0.0381958
0.0245938
0.0290844
0.0410117
0.0596476
0.0863456
0.118596
0.149221
0.175891
0.193578
0.226108
0.684886