/*--------------------------------*- C++ -*----------------------------------*\
  =========                 |
  \\      /  F ield         | OpenFOAM: The Open Source CFD Toolbox
   \\    /   O peration     | Website:  https://openfoam.org
    \\  /    A nd           | Version:  9
     \\/     M anipulation  |
\*---------------------------------------------------------------------------*/
FoamFile
{
    format      ascii;
    class       volScalarField;
    location    "0.008";
    object      rho.Air;
}
// * * * * * * * * * * * * * * * * * * * * * * * * * * * * * * * * * * * * * //

dimensions      [1 -3 0 0 0 0 0];

internalField   nonuniform List<scalar> 
9720
(
0.00334509
0.00287951
0.00235449
0.00167829
0.00156967
0.00167375
0.00167874
0.00149037
0.00125734
0.000993856
0.000739261
0.000556353
0.000430049
0.00031282
0.000269148
0.00027788
0.000307859
0.000372388
0.000470191
0.00073328
0.00285297
0.00243103
0.00136027
0.00107729
0.00142349
0.00165488
0.00166202
0.00143226
0.00101261
0.00053562
0.000277981
0.000167666
0.000111777
7.45646e-05
6.95128e-05
7.29348e-05
8.35613e-05
0.000106234
0.000141937
0.000239143
0.00236647
0.00136367
0.000954902
0.000908892
0.00143165
0.00170685
0.00170652
0.00142587
0.000755311
0.000182406
7.45342e-05
4.43178e-05
3.158e-05
2.33985e-05
2.17217e-05
2.23644e-05
2.46444e-05
2.98093e-05
3.88506e-05
6.84492e-05
0.00168817
0.00106308
0.000889349
0.000600384
0.000957516
0.00143986
0.00153055
0.00134566
0.000609119
1.9475e-05
1.10703e-05
9.00955e-06
7.96177e-06
7.1247e-06
6.9608e-06
7.11512e-06
7.68315e-06
8.87826e-06
1.10416e-05
2.08398e-05
0.00155065
0.00139286
0.00141245
0.000955616
2.41012e-05
5.42735e-06
5.28128e-06
5.17896e-06
5.05394e-06
5.00161e-06
5.05232e-06
5.20573e-06
5.49343e-06
5.97044e-06
6.64963e-06
9.7726e-06
0.00163481
0.00161621
0.00168742
0.00138702
1.03439e-05
6.49025e-06
6.01498e-06
5.6392e-06
5.39043e-06
5.20284e-06
5.18465e-06
5.20967e-06
5.27356e-06
5.40143e-06
5.57184e-06
6.76286e-06
0.00163694
0.00162488
0.00169248
0.00148158
1.04896e-05
6.21215e-06
5.81207e-06
5.49178e-06
5.25025e-06
5.0832e-06
4.97756e-06
4.94318e-06
4.95606e-06
5.01418e-06
5.11922e-06
5.72201e-06
0.00145008
0.00140037
0.00140724
0.00129103
8.26051e-06
4.13969e-06
4.11668e-06
4.06848e-06
3.99534e-06
3.98754e-06
4.00029e-06
4.04707e-06
4.12203e-06
4.21518e-06
4.33571e-06
4.78472e-06
0.00121728
0.000979409
0.000724016
0.000528727
1.94001e-05
1.13442e-05
1.164e-05
9.05445e-06
8.62863e-07
1.09517e-06
1.61407e-06
2.06713e-06
2.40373e-06
2.68934e-06
2.92136e-06
3.08293e-06
3.24248e-06
3.42971e-06
3.59791e-06
4.04537e-06
0.000960362
0.00052022
0.000179649
1.69115e-05
5.41391e-06
6.49844e-06
6.21026e-06
4.2015e-06
1.15544e-06
3.86711e-07
5.15562e-07
8.2174e-07
1.22508e-06
1.60567e-06
1.92118e-06
2.20038e-06
2.46024e-06
2.74574e-06
2.97654e-06
3.42877e-06
0.000714382
0.000271565
7.39101e-05
1.01041e-05
5.18128e-06
5.87985e-06
5.6787e-06
4.10947e-06
1.69472e-06
5.25068e-07
3.23784e-07
3.92623e-07
5.61786e-07
8.05584e-07
1.11951e-06
1.46453e-06
1.80548e-06
2.14361e-06
2.39352e-06
2.87454e-06
0.000535162
0.000161109
4.20441e-05
8.31257e-06
5.00672e-06
5.42362e-06
5.2803e-06
4.00292e-06
2.1291e-06
8.46526e-07
4.00063e-07
3.10292e-07
3.30182e-07
4.38712e-07
6.60405e-07
9.69656e-07
1.2917e-06
1.60083e-06
1.86603e-06
2.39043e-06
0.000412064
0.000107156
2.97139e-05
7.38534e-06
4.82527e-06
5.13782e-06
4.98824e-06
3.86686e-06
2.42759e-06
1.25513e-06
5.80614e-07
3.35182e-07
3.37109e-07
3.64484e-07
4.58171e-07
6.47391e-07
8.83117e-07
1.15903e-06
1.42699e-06
1.95488e-06
0.000296495
7.08382e-05
2.22096e-05
6.6531e-06
4.74638e-06
4.92447e-06
4.79877e-06
3.81488e-06
2.67269e-06
1.63099e-06
8.32045e-07
4.54529e-07
3.72497e-07
3.65458e-07
3.79433e-07
4.52058e-07
6.03569e-07
8.4338e-07
1.09179e-06
1.58158e-06
0.000250749
6.32271e-05
1.98762e-05
6.50952e-06
4.79767e-06
4.90617e-06
4.67898e-06
3.82398e-06
2.87441e-06
1.92491e-06
1.13854e-06
6.82679e-07
4.81488e-07
3.90329e-07
3.80511e-07
4.00262e-07
4.72777e-07
6.47312e-07
8.50252e-07
1.2846e-06
0.000258001
6.59233e-05
2.02989e-05
6.6566e-06
4.94842e-06
4.93593e-06
4.67621e-06
3.86601e-06
3.01166e-06
2.17764e-06
1.46685e-06
9.88676e-07
6.81334e-07
4.82814e-07
4.09644e-07
4.19615e-07
4.74012e-07
5.62338e-07
6.83309e-07
1.04184e-06
0.0002849
7.49112e-05
2.21208e-05
7.18869e-06
5.22787e-06
5.01012e-06
4.69777e-06
3.93876e-06
3.15116e-06
2.41845e-06
1.79122e-06
1.30699e-06
9.2199e-07
6.44694e-07
5.00514e-07
4.82295e-07
5.01798e-07
5.54992e-07
6.40584e-07
9.31752e-07
0.000345464
9.55231e-05
2.65797e-05
8.28933e-06
5.6921e-06
5.15421e-06
4.77033e-06
4.03998e-06
3.32908e-06
2.69052e-06
2.1228e-06
1.6202e-06
1.19573e-06
8.7434e-07
6.76058e-07
5.91082e-07
5.6958e-07
5.9019e-07
6.60125e-07
9.41028e-07
0.000440116
0.000129173
3.47238e-05
1.02363e-05
6.35087e-06
5.34098e-06
4.89185e-06
4.17388e-06
3.49855e-06
2.91881e-06
2.37807e-06
1.88569e-06
1.45304e-06
1.10448e-06
8.66625e-07
7.26083e-07
6.70743e-07
6.79187e-07
7.32231e-07
9.80712e-07
0.000700409
0.00022149
6.17933e-05
1.9249e-05
9.41765e-06
6.57034e-06
5.54882e-06
4.65902e-06
3.96907e-06
3.39236e-06
2.87366e-06
2.40673e-06
1.96638e-06
1.58364e-06
1.29381e-06
1.07429e-06
9.6881e-07
9.74206e-07
1.00268e-06
1.16548e-06
0.00348986
0.00313859
0.00259344
0.00179991
0.00164042
0.00175153
0.00177247
0.00159162
0.00130699
0.000917988
0.000599472
0.000398635
0.000282247
0.000196072
0.000169635
0.000176431
0.000197606
0.000244606
0.000321843
0.000548379
0.0031145
0.00294767
0.00166414
0.00141933
0.00157525
0.00197174
0.00204409
0.00170547
0.001038
0.000357117
0.000147745
8.57529e-05
5.59452e-05
3.95238e-05
3.90349e-05
4.1659e-05
4.88825e-05
6.36973e-05
8.80776e-05
0.000157318
0.00262913
0.00167027
0.00146146
0.00242625
0.00368105
0.00354766
0.00321646
0.0026282
0.000692673
6.53819e-05
2.58651e-05
1.77805e-05
1.39131e-05
1.13408e-05
1.12023e-05
1.17288e-05
1.33799e-05
1.67466e-05
2.24754e-05
4.16133e-05
0.00181964
0.00137852
0.00213504
0.00321193
0.00929246
0.00950053
0.00817365
0.00760005
0.00105888
2.60462e-06
2.9018e-06
3.25875e-06
3.50916e-06
3.64829e-06
3.81857e-06
4.09218e-06
4.58921e-06
5.43554e-06
6.80478e-06
1.29347e-05
0.00162981
0.00153559
0.00331549
0.00842381
1.41187e-05
1.88793e-06
2.16248e-06
2.44101e-06
2.68001e-06
2.88956e-06
3.11443e-06
3.38189e-06
3.70702e-06
4.13777e-06
4.66141e-06
6.7647e-06
0.00171313
0.00194034
0.00346164
0.010355
2.09318e-06
2.40216e-06
2.6697e-06
2.89586e-06
3.09373e-06
3.27031e-06
3.44414e-06
3.61725e-06
3.80065e-06
4.00779e-06
4.19378e-06
5.09405e-06
0.00172632
0.00203456
0.0032269
0.00962637
2.50809e-06
2.59232e-06
2.83442e-06
3.03808e-06
3.2076e-06
3.35376e-06
3.48874e-06
3.61994e-06
3.75162e-06
3.89785e-06
4.0412e-06
4.56005e-06
0.00155048
0.00171938
0.00267125
0.00913748
2.28481e-06
1.90185e-06
2.15367e-06
2.36316e-06
2.53621e-06
2.71536e-06
2.89786e-06
3.0679e-06
3.2208e-06
3.37835e-06
3.53939e-06
3.96337e-06
0.00127008
0.00101792
0.000657029
0.000984689
5.52677e-06
1.61061e-06
1.92856e-06
1.71941e-06
2.56645e-07
5.13075e-07
8.70295e-07
1.24035e-06
1.5805e-06
1.8856e-06
2.14761e-06
2.35267e-06
2.55814e-06
2.80682e-06
3.01472e-06
3.43289e-06
0.000884371
0.000338177
6.04023e-05
1.33592e-06
1.41254e-06
1.91224e-06
2.04654e-06
1.51475e-06
4.7533e-07
2.03556e-07
2.87093e-07
5.13113e-07
8.25743e-07
1.14054e-06
1.41763e-06
1.6902e-06
1.97921e-06
2.28638e-06
2.51788e-06
2.93561e-06
0.000570523
0.000136279
2.31294e-05
2.06948e-06
1.72198e-06
2.16364e-06
2.28768e-06
1.76209e-06
7.83611e-07
2.76702e-07
2.1476e-07
2.56374e-07
3.74092e-07
5.59748e-07
8.23247e-07
1.14473e-06
1.46831e-06
1.78098e-06
2.01306e-06
2.47324e-06
0.000372907
7.64502e-05
1.5126e-05
2.57944e-06
2.00322e-06
2.38664e-06
2.49692e-06
1.97029e-06
1.09778e-06
4.75197e-07
2.53826e-07
2.22806e-07
2.38758e-07
3.23311e-07
5.08621e-07
7.71153e-07
1.04812e-06
1.3144e-06
1.55644e-06
2.07411e-06
0.000260275
4.92462e-05
1.17376e-05
2.88433e-06
2.23945e-06
2.58261e-06
2.67156e-06
2.14452e-06
1.39464e-06
7.54781e-07
3.62113e-07
2.40503e-07
2.51585e-07
2.94367e-07
3.80102e-07
5.2927e-07
7.15509e-07
9.42294e-07
1.19435e-06
1.7129e-06
0.000177543
3.42991e-05
9.68705e-06
3.06355e-06
2.44444e-06
2.75476e-06
2.82117e-06
2.31974e-06
1.66849e-06
1.0396e-06
5.3098e-07
3.22544e-07
2.95972e-07
3.0653e-07
3.24092e-07
3.77644e-07
4.92817e-07
6.9963e-07
9.33461e-07
1.39543e-06
0.000150688
3.35883e-05
9.55626e-06
3.24763e-06
2.66067e-06
2.92387e-06
2.95941e-06
2.4968e-06
1.90544e-06
1.28789e-06
7.69361e-07
4.94995e-07
3.8403e-07
3.28827e-07
3.20695e-07
3.36878e-07
4.04614e-07
5.65122e-07
7.4824e-07
1.14029e-06
0.00015621
3.57569e-05
9.98941e-06
3.50388e-06
2.91126e-06
3.09633e-06
3.09509e-06
2.65944e-06
2.09468e-06
1.53196e-06
1.06222e-06
7.37176e-07
5.28648e-07
3.89492e-07
3.42587e-07
3.55016e-07
4.10209e-07
4.99223e-07
6.11551e-07
9.3354e-07
0.000174371
4.18944e-05
1.13726e-05
3.95049e-06
3.20886e-06
3.28007e-06
3.23343e-06
2.80939e-06
2.28122e-06
1.79393e-06
1.35788e-06
9.95354e-07
7.06585e-07
5.05125e-07
4.19293e-07
4.17522e-07
4.36576e-07
4.8381e-07
5.61448e-07
8.38989e-07
0.000216277
5.49545e-05
1.42482e-05
4.69521e-06
3.59838e-06
3.48807e-06
3.3866e-06
2.96716e-06
2.50444e-06
2.07379e-06
1.64913e-06
1.25098e-06
9.21767e-07
6.97229e-07
5.76043e-07
5.18027e-07
4.95716e-07
5.12188e-07
5.75594e-07
8.46577e-07
0.000287276
7.69002e-05
1.928e-05
5.88915e-06
4.07193e-06
3.67443e-06
3.53437e-06
3.12479e-06
2.69663e-06
2.29158e-06
1.87381e-06
1.48159e-06
1.15414e-06
9.12282e-07
7.45256e-07
6.34992e-07
5.85668e-07
5.91535e-07
6.40049e-07
8.79112e-07
0.000501626
0.000139501
3.61944e-05
1.13581e-05
6.02434e-06
4.53617e-06
4.05288e-06
3.54074e-06
3.10382e-06
2.69839e-06
2.31044e-06
1.96047e-06
1.63551e-06
1.35049e-06
1.11932e-06
9.36865e-07
8.6591e-07
8.74366e-07
9.00803e-07
1.05197e-06
0.00376885
0.00389633
0.00340235
0.00219891
0.00185476
0.00199565
0.00201434
0.00186524
0.00124096
0.000546194
0.000238141
0.000121882
7.48689e-05
4.95555e-05
4.65985e-05
4.96854e-05
5.78008e-05
7.53831e-05
0.000106868
0.000213273
0.00387631
0.0045451
0.00235751
0.00204311
0.00244221
0.00328934
0.00348017
0.00306996
0.000593919
7.11343e-05
2.58751e-05
1.61823e-05
1.03708e-05
9.20764e-06
9.71939e-06
1.11729e-05
1.39087e-05
1.89457e-05
2.74748e-05
5.3172e-05
0.00351857
0.00239695
0.00317804
0.00496252
0.00590711
0.00612024
0.00650262
0.00450322
0.00014203
4.85668e-06
3.18153e-06
2.85515e-06
2.93144e-06
3.11731e-06
3.45721e-06
4.00252e-06
4.84066e-06
6.16255e-06
8.16507e-06
1.47141e-05
0.00227266
0.00203257
0.00450827
0.0198299
0.0104375
0.0111768
0.0242429
0.000826542
1.27355e-05
8.06564e-07
1.08759e-06
1.40385e-06
1.71855e-06
2.00167e-06
2.26089e-06
2.54385e-06
2.93975e-06
3.46872e-06
4.15633e-06
6.75879e-06
0.00189364
0.00259044
0.00466687
0.000455841
6.76335e-07
1.96462e-06
2.15316e-06
2.3179e-06
2.45633e-06
2.57101e-06
2.69391e-06
2.84837e-06
3.04381e-06
3.31782e-06
3.67088e-06
4.91692e-06
0.00194612
0.00332095
0.00667678
0.0261915
2.2189e-06
2.92858e-06
2.94707e-06
2.97978e-06
3.03029e-06
3.09696e-06
3.18595e-06
3.29396e-06
3.40687e-06
3.53604e-06
3.65634e-06
4.23642e-06
0.00195452
0.00357742
0.00694637
0.027058
2.75081e-06
3.18191e-06
3.19078e-06
3.21217e-06
3.24564e-06
3.29098e-06
3.35413e-06
3.43543e-06
3.52284e-06
3.62156e-06
3.71913e-06
4.0781e-06
0.00181456
0.00320861
0.00484386
0.000608174
2.52827e-06
2.34708e-06
2.45388e-06
2.54031e-06
2.62669e-06
2.73945e-06
2.8613e-06
2.96749e-06
3.07623e-06
3.21125e-06
3.35862e-06
3.70637e-06
0.00122745
0.000592872
0.000136545
1.04284e-05
6.58126e-07
1.86722e-06
2.2937e-06
2.0801e-06
3.1371e-07
6.26002e-07
9.9398e-07
1.35681e-06
1.68348e-06
1.93755e-06
2.13537e-06
2.30407e-06
2.48782e-06
2.73604e-06
2.94063e-06
3.297e-06
0.000544486
6.69406e-05
4.40987e-06
5.67035e-07
1.61052e-06
2.41176e-06
2.6101e-06
1.93446e-06
5.62454e-07
2.24496e-07
3.22225e-07
5.61186e-07
8.62517e-07
1.15171e-06
1.41213e-06
1.68344e-06
1.98613e-06
2.28452e-06
2.4894e-06
2.85622e-06
0.000229622
2.32639e-05
2.66904e-06
8.07992e-07
1.75028e-06
2.40626e-06
2.59641e-06
2.01643e-06
8.68055e-07
3.05597e-07
2.12747e-07
2.48428e-07
3.65257e-07
5.54712e-07
8.23321e-07
1.16832e-06
1.49367e-06
1.77523e-06
1.9929e-06
2.4327e-06
0.000113244
1.39999e-05
2.21297e-06
1.06855e-06
1.87287e-06
2.41884e-06
2.60556e-06
2.08245e-06
1.16554e-06
5.06437e-07
2.4134e-07
2.1512e-07
2.32758e-07
3.20242e-07
5.16871e-07
7.81685e-07
1.04664e-06
1.30169e-06
1.53564e-06
2.06849e-06
6.71405e-05
8.5488e-06
2.26338e-06
1.32238e-06
1.97604e-06
2.44634e-06
2.62589e-06
2.15148e-06
1.43618e-06
7.65176e-07
3.42221e-07
2.32029e-07
2.45109e-07
2.95099e-07
3.81388e-07
5.24314e-07
7.05508e-07
9.21742e-07
1.18211e-06
1.7404e-06
4.23717e-05
7.26647e-06
2.41852e-06
1.55305e-06
2.0614e-06
2.48874e-06
2.65633e-06
2.23981e-06
1.64916e-06
1.01571e-06
5.07276e-07
3.09033e-07
2.93673e-07
3.09128e-07
3.27743e-07
3.79811e-07
4.82701e-07
6.84624e-07
9.36184e-07
1.43574e-06
3.83495e-05
7.67472e-06
2.70382e-06
1.76626e-06
2.15152e-06
2.54984e-06
2.70101e-06
2.33658e-06
1.81182e-06
1.23514e-06
7.40144e-07
4.80017e-07
3.71991e-07
3.27555e-07
3.29686e-07
3.44197e-07
4.08438e-07
5.70779e-07
7.63973e-07
1.17951e-06
4.08096e-05
8.84858e-06
3.14341e-06
1.98904e-06
2.26492e-06
2.63168e-06
2.76349e-06
2.42252e-06
1.94877e-06
1.46142e-06
1.03924e-06
7.1371e-07
5.00246e-07
3.78264e-07
3.47363e-07
3.5926e-07
4.15767e-07
5.11608e-07
6.37336e-07
9.72188e-07
4.74809e-05
1.10923e-05
3.81797e-06
2.29882e-06
2.41315e-06
2.7245e-06
2.83586e-06
2.51222e-06
2.09879e-06
1.71457e-06
1.32363e-06
9.51549e-07
6.63934e-07
4.76419e-07
4.1837e-07
4.22999e-07
4.43446e-07
4.95468e-07
5.77072e-07
8.59922e-07
6.22729e-05
1.52957e-05
4.88429e-06
2.72441e-06
2.62297e-06
2.8327e-06
2.9216e-06
2.6251e-06
2.29563e-06
1.96535e-06
1.57304e-06
1.18352e-06
8.65008e-07
6.64764e-07
5.75589e-07
5.27898e-07
5.06345e-07
5.24401e-07
5.85403e-07
8.63092e-07
8.93487e-05
2.25397e-05
6.5339e-06
3.27087e-06
2.90461e-06
2.93901e-06
3.00961e-06
2.74882e-06
2.45775e-06
2.14013e-06
1.76573e-06
1.39678e-06
1.0999e-06
8.93207e-07
7.5142e-07
6.51464e-07
5.98137e-07
6.00204e-07
6.44804e-07
8.96008e-07
0.000182672
4.45702e-05
1.20106e-05
5.4202e-06
3.95632e-06
3.43566e-06
3.33053e-06
3.05522e-06
2.76651e-06
2.45962e-06
2.14466e-06
1.85482e-06
1.58596e-06
1.33888e-06
1.12634e-06
9.4424e-07
8.78394e-07
8.88319e-07
9.18232e-07
1.08734e-06
0.00355213
0.00414573
0.00447035
0.00315934
0.00262602
0.00243343
0.00223878
0.00205829
0.000803519
0.00012637
3.65095e-05
1.73092e-05
9.76263e-06
6.42829e-06
6.59644e-06
7.48001e-06
9.22877e-06
1.25254e-05
1.84537e-05
4.03985e-05
0.00411253
0.0103511
0.0136512
0.00989236
0.00819861
0.00800901
0.00714127
0.00563035
0.000100079
6.04237e-06
3.566e-06
2.93859e-06
2.45198e-06
2.56942e-06
2.93572e-06
3.60637e-06
4.53161e-06
5.82531e-06
7.66432e-06
1.29589e-05
0.00453421
0.0140263
0.0144086
0.00869726
0.00849248
0.00929432
0.00973195
0.00637686
1.19527e-05
9.92772e-07
1.15448e-06
1.42477e-06
1.74853e-06
2.14926e-06
2.63738e-06
3.19625e-06
3.82914e-06
4.56694e-06
5.4364e-06
7.46477e-06
0.00322988
0.0105818
0.00917751
0.000358173
0.000893199
0.00248188
0.0281522
0.00036591
5.69963e-07
1.00751e-06
1.34184e-06
1.71723e-06
2.09033e-06
2.39438e-06
2.62089e-06
2.85033e-06
3.16238e-06
3.61976e-06
4.2195e-06
6.02023e-06
0.00260341
0.00867308
0.00929362
0.00072141
1.40229e-06
2.70576e-06
2.88516e-06
3.03193e-06
3.15361e-06
3.23858e-06
3.31489e-06
3.41661e-06
3.56713e-06
3.78985e-06
4.09177e-06
5.18892e-06
0.00229668
0.00796904
0.00976555
0.0132682
3.30327e-06
4.05569e-06
4.01369e-06
3.96542e-06
3.9174e-06
3.91746e-06
3.93755e-06
3.98637e-06
4.05516e-06
4.13416e-06
4.20586e-06
4.65447e-06
0.00208027
0.00687692
0.00960295
0.0292916
4.02185e-06
4.36121e-06
4.32207e-06
4.27834e-06
4.22699e-06
4.17322e-06
4.16788e-06
4.18006e-06
4.2079e-06
4.24954e-06
4.3026e-06
4.55941e-06
0.00188731
0.00531059
0.00653631
0.000486584
3.62328e-06
3.15482e-06
3.27032e-06
3.34218e-06
3.40179e-06
3.47363e-06
3.55015e-06
3.60379e-06
3.66499e-06
3.75791e-06
3.86896e-06
4.1615e-06
0.000897483
0.000100433
7.82572e-06
3.93088e-07
1.08537e-06
2.64769e-06
3.22776e-06
2.90067e-06
3.90985e-07
7.68701e-07
1.25735e-06
1.72025e-06
2.12442e-06
2.42698e-06
2.6289e-06
2.79529e-06
2.96774e-06
3.19293e-06
3.38728e-06
3.73043e-06
0.000148316
7.79523e-06
7.94898e-07
7.78692e-07
2.11691e-06
3.17242e-06
3.41695e-06
2.5113e-06
7.04975e-07
2.64044e-07
3.82314e-07
6.74419e-07
1.0437e-06
1.38848e-06
1.70568e-06
2.02974e-06
2.36172e-06
2.67437e-06
2.88702e-06
3.25487e-06
4.09805e-05
3.9743e-06
9.48295e-07
1.0271e-06
2.25522e-06
3.13974e-06
3.38682e-06
2.61505e-06
1.09671e-06
3.62995e-07
2.38724e-07
2.79275e-07
4.11625e-07
6.50432e-07
9.79906e-07
1.38408e-06
1.76647e-06
2.06376e-06
2.29595e-06
2.76247e-06
1.925e-05
3.15391e-06
1.18285e-06
1.30375e-06
2.36532e-06
3.10038e-06
3.35406e-06
2.67347e-06
1.46094e-06
6.09126e-07
2.72247e-07
2.30006e-07
2.55096e-07
3.59672e-07
5.85399e-07
8.95188e-07
1.19398e-06
1.47537e-06
1.7522e-06
2.33887e-06
9.98153e-06
2.2641e-06
1.43898e-06
1.58454e-06
2.45947e-06
3.06447e-06
3.3187e-06
2.71858e-06
1.78352e-06
9.27162e-07
3.84825e-07
2.52705e-07
2.675e-07
3.20835e-07
4.18657e-07
5.75464e-07
7.75858e-07
1.03841e-06
1.34136e-06
1.97161e-06
5.52052e-06
2.2129e-06
1.74553e-06
1.8077e-06
2.52674e-06
3.06681e-06
3.28878e-06
2.7737e-06
2.02949e-06
1.22268e-06
5.87709e-07
3.38366e-07
3.17378e-07
3.36138e-07
3.66173e-07
4.26373e-07
5.46853e-07
7.75645e-07
1.05411e-06
1.62678e-06
5.38747e-06
2.38965e-06
2.07875e-06
1.9939e-06
2.58686e-06
3.08635e-06
3.28987e-06
2.83799e-06
2.19658e-06
1.47682e-06
8.5908e-07
5.22774e-07
3.98362e-07
3.63765e-07
3.70864e-07
3.94712e-07
4.70262e-07
6.42335e-07
8.5139e-07
1.32959e-06
5.89011e-06
2.82533e-06
2.47011e-06
2.18023e-06
2.66549e-06
3.12969e-06
3.30586e-06
2.89199e-06
2.32806e-06
1.72679e-06
1.19048e-06
7.84332e-07
5.30819e-07
4.14469e-07
3.94788e-07
4.11477e-07
4.71387e-07
5.69949e-07
7.10063e-07
1.10731e-06
7.19123e-06
3.50269e-06
2.93922e-06
2.42511e-06
2.78079e-06
3.1914e-06
3.33631e-06
2.95306e-06
2.46535e-06
1.98858e-06
1.51543e-06
1.05204e-06
7.06989e-07
5.20192e-07
4.69374e-07
4.74417e-07
4.94606e-07
5.44879e-07
6.34072e-07
9.55802e-07
9.81645e-06
4.49551e-06
3.49575e-06
2.77639e-06
2.9514e-06
3.26496e-06
3.38064e-06
3.03936e-06
2.64424e-06
2.25219e-06
1.78682e-06
1.31104e-06
9.40136e-07
7.20093e-07
6.25555e-07
5.7812e-07
5.52114e-07
5.69685e-07
6.39167e-07
9.39844e-07
1.46863e-05
5.96336e-06
4.16041e-06
3.22354e-06
3.17929e-06
3.33207e-06
3.43442e-06
3.13809e-06
2.79943e-06
2.43713e-06
1.9942e-06
1.55362e-06
1.20144e-06
9.62429e-07
8.10447e-07
7.07875e-07
6.47679e-07
6.49746e-07
6.96337e-07
9.64216e-07
3.3363e-05
1.03811e-05
5.77154e-06
4.59321e-06
4.04713e-06
3.7004e-06
3.66541e-06
3.39576e-06
3.08883e-06
2.75326e-06
2.38509e-06
2.03932e-06
1.72922e-06
1.45085e-06
1.2179e-06
1.0317e-06
9.38291e-07
9.43171e-07
9.7128e-07
1.16166e-06
0.00163208
0.00164184
0.00146827
0.00116029
0.0010019
0.000877695
0.000792839
0.000728986
0.000301568
4.04273e-05
1.16802e-05
6.16515e-06
3.72104e-06
2.7948e-06
2.93702e-06
3.38348e-06
4.09461e-06
5.11044e-06
6.57277e-06
1.18931e-05
0.00165791
0.00268042
0.00263609
0.00252904
0.00246671
0.00259786
0.00247759
0.00190881
1.92223e-05
2.2697e-06
2.10603e-06
1.97663e-06
2.02621e-06
2.20742e-06
2.55297e-06
3.14198e-06
3.85594e-06
4.6709e-06
5.53604e-06
7.50226e-06
0.00150849
0.00266845
0.00467685
0.00507388
0.00675346
0.00695343
0.00731287
0.00497966
4.11796e-07
8.2572e-07
1.16389e-06
1.47725e-06
1.82079e-06
2.2373e-06
2.75424e-06
3.41671e-06
4.14547e-06
4.91942e-06
5.72985e-06
7.16532e-06
0.00121276
0.00240285
0.00488254
0.00148991
0.00224804
3.5981e-09
0.0218189
0.00041277
5.67394e-07
1.19871e-06
1.61643e-06
2.06558e-06
2.51818e-06
2.88658e-06
3.16289e-06
3.36535e-06
3.63124e-06
4.04167e-06
4.62607e-06
6.39256e-06
0.00102931
0.00249176
0.00572042
9.59307e-05
1.63654e-06
3.21367e-06
3.42778e-06
3.59927e-06
3.75434e-06
3.86102e-06
3.93765e-06
4.0319e-06
4.17184e-06
4.38258e-06
4.666e-06
5.73383e-06
0.000875831
0.00265998
0.00704004
0.00031629
4.22089e-06
4.83636e-06
4.77882e-06
4.72384e-06
4.66483e-06
4.66136e-06
4.67699e-06
4.71662e-06
4.77313e-06
4.83658e-06
4.8838e-06
5.25818e-06
0.000783358
0.00248771
0.00744179
0.0241588
5.12351e-06
5.23087e-06
5.16438e-06
5.10324e-06
5.04205e-06
4.98568e-06
4.96073e-06
4.96016e-06
4.9661e-06
4.98504e-06
5.01586e-06
5.21187e-06
0.000715868
0.0018795
0.00499856
0.000303138
4.61939e-06
3.76377e-06
3.89138e-06
3.97066e-06
4.04135e-06
4.12182e-06
4.20145e-06
4.25695e-06
4.31517e-06
4.39705e-06
4.49192e-06
4.75822e-06
0.000361719
2.73702e-05
1.87336e-06
4.29722e-07
1.27958e-06
3.27082e-06
3.96613e-06
3.52634e-06
4.44195e-07
8.94895e-07
1.47673e-06
2.01676e-06
2.47684e-06
2.84626e-06
3.12791e-06
3.33238e-06
3.50278e-06
3.70597e-06
3.9045e-06
4.27237e-06
5.27037e-05
3.28371e-06
8.55006e-07
9.67692e-07
2.56095e-06
3.82385e-06
4.10371e-06
2.98119e-06
8.11381e-07
2.9676e-07
4.2845e-07
7.51665e-07
1.19888e-06
1.65672e-06
2.04196e-06
2.39825e-06
2.73624e-06
3.07864e-06
3.34821e-06
3.76523e-06
1.43277e-05
2.31217e-06
9.91653e-07
1.2774e-06
2.73522e-06
3.78112e-06
4.06091e-06
3.11371e-06
1.28033e-06
4.04782e-07
2.62131e-07
3.17915e-07
4.94938e-07
7.87527e-07
1.15927e-06
1.58703e-06
2.01626e-06
2.42878e-06
2.71921e-06
3.20371e-06
7.78664e-06
2.16973e-06
1.22778e-06
1.62308e-06
2.86701e-06
3.7395e-06
4.0263e-06
3.19962e-06
1.7145e-06
6.7458e-07
3.07598e-07
2.70226e-07
2.92599e-07
4.0505e-07
6.41916e-07
9.89609e-07
1.39173e-06
1.77867e-06
2.08512e-06
2.68455e-06
4.32233e-06
1.9202e-06
1.51613e-06
1.97406e-06
2.98049e-06
3.69407e-06
3.99936e-06
3.25935e-06
2.07922e-06
1.05202e-06
4.54026e-07
2.88733e-07
2.98024e-07
3.44712e-07
4.53643e-07
6.60689e-07
9.35627e-07
1.25171e-06
1.57443e-06
2.24011e-06
2.61751e-06
1.98406e-06
1.85725e-06
2.25339e-06
3.05665e-06
3.68817e-06
3.96524e-06
3.311e-06
2.37037e-06
1.43516e-06
6.95319e-07
3.76252e-07
3.41135e-07
3.64532e-07
4.24611e-07
5.21297e-07
6.71146e-07
9.1346e-07
1.20383e-06
1.84757e-06
2.57343e-06
2.1789e-06
2.26205e-06
2.46017e-06
3.11232e-06
3.69957e-06
3.94047e-06
3.36905e-06
2.6023e-06
1.74817e-06
9.99744e-07
5.63024e-07
4.28304e-07
4.23124e-07
4.43275e-07
4.7483e-07
5.47133e-07
7.1138e-07
9.51181e-07
1.5248e-06
2.80451e-06
2.56817e-06
2.74638e-06
2.62644e-06
3.18591e-06
3.73182e-06
3.94392e-06
3.43195e-06
2.77355e-06
2.03223e-06
1.34921e-06
8.49954e-07
5.95423e-07
5.017e-07
4.73608e-07
4.85491e-07
5.30683e-07
6.3919e-07
8.20041e-07
1.28995e-06
3.31355e-06
3.08617e-06
3.27726e-06
2.84122e-06
3.29692e-06
3.78381e-06
3.95663e-06
3.50139e-06
2.91784e-06
2.30061e-06
1.70874e-06
1.19346e-06
8.20597e-07
6.19521e-07
5.37961e-07
5.33425e-07
5.56717e-07
6.42961e-07
7.49674e-07
1.1003e-06
4.09433e-06
3.69706e-06
3.85146e-06
3.16353e-06
3.4642e-06
3.84753e-06
3.98331e-06
3.57828e-06
3.0803e-06
2.57848e-06
2.0579e-06
1.52416e-06
1.08421e-06
8.18693e-07
6.80204e-07
6.40826e-07
6.47045e-07
6.78313e-07
7.44187e-07
1.01923e-06
5.27091e-06
4.38289e-06
4.46096e-06
3.60224e-06
3.68339e-06
3.9002e-06
4.01942e-06
3.65793e-06
3.23549e-06
2.80548e-06
2.30863e-06
1.78982e-06
1.36039e-06
1.06499e-06
8.81176e-07
7.97263e-07
7.50561e-07
7.48343e-07
7.79699e-07
1.03173e-06
9.84851e-06
6.05241e-06
5.61699e-06
4.9418e-06
4.51098e-06
4.20688e-06
4.20071e-06
3.88892e-06
3.54145e-06
3.16332e-06
2.72397e-06
2.29394e-06
1.91731e-06
1.59816e-06
1.34846e-06
1.16544e-06
1.03143e-06
1.00309e-06
1.0194e-06
1.23476e-06
0.00161416
0.0016431
0.0014777
0.00115963
0.000995294
0.000869701
0.000785956
0.000723006
0.000269524
3.52116e-05
1.06204e-05
5.80251e-06
3.57613e-06
2.77552e-06
2.93463e-06
3.3997e-06
4.1302e-06
5.16743e-06
6.64141e-06
1.19177e-05
0.00163447
0.00265901
0.00263679
0.00257462
0.00244006
0.00255263
0.00244485
0.00190101
1.79189e-05
2.15145e-06
2.02645e-06
1.92992e-06
2.01086e-06
2.21184e-06
2.57654e-06
3.19448e-06
3.93859e-06
4.78327e-06
5.66343e-06
7.61148e-06
0.0014989
0.00265985
0.00468776
0.00506212
0.00695526
0.00691529
0.00720646
0.00495081
8.77982e-07
9.94098e-07
1.19316e-06
1.49147e-06
1.85473e-06
2.29167e-06
2.83038e-06
3.52275e-06
4.28844e-06
5.09608e-06
5.93157e-06
7.35698e-06
0.00121489
0.00240894
0.00493911
0.00158038
0.00615337
0.000144913
0.0170858
0.000217639
5.82393e-07
1.23093e-06
1.67001e-06
2.13903e-06
2.61389e-06
3.0019e-06
3.29397e-06
3.50161e-06
3.77804e-06
4.2062e-06
4.81904e-06
6.64877e-06
0.00103615
0.00256767
0.00581063
1.50448e-06
1.73992e-06
3.30579e-06
3.53432e-06
3.71602e-06
3.88149e-06
3.9921e-06
4.06923e-06
4.16626e-06
4.31268e-06
4.53571e-06
4.83574e-06
5.95968e-06
0.000882701
0.00272407
0.00717798
0.00302006
4.56213e-06
4.99049e-06
4.93122e-06
4.87993e-06
4.82365e-06
4.81844e-06
4.83464e-06
4.87824e-06
4.94211e-06
5.01496e-06
5.0686e-06
5.46359e-06
0.000788297
0.0025146
0.00750021
0.0272448
5.57238e-06
5.41573e-06
5.34406e-06
5.28587e-06
5.23108e-06
5.17447e-06
5.1384e-06
5.14229e-06
5.15704e-06
5.18395e-06
5.2192e-06
5.42575e-06
0.000719326
0.00190306
0.00503341
0.000737824
5.03117e-06
3.91315e-06
4.05717e-06
4.14958e-06
4.2171e-06
4.29131e-06
4.36523e-06
4.43141e-06
4.5081e-06
4.5998e-06
4.69709e-06
4.97108e-06
0.000327073
2.48479e-05
1.89546e-06
3.79152e-07
1.25904e-06
3.72544e-06
4.50287e-06
4.01138e-06
4.95285e-07
9.60527e-07
1.56907e-06
2.13356e-06
2.60723e-06
2.98506e-06
3.2779e-06
3.49039e-06
3.66477e-06
3.879e-06
4.08448e-06
4.46746e-06
4.60001e-05
2.92119e-06
8.92769e-07
1.00095e-06
2.7139e-06
4.06706e-06
4.36318e-06
3.16821e-06
8.46782e-07
3.14872e-07
4.52252e-07
7.92069e-07
1.26916e-06
1.75057e-06
2.14467e-06
2.50673e-06
2.85522e-06
3.21415e-06
3.49903e-06
3.93628e-06
1.27217e-05
2.16451e-06
1.02916e-06
1.34494e-06
2.89306e-06
4.01713e-06
4.30932e-06
3.29228e-06
1.3371e-06
4.22115e-07
2.73534e-07
3.35223e-07
5.24892e-07
8.30314e-07
1.21156e-06
1.64914e-06
2.1016e-06
2.53805e-06
2.84387e-06
3.34809e-06
7.11565e-06
2.09405e-06
1.27176e-06
1.72224e-06
3.03502e-06
3.9698e-06
4.26316e-06
3.36464e-06
1.78713e-06
6.96089e-07
3.2059e-07
2.81998e-07
3.05265e-07
4.21604e-07
6.66258e-07
1.03271e-06
1.45699e-06
1.8595e-06
2.18047e-06
2.79887e-06
4.11784e-06
1.93623e-06
1.57633e-06
2.0954e-06
3.15635e-06
3.92044e-06
4.22095e-06
3.42301e-06
2.17437e-06
1.08699e-06
4.70397e-07
3.00683e-07
3.1004e-07
3.56881e-07
4.74213e-07
6.94622e-07
9.82339e-07
1.31039e-06
1.64225e-06
2.32789e-06
2.59529e-06
2.02396e-06
1.94385e-06
2.39835e-06
3.23926e-06
3.906e-06
4.17621e-06
3.49321e-06
2.48542e-06
1.48316e-06
7.19461e-07
3.90554e-07
3.53987e-07
3.79236e-07
4.37859e-07
5.34593e-07
6.90963e-07
9.41688e-07
1.24661e-06
1.91681e-06
2.5898e-06
2.24117e-06
2.38107e-06
2.62022e-06
3.30136e-06
3.91571e-06
4.14744e-06
3.56688e-06
2.71806e-06
1.81244e-06
1.03633e-06
5.8641e-07
4.52221e-07
4.36891e-07
4.53251e-07
4.83648e-07
5.55786e-07
7.34604e-07
9.90957e-07
1.58589e-06
2.84413e-06
2.65841e-06
2.89904e-06
2.79748e-06
3.3776e-06
3.94639e-06
4.15126e-06
3.61719e-06
2.89869e-06
2.11683e-06
1.4075e-06
8.91661e-07
6.28227e-07
5.14581e-07
4.82976e-07
4.93847e-07
5.48504e-07
6.70922e-07
8.52388e-07
1.33585e-06
3.37237e-06
3.20079e-06
3.45671e-06
3.02039e-06
3.49129e-06
3.99677e-06
4.16405e-06
3.66701e-06
3.04956e-06
2.41021e-06
1.78999e-06
1.24613e-06
8.57013e-07
6.38035e-07
5.49001e-07
5.49615e-07
5.79644e-07
6.61456e-07
7.62435e-07
1.12085e-06
4.15537e-06
3.83416e-06
4.05659e-06
3.35024e-06
3.66495e-06
4.05989e-06
4.18823e-06
3.73942e-06
3.23038e-06
2.70454e-06
2.1453e-06
1.5842e-06
1.13268e-06
8.45524e-07
7.01301e-07
6.65999e-07
6.63668e-07
6.87754e-07
7.57341e-07
1.04538e-06
5.2861e-06
4.52251e-06
4.68483e-06
3.80554e-06
3.89245e-06
4.11283e-06
4.22399e-06
3.82864e-06
3.39414e-06
2.92418e-06
2.40247e-06
1.8648e-06
1.41859e-06
1.1034e-06
9.12437e-07
8.2209e-07
7.6261e-07
7.60515e-07
7.97534e-07
1.06775e-06
9.55864e-06
6.14431e-06
5.82498e-06
5.18386e-06
4.74492e-06
4.42037e-06
4.40761e-06
4.07123e-06
3.69263e-06
3.27909e-06
2.82913e-06
2.38734e-06
1.99227e-06
1.65418e-06
1.39379e-06
1.20184e-06
1.05417e-06
1.0286e-06
1.053e-06
1.28938e-06
0.00354787
0.0041684
0.00449162
0.00315172
0.00256063
0.00239023
0.00221048
0.00202867
0.000694388
0.000103689
3.04916e-05
1.48767e-05
8.34926e-06
5.7061e-06
5.91508e-06
6.78253e-06
8.52946e-06
1.18433e-05
1.76998e-05
3.8696e-05
0.0040869
0.0103697
0.0139177
0.0100361
0.0080663
0.00769194
0.0068995
0.00548667
7.69748e-05
4.87539e-06
3.13372e-06
2.65604e-06
2.37745e-06
2.54513e-06
2.97379e-06
3.69138e-06
4.65431e-06
5.97874e-06
7.79865e-06
1.27749e-05
0.00449571
0.0137364
0.0142588
0.00883075
0.00981448
0.00934511
0.00950373
0.0064378
7.44505e-06
1.11308e-06
1.26146e-06
1.52333e-06
1.85339e-06
2.26851e-06
2.81202e-06
3.47336e-06
4.18784e-06
4.97403e-06
5.86246e-06
7.83682e-06
0.00321432
0.0105483
0.00907931
0.00108249
0.0056672
1.1584e-09
0.0187994
0.000173245
5.84069e-07
1.13911e-06
1.52653e-06
1.95855e-06
2.38466e-06
2.73447e-06
2.98643e-06
3.21504e-06
3.53352e-06
4.00419e-06
4.64718e-06
6.55218e-06
0.00262468
0.00912916
0.00878464
1.31636e-06
1.61672e-06
3.07188e-06
3.28841e-06
3.46203e-06
3.60653e-06
3.69891e-06
3.77469e-06
3.87823e-06
4.03545e-06
4.26776e-06
4.5856e-06
5.74859e-06
0.00230259
0.00835353
0.0101382
0.0067927
4.42654e-06
4.62688e-06
4.57649e-06
4.52239e-06
4.47011e-06
4.46768e-06
4.48665e-06
4.53631e-06
4.60731e-06
4.68945e-06
4.75831e-06
5.22029e-06
0.00208204
0.00710075
0.00982053
0.0309569
5.41172e-06
5.00879e-06
4.95385e-06
4.90015e-06
4.84701e-06
4.79156e-06
4.77474e-06
4.78505e-06
4.81193e-06
4.85513e-06
4.90819e-06
5.1644e-06
0.00189538
0.00547931
0.00655927
0.000192979
4.8845e-06
3.65066e-06
3.78585e-06
3.86717e-06
3.92565e-06
3.99361e-06
4.07475e-06
4.14143e-06
4.21574e-06
4.31957e-06
4.43663e-06
4.73992e-06
0.000713485
7.35919e-05
5.55361e-06
5.04728e-07
1.40006e-06
3.62721e-06
4.39254e-06
3.92647e-06
4.89244e-07
9.23458e-07
1.49621e-06
2.01915e-06
2.4745e-06
2.82422e-06
3.06e-06
3.24711e-06
3.43471e-06
3.67775e-06
3.89227e-06
4.26263e-06
0.000105562
5.10616e-06
9.2246e-07
9.52392e-07
2.50496e-06
3.75174e-06
4.03929e-06
2.943e-06
7.7817e-07
3.02319e-07
4.42617e-07
7.83978e-07
1.22643e-06
1.64268e-06
2.00818e-06
2.36074e-06
2.72206e-06
3.0795e-06
3.32667e-06
3.72863e-06
2.82435e-05
2.92358e-06
1.04883e-06
1.24635e-06