/*--------------------------------*- C++ -*----------------------------------*\
  =========                 |
  \\      /  F ield         | OpenFOAM: The Open Source CFD Toolbox
   \\    /   O peration     | Website:  https://openfoam.org
    \\  /    A nd           | Version:  9
     \\/     M anipulation  |
\*---------------------------------------------------------------------------*/
FoamFile
{
    format      ascii;
    class       volScalarField;
    location    "0.008";
    object      rho.C4;
}
// * * * * * * * * * * * * * * * * * * * * * * * * * * * * * * * * * * * * * //

dimensions      [1 -3 0 0 0 0 0];

internalField   nonuniform List<scalar> 
9720
(
3.45723
3.04015
2.51366
1.79181
1.66952
1.76383
1.7616
1.56142
1.28688
1.05659
0.8619
0.745769
0.708694
0.717839
0.752445
0.825332
0.939494
1.08332
1.22337
1.4437
3.02055
2.64627
1.38438
1.07772
1.45723
1.7108
1.71438
1.45701
1.02203
0.691997
0.496699
0.427152
0.434969
0.464983
0.521902
0.612138
0.736804
0.900261
1.05832
1.31702
2.53671
1.39686
0.935781
0.875639
1.42891
1.70394
1.70741
1.4173
0.823943
0.450299
0.334603
0.335965
0.356877
0.401486
0.461838
0.544081
0.651197
0.794362
0.952639
1.2509
1.80068
1.06778
0.867627
0.710277
1.13309
1.68617
1.78288
1.57124
0.778782
0.213853
0.230843
0.261704
0.296648
0.331814
0.369175
0.410621
0.460138
0.528561
0.630023
0.947469
1.6363
1.40819
1.3828
1.12816
0.174358
0.311053
0.334873
0.353779
0.36608
0.375367
0.385845
0.399754
0.420515
0.451652
0.494392
0.664436
1.7116
1.66204
1.65825
1.63741
0.41023
0.424304
0.417753
0.412855
0.409479
0.409928
0.412292
0.416355
0.422569
0.430763
0.439721
0.508625
1.70484
1.66503
1.6628
1.73958
0.446958
0.423827
0.418719
0.414191
0.410928
0.407912
0.40779
0.408819
0.411006
0.414797
0.4202
0.452142
1.50836
1.40729
1.36922
1.52376
0.378696
0.295182
0.309937
0.318572
0.324747
0.33113
0.33772
0.345008
0.35262
0.360179
0.368464
0.393566
1.23797
0.975882
0.778958
0.700641
0.171795
0.388249
0.422463
0.355497
0.043607
0.0758627
0.121949
0.165772
0.200182
0.227995
0.250229
0.266721
0.283084
0.30058
0.313837
0.341819
1.01464
0.657986
0.426364
0.205248
0.295469
0.401086
0.399505
0.281362
0.0810028
0.0298437
0.0404204
0.0667055
0.102021
0.13615
0.165886
0.193482
0.218914
0.244617
0.263164
0.293753
0.828107
0.473021
0.323545
0.223244
0.319107
0.394423
0.394656
0.296391
0.127455
0.0422365
0.0274754
0.0324289
0.0465421
0.0687554
0.0985754
0.131218
0.162343
0.191549
0.212236
0.248034
0.721877
0.41442
0.324956
0.25303
0.336285
0.389635
0.391044
0.305753
0.169495
0.0708184
0.0338754
0.0277785
0.0296737
0.0395983
0.0597764
0.0875109
0.115896
0.14248
0.165617
0.207442
0.685294
0.423014
0.347377
0.286705
0.347727
0.387864
0.388095
0.312065
0.202629
0.107288
0.050253
0.0305714
0.0308199
0.0333085
0.0413699
0.0578542
0.0786257
0.103053
0.127541
0.170691
0.693422
0.451582
0.393207
0.321888
0.357172
0.388925
0.386991
0.319239
0.229111
0.141564
0.0742443
0.0427388
0.0346108
0.0326956
0.0337993
0.0400938
0.053701
0.0754224
0.0984514
0.138362
0.725867
0.504212
0.450814
0.359048
0.367964
0.391988
0.38761
0.326678
0.249977
0.170368
0.104731
0.0651669
0.0452141
0.0352758
0.0338325
0.0355577
0.0422394
0.0581028
0.0769136
0.112214
0.797214
0.587946
0.52573
0.39778
0.382422
0.397024
0.389795
0.334188
0.265368
0.196949
0.137398
0.0941436
0.0642181
0.0445136
0.0366979
0.0374649
0.042048
0.0495971
0.0607283
0.0899463
0.910947
0.705938
0.622117
0.444494
0.403478
0.404347
0.393565
0.342112
0.280765
0.221636
0.167672
0.12284
0.0865467
0.0605694
0.0463458
0.0431596
0.0445398
0.0483304
0.0547425
0.077268
1.05622
0.86794
0.755444
0.509098
0.43452
0.414135
0.399173
0.35061
0.297599
0.245945
0.195767
0.149722
0.111596
0.0831707
0.0644467
0.0541891
0.0501272
0.0511757
0.0560483
0.0747646
1.19832
1.02796
0.909568
0.603417
0.476678
0.424685
0.406241
0.360064
0.310553
0.263431
0.216119
0.172738
0.135776
0.105866
0.0839186
0.0687247
0.0588171
0.0584372
0.0615637
0.0765564
1.41643
1.28448
1.20389
0.907328
0.644258
0.49624
0.442402
0.387679
0.33953
0.294547
0.252056
0.213901
0.178153
0.14584
0.120358
0.100553
0.085935
0.0806685
0.0803645
0.0862869
3.45036
3.01389
2.3877
1.7089
1.63502
1.75949
1.758
1.5529
1.26985
1.03801
0.842682
0.722916
0.686121
0.695284
0.727475
0.796115
0.905815
1.04897
1.19354
1.42255
2.99671
2.47594
1.27635
1.04449
1.47067
1.72303
1.71926
1.45483
1.00746
0.670881
0.4791
0.408831
0.416497
0.44446
0.496456
0.58091
0.698833
0.857005
1.01592
1.2828
2.42288
1.28409
0.905396
0.854889
1.45595
1.71846
1.71317
1.41508
0.807274
0.426785
0.317699
0.320278
0.340066
0.380457
0.435662
0.512186
0.613746
0.749986
0.902968
1.20153
1.72121
1.02946
0.835029
0.67983
1.20339
1.68163
1.78115
1.56838
0.778155
0.204332
0.219696
0.249582
0.282901
0.315244
0.348219
0.386368
0.432118
0.494911
0.586561
0.88821
1.59843
1.40059
1.37222
1.08601
0.174632
0.305717
0.327497
0.344782
0.355446
0.36297
0.371627
0.38314
0.400704
0.428111
0.465982
0.619794
1.69594
1.65887
1.6615
1.63346
0.404439
0.417812
0.410568
0.40445
0.399187
0.398134
0.399286
0.40169
0.406096
0.412556
0.419741
0.478753
1.69283
1.66016
1.66535
1.73395
0.44095
0.417057
0.411169
0.405249
0.399813
0.395938
0.393976
0.39438
0.395565
0.397863
0.401938
0.428923
1.4978
1.40608
1.37094
1.52311
0.373113
0.289704
0.30312
0.310173
0.314888
0.320927
0.327086
0.332283
0.337311
0.343521
0.351424
0.374237
1.22334
0.968417
0.771154
0.716542
0.172117
0.385025
0.418948
0.350118
0.0431313
0.0731928
0.116518
0.158936
0.19394
0.22054
0.239847
0.253101
0.267344
0.285637
0.299604
0.324738
0.996092
0.641299
0.407876
0.198325
0.294816
0.401168
0.398951
0.279227
0.0786121
0.0274655
0.0377008
0.0636344
0.0974219
0.128931
0.15498
0.180213
0.206327
0.232096
0.249144
0.276361
0.806458
0.456745
0.307806
0.21434
0.316459
0.394108
0.393629
0.293429
0.122926
0.0393549
0.0250342
0.0296116
0.0421481
0.0616025
0.0889265
0.121324
0.151889
0.178819
0.19695
0.230086
0.69374
0.393609
0.31051
0.243298
0.332873
0.388526
0.388698
0.301131
0.163484
0.0672203
0.0307305
0.0240361
0.0255185
0.0344687
0.0537838
0.0800975
0.106331
0.129561
0.149946
0.190109
0.658262
0.401438
0.331008
0.275356
0.343006
0.383794
0.384211
0.306487
0.197024
0.102094
0.045187
0.0262412
0.0267725
0.0303311
0.0383759
0.0528776
0.0706677
0.0910388
0.113279
0.155046
0.667854
0.428187
0.370998
0.307434
0.35062
0.38359
0.38086
0.313225
0.222638
0.133866
0.0662048
0.036936
0.0312917
0.0299428
0.0309846
0.0359914
0.0469837
0.0655946
0.0867101
0.124758
0.700138
0.477339
0.422609
0.339701
0.359253
0.384834
0.380197
0.320158
0.241018
0.159546
0.0942392
0.0580494
0.0411779
0.0319382
0.0298016
0.0309929
0.0367564
0.050903
0.0679756
0.1008
0.768202
0.557106
0.492516
0.375432
0.370565
0.38764
0.380882
0.325406
0.254128
0.184459
0.126908
0.0856319
0.057664
0.0390716
0.0317837
0.0324304
0.0365211
0.0437288
0.0542736
0.0809962
0.876599
0.670009
0.585364
0.418119
0.387538
0.392684
0.382873
0.33083
0.268341
0.210445
0.157377
0.112519
0.0770401
0.0522104
0.0397312
0.0373386
0.0385937
0.0420476
0.0478299
0.0687935
1.01881
0.826871
0.714057
0.476522
0.41394
0.400245
0.386505
0.33794
0.286037
0.235525
0.184084
0.136628
0.0987897
0.0722559
0.0559116
0.047178
0.0434834
0.0443234
0.0485581
0.0651037
1.16175
0.985356
0.864475
0.561745
0.450516
0.40842
0.3918
0.346562
0.299416
0.252148
0.202825
0.157896
0.121594
0.0939431
0.0740065
0.0603066
0.05116
0.0504113
0.0529918
0.0662456
1.38414
1.24548
1.15861
0.851775
0.601128
0.468477
0.421538
0.370833
0.325194
0.280375
0.23695
0.198484
0.163642
0.132934
0.108511
0.0896159
0.0757526
0.0704004
0.0695326
0.0749287
3.51718
3.09848
2.30706
1.64197
1.60925
1.76725
1.76135
1.55028
1.26212
1.03048
0.836636
0.70981
0.669718
0.67907
0.710412
0.777149
0.884567
1.02823
1.17665
1.4173
3.08438
2.2618
1.16795
1.02171
1.47944
1.73165
1.71981
1.44845
0.994095
0.656065
0.471737
0.396907
0.403596
0.430518
0.480137
0.56098
0.675284
0.83071
0.993946
1.27233
2.33129
1.15835
0.883272
0.843832
1.45854
1.72532
1.71196
1.4035
0.78706
0.408445
0.306527
0.311944
0.33138
0.368642
0.419894
0.492229
0.590934
0.722691
0.875635
1.18466
1.62649
0.981871
0.806017
0.662492
1.2145
1.68656
1.78699
1.56514
0.750425
0.196739
0.211246
0.241325
0.27557
0.306994
0.337623
0.37287
0.415636
0.473659
0.556767
0.848575
1.55698
1.39762
1.36735
1.07532
0.161442
0.297342
0.317269
0.33411
0.3461
0.354038
0.362282
0.373045
0.389593
0.415367
0.449832
0.589485
1.68948
1.65368
1.65059
1.63047
0.395138
0.407645
0.401145
0.395487
0.39021
0.390098
0.39178
0.395218
0.400539
0.407566
0.414101
0.463468
1.69224
1.65876
1.65339
1.72806
0.430808
0.406563
0.400942
0.395831
0.391026
0.387217
0.387175
0.388237
0.390462
0.393566
0.397664
0.420766
1.4948
1.40558
1.36663
1.51797
0.362843
0.281795
0.294516
0.302076
0.307482
0.314222
0.321412
0.326608
0.33173
0.338517
0.346932
0.368708
1.21767
0.969538
0.776402
0.734591
0.158359
0.386028
0.419697
0.350678
0.040169
0.0708556
0.112607
0.152629
0.187913
0.213889
0.23222
0.246187
0.260408
0.279714
0.294945
0.319642
0.985113
0.631034
0.395866
0.188504
0.289465
0.399542
0.397343
0.275182
0.072526
0.0251468
0.0349902
0.0596662
0.0916384
0.121925
0.147569
0.172543
0.199332
0.225211
0.242316
0.269926
0.794942
0.449998
0.294632
0.202227
0.308785
0.393017
0.391999
0.288606
0.115982
0.0360245
0.0219864
0.0259355
0.0380733
0.0569212
0.0822652
0.113975
0.143806
0.169391
0.188461
0.222617
0.672501
0.378051
0.299411
0.230954
0.325326
0.387359
0.387196
0.29675
0.156056
0.062279
0.0266481
0.0210415
0.0224835
0.030514
0.0484415
0.0729027
0.0977903
0.121044
0.141027
0.181732
0.634238
0.382949
0.317628
0.263907
0.337553
0.38213
0.382939
0.302798
0.190936
0.0955897
0.0403249
0.0229289
0.0233581
0.0267585
0.0341819
0.0475311
0.064701
0.083599
0.104704
0.146647
0.64509
0.407676
0.353305
0.295293
0.345989
0.381862
0.379519
0.310125
0.217218
0.127
0.060675
0.0321134
0.0274092
0.0271981
0.0281354
0.0329377
0.0423952
0.0587216
0.0785318
0.11663
0.67819
0.456197
0.402314
0.325825
0.354238
0.383338
0.379555
0.318036
0.236134
0.153275
0.0871098
0.0514461
0.0360673
0.028761
0.0274768
0.0282186
0.0327717
0.0449788
0.0606751
0.0932417
0.745529
0.535721
0.470582
0.359965
0.3642
0.386738
0.380955
0.323885
0.250526
0.178694
0.119685
0.0775688
0.0511502
0.035034
0.0287437
0.029046
0.0322401
0.0386992
0.0490944
0.0748498
0.851922
0.647982
0.564527
0.400728
0.379301
0.392253
0.383742
0.329608
0.265274
0.205945
0.150626
0.104095
0.0700721
0.0464894
0.0351706
0.0329938
0.0339864
0.0373319
0.0427381
0.0618503
0.993849
0.802498
0.691556
0.454789
0.40315
0.399782
0.387615
0.337057
0.284316
0.232349
0.177708
0.129043
0.0912148
0.0651021
0.0496432
0.0416575
0.0384943
0.0393961
0.0428885
0.0570521
1.1393
0.964451
0.843575
0.532615
0.435894
0.406901
0.392481
0.345978
0.298866
0.249846
0.197876
0.150732
0.113872
0.0864397
0.0669051
0.0541759
0.0457267
0.0441866
0.0461773
0.0580192
1.37224
1.23567
1.15145
0.815778
0.572741
0.456009
0.417073
0.368898
0.323971
0.278312
0.233277
0.192887
0.157189
0.12616
0.101487
0.0826429
0.0682398
0.0617847
0.0612118
0.0666992
3.53755
3.15563
2.2095
1.58003
1.59125
1.76921
1.75994
1.54356
1.24873
1.01458
0.826547
0.693368
0.652076
0.663015
0.696994
0.763974
0.869525
1.01232
1.16268
1.41021
3.14588
2.06399
1.07506
0.996311
1.47764
1.73081
1.71906
1.4431
0.983167
0.638552
0.460799
0.382438
0.387651
0.414084
0.463714
0.543567
0.656631
0.808638
0.97187
1.25729
2.22386
1.05728
0.871364
0.832752
1.44126
1.72406
1.71166
1.39805
0.77672
0.391232
0.289113
0.29846
0.320073
0.355189
0.402704
0.470749
0.567165
0.696317
0.848434
1.16303
1.53461
0.950383
0.805356
0.667683
1.16331
1.68882
1.78923
1.5605
0.705762
0.185177
0.198726
0.22866
0.264932
0.29697
0.326184
0.358264
0.396774
0.448657
0.523116
0.80217
1.52072
1.40526
1.37917
1.11409
0.183989
0.291164
0.310359
0.326671
0.340336
0.348985
0.355851
0.364129
0.37751
0.399529
0.429372
0.553135
1.67989
1.64898
1.64657
1.61797
0.386917
0.402619
0.396593
0.391184
0.386159
0.384708
0.385883
0.388697
0.393409
0.399887
0.40522
0.444224
1.6855
1.65284
1.64534
1.71976
0.4228
0.402356
0.397092
0.392597
0.388112
0.384079
0.382219
0.382752
0.384434
0.387152
0.390484
0.40862
1.48668
1.39787
1.35522
1.50822
0.355455
0.275907
0.288407
0.29664
0.302859
0.309487
0.316068
0.320662
0.325479
0.331856
0.339004
0.358057
1.209
0.961052
0.76298
0.706977
0.160043
0.381678
0.41698
0.348521
0.037898
0.0648659
0.105967
0.145122
0.179775
0.206695
0.225798
0.240987
0.254858
0.271661
0.28612
0.310887
0.977698
0.622187
0.38383
0.180733
0.286036
0.397208
0.396379
0.273661
0.0710811
0.0230487
0.03188
0.0544383
0.0844669
0.113922
0.140871
0.166794
0.192144
0.21668
0.234462
0.262899
0.792994
0.447017
0.281802
0.193379
0.304526
0.390931
0.39122
0.287141
0.113807
0.0335052
0.0195628
0.0228858
0.0336632
0.0526129
0.0774468
0.107087
0.13601
0.160496
0.180199
0.215257
0.6641
0.368676
0.289782
0.221761
0.320243
0.385489
0.386844
0.295588
0.152533
0.0585678
0.0238006
0.0182136
0.0199405
0.0276401
0.0437996
0.0662735
0.0893423
0.112036
0.133262
0.17387
0.616427
0.371121
0.309236
0.25654
0.333784
0.38081
0.383135
0.302163
0.186621
0.0913083
0.03635
0.020241
0.020713
0.0234751
0.029948
0.0417359
0.0575854
0.0771753
0.098054
0.139039
0.626487
0.392828
0.341963
0.287381
0.342549
0.379042
0.379339
0.308962
0.213901
0.12256
0.0570174
0.028747
0.0237523
0.0244336
0.025783
0.0300009
0.0389011
0.054371
0.0726031
0.109398
0.659254
0.438931
0.386386
0.315796
0.349514
0.380235
0.378531
0.316187
0.233475
0.149451
0.0826928
0.0459359
0.0309981
0.0262751
0.0259914
0.0267088
0.0308649
0.041362
0.0551092
0.0861864
0.723829
0.514882
0.449158
0.346262
0.357753
0.383356
0.379441
0.321694
0.248318
0.174582
0.112937
0.0699879
0.044236
0.0313704
0.0270752
0.0274275
0.0299456
0.0352628
0.0443533
0.0691285
0.825903
0.623056
0.538942
0.383307
0.370213
0.3884
0.38148
0.327166
0.262082
0.199686
0.143155
0.0953781
0.0619581
0.0417788
0.032509
0.0305026
0.0312192
0.033564
0.0382459
0.056582
0.966114
0.769791
0.658934
0.431406
0.390603
0.395507
0.38482
0.334241
0.278913
0.225181
0.169873
0.120367
0.0835335
0.0590685
0.0448077
0.037569
0.0343888
0.0349728
0.0382365
0.0510506
1.11552
0.932598
0.805614
0.498465
0.418285
0.4015
0.388764
0.342224
0.293235
0.243617
0.190601
0.142689
0.105686
0.0789322
0.0603873
0.0485193
0.0407073
0.0391925
0.0409504
0.0516328
1.36374
1.21904
1.12077
0.761316
0.536447
0.439359
0.407929
0.362463
0.317932
0.272365
0.22594
0.183998
0.148192
0.117936
0.0937033
0.075786
0.0619937
0.0548098
0.0542335
0.059608
3.56156
3.19453
2.15
1.53042
1.58439
1.77106
1.76201
1.54167
1.24077
1.00352
0.819334
0.684026
0.640919
0.654642
0.692703
0.762087
0.867244
1.0105
1.16106
1.40758
3.18627
1.97305
1.03467
0.984522
1.49213
1.73702
1.72306
1.44411
0.976655
0.627689
0.45356
0.374445
0.376818
0.401708
0.453866
0.536538
0.650168
0.80165
0.96383
1.24734
2.16412
1.00886
0.859269
0.832953
1.45823
1.73158
1.71567
1.3995
0.769355
0.381366
0.279134
0.2903
0.312865
0.345927
0.389877
0.454665
0.549429
0.677663
0.830004
1.14561
1.48979
0.929557
0.78764
0.658477
1.17484
1.69211
1.7933
1.56378
0.716954
0.179038
0.192229
0.221417
0.25846
0.290892
0.319172
0.349147
0.385063
0.432574
0.500033
0.766366
1.50271
1.39712
1.36378
1.0976
0.154245
0.286486
0.305587
0.321649
0.336595
0.346889
0.35379
0.361291
0.372555
0.391582
0.41754
0.528511
1.67286
1.64509
1.64654
1.61319
0.38508
0.401203
0.394832
0.389345
0.38433
0.382472
0.383573
0.386184
0.390193
0.395888
0.399984
0.431364
1.67895
1.65014
1.64429
1.7164
0.421707
0.402104
0.39665
0.391782
0.387157
0.38316
0.381047
0.381308
0.382248
0.384328
0.386671
0.400612
1.47915
1.39261
1.34955
1.50376
0.356036
0.274648
0.286644
0.29425
0.300681
0.307594
0.313906
0.318192
0.322422
0.32798
0.334171
0.350861
1.19831
0.950171
0.749469
0.695591
0.153397
0.381086
0.417637
0.347543
0.0364114
0.0630402
0.103494
0.141988
0.175368
0.202711
0.224071
0.239615
0.252078
0.266329
0.280113
0.304551
0.969879
0.613576
0.374833
0.176783
0.285345
0.397506
0.39748
0.272816
0.0697269
0.0219779
0.0303174
0.0512922
0.0811095
0.112537
0.139379
0.164137
0.187425
0.211127
0.230296
0.25877
0.789807
0.442002
0.273975
0.189258
0.304565
0.391273
0.391955
0.286796
0.112377
0.03206
0.0183572
0.0221285
0.0336862
0.0524077
0.076087
0.103398
0.131244
0.159108
0.17933
0.211427
0.659567
0.363748
0.283526
0.217268
0.319603
0.385689
0.387735
0.296144
0.151298
0.0556758
0.0229384
0.0178622
0.0191283
0.0261424
0.0408372
0.0622416
0.0875842
0.11261
0.132313
0.169316
0.608844
0.365426
0.304516
0.252973
0.332932
0.380859
0.384735
0.302689
0.183912
0.0880306
0.0362219
0.0194083
0.0195004
0.0217006
0.0278811
0.0404128
0.0575642
0.0769011
0.0961667
0.134706
0.617589
0.385832
0.33692
0.284179
0.341788
0.378172
0.381336
0.308293
0.210302
0.120931
0.056698
0.0272079
0.0219307
0.0228669
0.0256746
0.0309451
0.0396436
0.0535695
0.0701947
0.106069
0.648809
0.430152
0.379526
0.311909
0.348162
0.378942
0.378622
0.314264
0.231875
0.148147
0.0814855
0.0427992
0.0286755
0.0261006
0.0266918
0.0274962
0.030806
0.0394146
0.0526981
0.0839027
0.71118
0.503538
0.439413
0.340841
0.355779
0.381587
0.378946
0.320379
0.248087
0.172865
0.109368
0.0655928
0.0423232
0.0321987
0.0278815
0.0278705
0.0292031
0.0341481
0.0437801
0.0682173
0.810413
0.608543
0.525595
0.375613
0.366943
0.386116
0.380306
0.326723
0.26134
0.195888
0.138114
0.0925955
0.0607409
0.041859
0.0322019
0.0297146
0.0304108
0.034038
0.0391135
0.0561149
0.948527
0.749176
0.641588
0.420825
0.385429
0.392757
0.383244
0.333124
0.275485
0.219554
0.166675
0.118665
0.0813022
0.0571606
0.0424797
0.0361044
0.0346786
0.0357258
0.0380861
0.0483094
1.10006
0.908431
0.780843
0.481516
0.410266
0.398228
0.386515
0.339406
0.288709
0.239154
0.187701
0.139525
0.101925
0.0753306
0.057191
0.0470414
0.0409696
0.0386825
0.0395411
0.0482088
1.35829
1.20294
1.09227
0.726267
0.516362
0.429958
0.402218
0.356985
0.313522
0.26881
0.221371
0.17804
0.142153
0.11292
0.0898927
0.0730991
0.0601602
0.0509454
0.0500147
0.0554899
3.5614
3.19143
2.1363
1.51922
1.58673
1.77575
1.7646
1.54337
1.24144
1.0039
0.82012
0.683284
0.638245
0.652916
0.693262
0.76487
0.871517
1.0158
1.16613
1.41182
3.18889
1.96644
1.02757
0.979481
1.50032
1.74537
1.72632
1.44524
0.976945
0.628124
0.455447
0.37545
0.376111
0.398997
0.452125
0.53685
0.652485
0.806404
0.969927
1.2531
2.16921
1.00169
0.854723
0.829191
1.4721
1.74036
1.7188
1.40044
0.768427
0.382291
0.280542
0.291625
0.313634
0.345875
0.389551
0.454385
0.550183
0.679979
0.835029
1.15376
1.48866
0.92421
0.782081
0.652071
1.2135
1.69723
1.79416
1.5672
0.711221
0.178793
0.192303
0.221829
0.259398
0.291843
0.319641
0.34907
0.384638
0.432394
0.501008
0.772212
1.49802
1.38983
1.35448
1.05978
0.148322
0.285025
0.30446
0.320575
0.335677
0.345598
0.352043
0.359203
0.370395
0.389687
0.416097
0.528811
1.67064
1.64244
1.64393
1.61591
0.384284
0.399966
0.393515
0.388098
0.383282
0.380437
0.381247
0.383694
0.387804
0.39377
0.398099
0.429975
1.67534
1.64833
1.64328
1.71407
0.421063
0.401108
0.395352
0.390714
0.386542
0.382285
0.379269
0.379508
0.380688
0.38299
0.385414
0.399466
1.47569
1.39043
1.34854
1.50047
0.354597
0.274263
0.287036
0.295346
0.301384
0.307667
0.313347
0.318048
0.323131
0.328857
0.334805
0.351105
1.19525
0.949315
0.751937
0.712777
0.142558
0.382183
0.418797
0.349673
0.0357006
0.0646715
0.10545
0.144259
0.177415
0.204222
0.225233
0.240528
0.25277
0.267281
0.280922
0.305047
0.967999
0.613167
0.376329
0.175191
0.285071
0.398882
0.398734
0.273664
0.0687588
0.022113
0.0305754
0.051948
0.0824548
0.11386
0.140091
0.164387
0.187709
0.21156
0.230605
0.258782
0.788231
0.441172
0.273268
0.188063
0.304304
0.393055
0.393474
0.286901
0.111135
0.0317513
0.0182314
0.022237
0.0340123
0.0526905
0.0760923
0.103155
0.131395
0.159134
0.17906
0.211024
0.658717
0.363992
0.283063
0.216603
0.320204
0.387806
0.389172
0.295229
0.14974
0.0547162
0.0227533
0.0176048
0.0188692
0.0258519
0.0404928
0.0621981
0.0874685
0.111881
0.13156
0.168586
0.609555
0.365788
0.304515
0.252395
0.33431
0.383263
0.385607
0.301897
0.182945
0.0866722
0.0357087
0.019119
0.0192099
0.0213414
0.0277128
0.0402774
0.0570625
0.0761106
0.0952735
0.133813
0.618613
0.386342
0.337955
0.284503
0.34406
0.380894
0.381887
0.309285
0.209956
0.119112
0.0558991
0.0268442
0.0216339
0.0226054
0.0251269
0.0300017
0.0385977
0.0524757
0.0693093
0.105165
0.649915
0.430842
0.381237
0.312696
0.351051
0.3818
0.379962
0.31668
0.230753
0.146417
0.080581
0.0425735
0.0288056
0.0256587
0.0258785
0.0266022
0.0298922
0.0389357
0.0524265
0.0831949
0.712257
0.504326
0.441296
0.342576
0.358817
0.384602
0.380571
0.321766
0.247215
0.171789
0.10901
0.0657608
0.0424464
0.0314125
0.0270235
0.0270193
0.0288304
0.0342657
0.0434568
0.0674654
0.811603
0.609237
0.526811
0.377936
0.36995
0.389125
0.38218
0.326439
0.260691
0.196101
0.138399
0.0922596
0.0602037
0.0410984
0.0314164
0.0293066
0.0302391
0.0334767
0.0380297
0.0548228
0.949314
0.749547
0.642549
0.422933
0.388489
0.395711
0.385053
0.332524
0.276134
0.220374
0.16628
0.117713
0.0808369
0.0564962
0.0420436
0.0359778
0.0340295
0.0347523
0.0371595
0.0474484
1.10004
0.907709
0.781295
0.483292
0.413349
0.401129
0.388331
0.339618
0.289768
0.238681
0.186981
0.138954
0.101532
0.0748151
0.056831
0.0465202
0.0399192
0.0377149
0.0387871
0.0477224
1.35812
1.2015
1.08876
0.724091
0.517798
0.432021
0.403968
0.357833
0.31316
0.267105
0.220441
0.177714
0.141789
0.112245
0.0891877
0.0725246
0.0592782
0.0501107
0.0496877
0.0552962
3.53981
3.15494
2.18604
1.56101
1.59772
1.77749
1.7676
1.5477
1.24822
1.01297
0.826845
0.690578
0.648659
0.661893
0.699695
0.77083
0.879139
1.02412
1.17488
1.41952
3.15261
2.05134
1.0657
0.993632
1.50617
1.74806
1.72744
1.44824
0.981344
0.637532
0.46205
0.381755
0.384411
0.409618
0.462065
0.546239
0.663403
0.819822
0.984258
1.26735
2.23149
1.04086
0.860124
0.836529
1.48104
1.74305
1.71866
1.40295
0.772721
0.390534
0.28887
0.298128
0.318796
0.352278
0.39952
0.469301
0.56898
0.702155
0.858732
1.17631
1.53192
0.933409
0.781067
0.654746
1.22068
1.69997
1.7938
1.56925
0.714219
0.182591
0.196889
0.227395
0.264288
0.296428
0.325596
0.357761
0.396409
0.448982
0.525498
0.81193
1.5079
1.38432
1.35422
1.06091
0.148985
0.285967
0.305871
0.322907
0.337418
0.346493
0.353353
0.361703
0.375421
0.397818
0.427973
0.553921
1.66971
1.64045
1.64362
1.61719
0.383079
0.399352
0.393165
0.387617
0.382559
0.380723
0.381982
0.385061
0.390143
0.397032
0.402488
0.442404
1.67527
1.64838
1.6438
1.71527
0.419612
0.399367
0.394039
0.389601
0.385665
0.381436
0.379881
0.380615
0.382664
0.385855
0.389473
0.407635
1.47653
1.39117
1.34982
1.50306
0.352824
0.274803
0.28784
0.296185
0.302041
0.308089
0.314761
0.320134
0.325638
0.332448
0.339755
0.358449
1.19739
0.949582
0.750285
0.691124
0.152362
0.38331
0.419632
0.35124
0.0359447
0.0665568
0.108086
0.146749
0.18096
0.207984
0.227013
0.241855
0.255483
0.272177
0.286938
0.311643
0.970115
0.616451
0.379923
0.181026
0.288081
0.40006
0.399319
0.274037
0.0676891
0.0225984
0.0317841
0.0547978
0.0856595
0.115733
0.142317
0.167186
0.191941
0.216844
0.235064
0.263217
0.787541
0.44245
0.279659
0.194252
0.307333
0.39335
0.39373
0.287377
0.110415
0.0324191
0.01908
0.0227933
0.0340994
0.0532811
0.0774838
0.106534
0.1357
0.160523
0.180239
0.215055
0.66109
0.366812
0.288379
0.223119
0.323159
0.387649
0.389097
0.296087
0.149515
0.0565138
0.0232147
0.0175929
0.0192851
0.0267319
0.0427079
0.0654168
0.0889596
0.111757
0.132837
0.173
0.616831
0.370469
0.309632
0.25856
0.336598
0.382793
0.385223
0.302494
0.184072
0.0883941
0.0353309
0.0194588
0.0198448
0.0225927
0.0293738
0.0414863
0.0573712
0.0766695
0.0969472
0.137742
0.626791
0.392982
0.344309
0.290588
0.345512
0.381152
0.38133
0.309317
0.211434
0.119501
0.0553944
0.027589
0.022953
0.0237922
0.0251998
0.0293619
0.0381026
0.0529842
0.0712812
0.108155
0.659099
0.438594
0.388964
0.31965
0.352488
0.382351
0.379954
0.316864
0.231433
0.146805
0.0806828
0.0446211
0.0307081
0.0258077
0.0251664
0.0258418
0.0295877
0.0402659
0.054322
0.0850185
0.72368
0.513995
0.450813
0.350447
0.36072
0.385444
0.380808
0.322468
0.247147
0.172507
0.111178
0.0688217
0.0440905
0.0309468
0.0261968
0.0263968
0.0292358
0.0350924
0.0438779
0.0680226
0.826508
0.622341
0.53927
0.386758
0.373069
0.39039
0.383007
0.327742
0.261226
0.198479
0.141664
0.0940636
0.0615489
0.0411013
0.031329
0.0297487
0.0308276
0.0332655
0.0376043
0.0551649
0.96713
0.769622
0.659033
0.433834
0.393216
0.397458
0.3863
0.334339
0.278332
0.223994
0.168149
0.118962
0.0825296
0.0578508
0.043835
0.0372523
0.034077
0.0344603
0.0375253
0.0498098
1.11662
0.93271
0.804416
0.499027
0.420216
0.403301
0.39
0.34172
0.29284
0.242482
0.189107
0.141196
0.10435
0.0778311
0.0596096
0.0480111
0.0401273
0.0384256
0.0400965
0.0506356
1.36497
1.21963
1.1171
0.755618
0.5347
0.439256
0.408186
0.361361
0.317309
0.271389
0.224819
0.182788
0.147065
0.117089
0.0930132
0.075107
0.0609143
0.0532922
0.0533487
0.0587544
3.51877
3.0968
2.27934
1.6352
1.62133
1.78151
1.77143
1.5552
1.25969
1.02622
0.834351
0.705336
0.666195
0.67711
0.711767
0.78251
0.892599
1.0374
1.18497
1.42335
3.0828
2.24006
1.16018
1.02836
1.50477
1.75008
1.73105
1.45472
0.990254
0.650822
0.468613
0.392541
0.398533
0.425788
0.47871
0.564059
0.682337
0.840945
1.00248
1.27862
2.33193
1.14528
0.8812
0.852089
1.48623
1.74423
1.72307
1.41087
0.782758
0.403977
0.302006
0.307946
0.32749
0.364229
0.416801
0.492289
0.595232
0.731889
0.888231
1.19733
1.61842
0.969403
0.796404
0.66463
1.23104
1.70258
1.7991
1.57495
0.725199
0.191601
0.206746
0.237591
0.272637
0.304823
0.336319
0.371933
0.415536
0.475263
0.563062
0.864897
1.54092
1.38385
1.35958
1.06635
0.157351
0.290877
0.311794
0.329856
0.34278
0.351039
0.359334
0.370064
0.386687
0.412686
0.447914
0.592559
1.67591
1.64408
1.64845
1.61988
0.383584
0.402535
0.396198
0.390676
0.38545
0.38515
0.386801
0.390255
0.395671
0.402697
0.409251
0.461086
1.67986
1.65272
1.651
1.71817
0.419097
0.401566
0.396668
0.392085
0.387566
0.383576
0.383458
0.384368
0.386637
0.389883
0.393971
0.417439
1.48451
1.39897
1.36094
1.50838
0.351867
0.276773
0.290747
0.298814
0.304392
0.311258
0.318763
0.324277
0.329473
0.336164
0.344515
0.366241
1.20794
0.960262
0.764492
0.722558
0.150182
0.386077
0.420393
0.351192
0.0391915
0.0689961
0.110133
0.149855
0.185465
0.212482
0.231477
0.245212
0.259042
0.278208
0.293805
0.318477
0.978908
0.626944
0.392655
0.185715
0.289523
0.400989
0.399034
0.276078
0.0720625
0.0242367
0.0337647
0.0581499
0.0905249
0.121399
0.146766
0.17111
0.197599
0.224292
0.242005
0.269158
0.790125
0.444699
0.289247
0.200293
0.309617
0.394293
0.393658
0.289621
0.114682
0.0347878
0.0213746
0.0253804
0.0374532
0.0559085
0.0806017
0.112042
0.14249
0.168906
0.18804
0.221593
0.670125
0.37429
0.295055
0.229744
0.326546
0.388569
0.388971
0.29748
0.154212
0.0607508
0.0260388
0.0202568
0.0215657
0.0291096
0.0467156
0.0716043
0.0969305
0.120272
0.139825
0.180121
0.631886
0.380008
0.315537
0.263383
0.338922
0.383409
0.384718
0.302944
0.189175
0.0942919
0.0394041
0.0219496
0.0223294
0.0260273
0.0339375
0.0474151
0.0643024
0.0825164
0.103035
0.14511
0.642327
0.404341
0.352568
0.295437
0.34736
0.382798
0.380904
0.310056
0.21591
0.125655
0.0590234
0.0304953
0.0266417
0.0269289
0.0280468
0.0326216
0.0415473
0.0572257
0.0771929
0.115769
0.675476
0.452122
0.400476
0.32603
0.355349
0.384221
0.380754
0.318166
0.234871
0.151162
0.0845047
0.0493964
0.0356958
0.0286642
0.0265635
0.0272148
0.0316296
0.0440366
0.0600232
0.0926003
0.743815
0.531412
0.466782
0.359699
0.364902
0.387428
0.381835
0.32394
0.248683
0.175734
0.116662
0.0756829
0.0506699
0.0345756
0.0276393
0.0278911
0.0314096
0.0383183
0.0487107
0.0740875
0.85207
0.644531
0.559255
0.399301
0.379357
0.392715
0.384287
0.329106
0.262766
0.202817
0.148174
0.102467
0.0691841
0.0452164
0.0335386
0.0319494
0.0332109
0.0367182
0.0421801
0.0606987
0.996512
0.801621
0.685644
0.451062
0.402227
0.400051
0.387945
0.336009
0.282085
0.230234
0.175865
0.127218
0.0891303
0.0627458
0.047922
0.0408065
0.0377123
0.0387041
0.0421832
0.0557698
1.14441
0.966516
0.837899
0.524913
0.433504
0.407035
0.392588
0.344826
0.297696
0.24842
0.195878
0.147993
0.111062
0.0843096
0.0656748
0.0533285
0.0448975
0.0432145
0.0450993
0.0566793
1.37932
1.24049
1.14751
0.80059
0.564379
0.453023
0.415947
0.367609
0.32311
0.276646
0.230771
0.189993
0.155018
0.125125
0.100857
0.0817277
0.0668209
0.0599309
0.0597524
0.0652698
3.45209
3.01953
2.36537
1.70727
1.64866
1.7792
1.76802
1.55777
1.2693
1.03649
0.842311
0.72054
0.684555
0.694766
0.729379
0.800469
0.911284
1.05376
1.19642
1.42339
2.99305
2.456
1.27129
1.06446
1.49777
1.74378
1.72762
1.45721
1.00457
0.668322
0.478931
0.407782
0.415023
0.442962
0.496442
0.582975
0.702465
0.861552
1.01868
1.28244
2.41742
1.27361
0.908764
0.872962
1.48222
1.73816
1.7219
1.41616
0.803264
0.425044
0.317208
0.319785
0.338926
0.37828
0.434014
0.512617
0.616678
0.756139
0.910921
1.20575
1.71217
1.01406
0.824462
0.676839
1.23923
1.70222
1.79767
1.5748
0.761214
0.20233
0.218059
0.248283
0.281431
0.313469
0.346614
0.38476
0.431746
0.497537
0.595989
0.906022
1.58585
1.3889
1.36616
1.07584
0.161431
0.299654
0.321356
0.339157
0.350039
0.35743
0.366003
0.3777
0.39576
0.424142
0.463538
0.624902
1.68252
1.64835
1.65767
1.62759
0.392881
0.411561
0.404018
0.397659
0.392319
0.390925
0.391986
0.394279
0.398524
0.40477
0.412065
0.475444
1.68365
1.65544
1.66403
1.72818
0.427954
0.410184
0.404202
0.398389
0.392987
0.389156
0.38713
0.387485
0.388624
0.390799
0.394802
0.423028
1.49046
1.40456
1.37174
1.52054
0.35971
0.285287
0.298422
0.305198
0.309905
0.316115
0.322404
0.327411
0.332126
0.338122
0.345958
0.368893
1.21499
0.966795
0.774824
0.710669
0.165347
0.384698
0.419195
0.351151
0.0409995
0.0731122
0.11572
0.15729
0.191918
0.218296
0.236692
0.249205
0.263251
0.281633
0.29561
0.320402
0.986235
0.637191
0.407315
0.194976
0.291957
0.400693
0.39901
0.278551
0.0759679
0.0267241
0.0371221
0.0630851
0.0965552
0.127216
0.15228
0.176956
0.203108
0.229104
0.245862
0.272439
0.796837
0.450936
0.303157
0.210619
0.313874
0.393984
0.393906
0.292864
0.119801
0.0382636
0.0246406
0.0291391
0.0410892
0.0597646
0.0865274
0.118858
0.149551
0.176272
0.193995
0.226602
0.684903
0.387697
0.305657