/*--------------------------------*- C++ -*----------------------------------*\
  =========                 |
  \\      /  F ield         | OpenFOAM: The Open Source CFD Toolbox
   \\    /   O peration     | Website:  https://openfoam.org
    \\  /    A nd           | Version:  9
     \\/     M anipulation  |
\*---------------------------------------------------------------------------*/
FoamFile
{
    format      ascii;
    class       volScalarField;
    location    "0.008";
    object      rhoE;
}
// * * * * * * * * * * * * * * * * * * * * * * * * * * * * * * * * * * * * * //

dimensions      [1 -1 -2 0 0 0 0];

internalField   nonuniform List<scalar> 
9720
(
6.07779e+06
5.15948e+06
4.33836e+06
3.27726e+06
3.16014e+06
3.24496e+06
3.22814e+06
2.92941e+06
2.51573e+06
2.07939e+06
1.67739e+06
1.46839e+06
1.39856e+06
1.44545e+06
1.55205e+06
1.75275e+06
2.00614e+06
2.34951e+06
2.66195e+06
3.25329e+06
5.11423e+06
4.32251e+06
2.45287e+06
2.07902e+06
2.75961e+06
3.14904e+06
3.14272e+06
2.75433e+06
2.0186e+06
1.36174e+06
969138
864427
923259
1.02645e+06
1.21174e+06
1.47152e+06
1.7875e+06
2.17898e+06
2.5242e+06
3.15542e+06
4.34384e+06
2.45523e+06
1.78038e+06
1.69843e+06
2.65515e+06
3.12955e+06
3.12137e+06
2.66013e+06
1.56052e+06
838458
654983
741132
885881
1.0842e+06
1.33195e+06
1.62628e+06
1.97058e+06
2.3772e+06
2.80979e+06
3.5064e+06
3.26601e+06
2.04554e+06
1.67294e+06
1.4064e+06
2.15735e+06
3.08221e+06
3.23491e+06
2.88395e+06
1.4939e+06
570827
691792
836967
990814
1.13595e+06
1.28366e+06
1.42728e+06
1.60824e+06
1.81547e+06
2.1778e+06
3.04452e+06
3.07896e+06
2.65366e+06
2.55692e+06
2.12353e+06
520905
1.13386e+06
1.23747e+06
1.31814e+06
1.37386e+06
1.4153e+06
1.46413e+06
1.51088e+06
1.58987e+06
1.68998e+06
1.83419e+06
2.33931e+06
3.13867e+06
3.05323e+06
3.04267e+06
2.98749e+06
1.46887e+06
1.54924e+06
1.52562e+06
1.5085e+06
1.49558e+06
1.49555e+06
1.50242e+06
1.51286e+06
1.53399e+06
1.55857e+06
1.59338e+06
1.81974e+06
3.11361e+06
3.04279e+06
3.03378e+06
3.14992e+06
1.61437e+06
1.56013e+06
1.54334e+06
1.52907e+06
1.51755e+06
1.50693e+06
1.5095e+06
1.51468e+06
1.52502e+06
1.54048e+06
1.56218e+06
1.67367e+06
2.82314e+06
2.65686e+06
2.56541e+06
2.78726e+06
1.38521e+06
1.11253e+06
1.17297e+06
1.20888e+06
1.23598e+06
1.25947e+06
1.28626e+06
1.31454e+06
1.33846e+06
1.36675e+06
1.40021e+06
1.48899e+06
2.41553e+06
1.92333e+06
1.46744e+06
1.34134e+06
527160
1.33372e+06
1.46711e+06
1.25135e+06
161713
278375
462574
632666
774190
891204
972133
1.03886e+06
1.10647e+06
1.16717e+06
1.22851e+06
1.33497e+06
1.98697e+06
1.28788e+06
789469
544242
1.0399e+06
1.41159e+06
1.41824e+06
1.02538e+06
294763
102436
145176
240752
378620
520016
641234
749077
859016
955373
1.03641e+06
1.16188e+06
1.60663e+06
920550
628928
656219
1.14031e+06
1.39093e+06
1.4053e+06
1.07752e+06
475046
157943
102342
114661
163907
255830
380045
502681
634874
748448
838286
987592
1.41397e+06
833774
714078
793128
1.21298e+06
1.37489e+06
1.39674e+06
1.11358e+06
624606
264455
126164
96962.4
101088
143922
226301
327578
441806
550275
649353
818153
1.34485e+06
890163
858502
937658
1.26385e+06
1.36784e+06
1.38732e+06
1.14251e+06
752552
397943
184961
109416
106305
114726
152082
213883
298641
398834
493241
665204
1.38821e+06
992629
1.04796e+06
1.07163e+06
1.30477e+06
1.37037e+06
1.38514e+06
1.17092e+06
855409
529306
280495
161117
122034
112335
123706
148476
203132
286002
371059
531057
1.49246e+06
1.16731e+06
1.27584e+06
1.21115e+06
1.35288e+06
1.38007e+06
1.39075e+06
1.20117e+06
928638
637974
400841
249560
168783
129774
129167
138450
164351
220897
290783
432233
1.68825e+06
1.41077e+06
1.5435e+06
1.34362e+06
1.40042e+06
1.39437e+06
1.40125e+06
1.23033e+06
992337
736591
517326
351548
236791
163699
141508
149034
165194
191324
236127
354969
1.94101e+06
1.71001e+06
1.85088e+06
1.51152e+06
1.47848e+06
1.41961e+06
1.41801e+06
1.25346e+06
1.05533e+06
840043
640374
463967
325270
224605
176232
167649
173147
190281
221351
312596
2.28314e+06
2.09463e+06
2.2249e+06
1.70189e+06
1.5759e+06
1.44952e+06
1.43977e+06
1.28498e+06
1.11353e+06
928403
746720
567937
422192
307044
238705
206303
195766
207489
231067
305334
2.5948e+06
2.43301e+06
2.64192e+06
2.0313e+06
1.71455e+06
1.48772e+06
1.46665e+06
1.32057e+06
1.17235e+06
1.0061e+06
833939
662383
514346
391003
309574
259037
229892
237045
249030
308504
3.17553e+06
3.05228e+06
3.32974e+06
2.84744e+06
2.19946e+06
1.71445e+06
1.58988e+06
1.41509e+06
1.27893e+06
1.12987e+06
979239
825616
682919
550988
453376
383356
335213
318950
318424
346148
6.07698e+06
5.12021e+06
4.14483e+06
3.17248e+06
3.12876e+06
3.27807e+06
3.25954e+06
2.94843e+06
2.50704e+06
2.05805e+06
1.65298e+06
1.43247e+06
1.35813e+06
1.40222e+06
1.50337e+06
1.6945e+06
1.93707e+06
2.2768e+06
2.59771e+06
3.20613e+06
5.07891e+06
4.03077e+06
2.32182e+06
2.05417e+06
2.81789e+06
3.22264e+06
3.19843e+06
2.79205e+06
2.01322e+06
1.33343e+06
946095
836533
890136
987014
1.16067e+06
1.40697e+06
1.70874e+06
2.09021e+06
2.43363e+06
3.07761e+06
4.16498e+06
2.31973e+06
1.75683e+06
1.68925e+06
2.75249e+06
3.2214e+06
3.19027e+06
2.70681e+06
1.55064e+06
809435
631387
715900
857564
1.04687e+06
1.28018e+06
1.55692e+06
1.88715e+06
2.27833e+06
2.69908e+06
3.39724e+06
3.16049e+06
2.01277e+06
1.64197e+06
1.37406e+06
2.32017e+06
3.15839e+06
3.2997e+06
2.93439e+06
1.52327e+06
563118
679509
819160
968422
1.10581e+06
1.23899e+06
1.37235e+06
1.54e+06
1.73011e+06
2.06218e+06
2.89658e+06
3.0385e+06
2.6703e+06
2.57787e+06
2.09461e+06
540031
1.14968e+06
1.24513e+06
1.31912e+06
1.36745e+06
1.40086e+06
1.4422e+06
1.48097e+06
1.5472e+06
1.63534e+06
1.76279e+06
2.22244e+06
3.14144e+06
3.08621e+06
3.10033e+06
3.04338e+06
1.50119e+06
1.5724e+06
1.54208e+06
1.51655e+06
1.49466e+06
1.48732e+06
1.48835e+06
1.4918e+06
1.50481e+06
1.52225e+06
1.54878e+06
1.74324e+06
3.12411e+06
3.07404e+06
3.08926e+06
3.19609e+06
1.65141e+06
1.58481e+06
1.56057e+06
1.53728e+06
1.51542e+06
1.50086e+06
1.49423e+06
1.4955e+06
1.50049e+06
1.50899e+06
1.52425e+06
1.61926e+06
2.83337e+06
2.68929e+06
2.61168e+06
2.84076e+06
1.41368e+06
1.12775e+06
1.18071e+06
1.21023e+06
1.23153e+06
1.25284e+06
1.27623e+06
1.29633e+06
1.31011e+06
1.3307e+06
1.3619e+06
1.44298e+06
2.40931e+06
1.93034e+06
1.47202e+06
1.39209e+06
555585
1.38991e+06
1.5291e+06
1.2965e+06
165380
277318
455994
623773
766307
880618
955592
1.01031e+06
1.06987e+06
1.13241e+06
1.19534e+06
1.29199e+06
1.96727e+06
1.26922e+06
768936
542693
1.08826e+06
1.48317e+06
1.48879e+06
1.07018e+06
299176
98839.7
140743
236909
371021
505301
616063
713314
824618
925161
1.00231e+06
1.11361e+06
1.58086e+06
901066
607337
653939
1.1797e+06
1.45182e+06
1.46573e+06
1.11712e+06
479502
150583
94593.6
109156
153937
233832
348950
473059
604702
716877
796083
932469
1.3693e+06
802747
689327
787110
1.24797e+06
1.42652e+06
1.44576e+06
1.14431e+06
630810
258149
117888
87842.4
89991.3
127211
206846
306974
417428
512636
599385
763508
1.29547e+06
852322
828299
927997
1.29201e+06
1.40484e+06
1.42618e+06
1.16764e+06
759760
390673
171342
96415.7
94950.8
106811
143795
201314
274717
357959
447282
616612
1.33686e+06
946346
1.00666e+06
1.05611e+06
1.32411e+06
1.39958e+06
1.41222e+06
1.19287e+06
861103
516956
255244
141340
112994
104203
114632
134448
178600
251773
333393
487878
1.44033e+06
1.11078e+06
1.21992e+06
1.18146e+06
1.36301e+06
1.40031e+06
1.41018e+06
1.2194e+06
927811
618897
369355
227214
158083
119309
114192
119398
142929
195864
260423
392759
1.62984e+06
1.34494e+06
1.47362e+06
1.30514e+06
1.39979e+06
1.40487e+06
1.41264e+06
1.23798e+06
982252
711083
490221
329490
219930
146057
122439
128308
144310
170656
212150
320989
1.87082e+06
1.63424e+06
1.77324e+06
1.45883e+06
1.46179e+06
1.41955e+06
1.42007e+06
1.25081e+06
1.04097e+06
818642
616123
438046
297478
196695
152318
146392
151608
166626
193509
279362
2.20421e+06
2.01045e+06
2.13952e+06
1.63049e+06
1.54426e+06
1.44036e+06
1.4327e+06
1.27486e+06
1.1008e+06
912620
721575
531263
382663
272950
211130
182168
171061
180073
200829
267945
2.51658e+06
2.34529e+06
2.55031e+06
1.93286e+06
1.66406e+06
1.46817e+06
1.45119e+06
1.30768e+06
1.16019e+06
986459
800660
618377
472391
356019
278676
229558
200540
204998
216581
270085
3.1033e+06
2.96875e+06
3.24061e+06
2.72277e+06
2.10264e+06
1.65897e+06
1.55293e+06
1.39092e+06
1.25603e+06
1.09887e+06
938061
781512
641120
512938
415757
344612
297073
280520
278511
302622
6.26956e+06
5.34628e+06
4.1148e+06
3.13657e+06
3.1203e+06
3.34886e+06
3.32025e+06
2.99342e+06
2.53171e+06
2.07585e+06
1.66552e+06
1.42828e+06
1.34625e+06
1.38548e+06
1.48436e+06
1.67825e+06
1.92295e+06
2.26782e+06
2.59511e+06
3.22614e+06
5.303e+06
3.70548e+06
2.22017e+06
2.05818e+06
2.86494e+06
3.29396e+06
3.2527e+06
2.82715e+06
2.01213e+06
1.32889e+06
949754
827357
880498
975107
1.14912e+06
1.39897e+06
1.70739e+06
2.09979e+06
2.46713e+06
3.12924e+06
4.10086e+06
2.1942e+06
1.75365e+06
1.68629e+06
2.79679e+06
3.28668e+06
3.2388e+06
2.72962e+06
1.52944e+06
790702
630544
716827
857325
1.04876e+06
1.2868e+06
1.56795e+06
1.90813e+06
2.30739e+06
2.75466e+06
3.50886e+06
3.06248e+06
1.96665e+06
1.60772e+06
1.36607e+06
2.37677e+06
3.22251e+06
3.36313e+06
2.98103e+06
1.4955e+06
558205
686017
826080
981312
1.12517e+06
1.26187e+06
1.39423e+06
1.55927e+06
1.74314e+06
2.06289e+06
2.92829e+06
3.00346e+06
2.69541e+06
2.60529e+06
2.09947e+06
512047
1.16143e+06
1.25717e+06
1.33523e+06
1.39243e+06
1.42978e+06
1.47238e+06
1.51386e+06
1.58029e+06
1.67056e+06
1.79288e+06
2.23726e+06
3.17922e+06
3.12063e+06
3.11805e+06
3.09288e+06
1.49555e+06
1.59677e+06
1.57227e+06
1.55058e+06
1.52951e+06
1.52733e+06
1.53169e+06
1.54128e+06
1.55846e+06
1.57973e+06
1.60418e+06
1.77616e+06
3.17001e+06
3.11678e+06
3.10836e+06
3.23437e+06
1.65265e+06
1.61071e+06
1.58984e+06
1.57164e+06
1.55413e+06
1.54047e+06
1.54312e+06
1.54809e+06
1.55735e+06
1.57067e+06
1.58709e+06
1.67467e+06
2.86973e+06
2.72582e+06
2.64001e+06
2.87091e+06
1.41129e+06
1.1427e+06
1.19854e+06
1.23457e+06
1.26227e+06
1.29017e+06
1.31526e+06
1.33702e+06
1.35731e+06
1.3817e+06
1.41614e+06
1.49672e+06
2.43215e+06
1.95348e+06
1.4996e+06
1.44985e+06
496217
1.4457e+06
1.5923e+06
1.35109e+06
159090
278736
462114
631290
776143
886679
968532
1.03559e+06
1.10188e+06
1.16981e+06
1.23419e+06
1.3356e+06
1.97631e+06
1.26918e+06
758474
523197
1.1122e+06
1.53998e+06
1.54811e+06
1.09796e+06
279246
94765.2
135815
232736
362782
498345
619251
722838
835652
938306
1.02123e+06
1.14261e+06
1.58069e+06
901367
596412
644734
1.20382e+06
1.51496e+06
1.52852e+06
1.15334e+06
470112
139184
81827.1
98004.4
147038
227592
339036
465241
591993
709591
804480
950617
1.34668e+06
782333
677498
778095
1.27877e+06
1.49299e+06
1.51195e+06
1.19008e+06
636163
244513
101741
81333
86489.6
117404
191789
289010
399720
507047
596694
769401
1.26672e+06
826963
811196
925466
1.33501e+06
1.47188e+06
1.49553e+06
1.21999e+06
774353
376680
158425
90028.6
88949
98217.5
130365
187810
264929
347501
437604
615441
1.30327e+06
916827
990838
1.06381e+06
1.37338e+06
1.46865e+06
1.48185e+06
1.24959e+06
880191
511585
244936
127413
103045
96747.7
104514
126625
167953
236114
318040
480527
1.40622e+06
1.08565e+06
1.21416e+06
1.19653e+06
1.41404e+06
1.47187e+06
1.48417e+06
1.27666e+06
959267
631139
359364
207967
142494
108759
105882
109612
130132
178614
241758
379640
1.60284e+06
1.33223e+06
1.48018e+06
1.32357e+06
1.45206e+06
1.48108e+06
1.49132e+06
1.29856e+06
1.027e+06
734579
485531
310919
205504
137075
113264
115554
128860
154146
197315
305905
1.8479e+06
1.63721e+06
1.80384e+06
1.47825e+06
1.51134e+06
1.49836e+06
1.50277e+06
1.31904e+06
1.09356e+06
844885
612596
424593
288293
186466
140501
131808
135527
151095
176420
257348
2.18671e+06
2.02718e+06
2.18772e+06
1.6457e+06
1.59283e+06
1.52112e+06
1.51806e+06
1.34664e+06
1.15831e+06
944681
730470
533790
379220
262992
196720
165272
155059
164129
182558
242340
2.50578e+06
2.38712e+06
2.63046e+06
1.93953e+06
1.70751e+06
1.54603e+06
1.53626e+06
1.38432e+06
1.21897e+06
1.02542e+06
824509
627053
472344
348621
265163
215167
185568
185316
196869
247313
3.11377e+06
3.03227e+06
3.38558e+06
2.77096e+06
2.13604e+06
1.71216e+06
1.62675e+06
1.46755e+06
1.32035e+06
1.14735e+06
972847
802146
651872
514888
409890
332704
278371
256103
257008
281670
6.35972e+06
5.5105e+06
4.02548e+06
3.07852e+06
3.10648e+06
3.38622e+06
3.34807e+06
3.00882e+06
2.52855e+06
2.06124e+06
1.65388e+06
1.4017e+06
1.32567e+06
1.36449e+06
1.46648e+06
1.66711e+06
1.91517e+06
2.2642e+06
2.59993e+06
3.24662e+06
5.46527e+06
3.42048e+06
2.11355e+06
2.0266e+06
2.87097e+06
3.32095e+06
3.2797e+06
2.84073e+06
2.00001e+06
1.3049e+06
930759
799098
858145
951453
1.12684e+06
1.384e+06
1.70468e+06
2.10507e+06
2.49178e+06
3.17967e+06
3.9892e+06
2.06993e+06
1.75773e+06
1.65846e+06
2.78668e+06
3.30753e+06
3.26526e+06
2.74194e+06
1.51557e+06
759454
610004
700840
842357
1.03301e+06
1.27475e+06
1.5622e+06
1.91592e+06
2.32962e+06
2.80508e+06
3.61749e+06
2.94414e+06
1.92475e+06
1.60831e+06
1.39349e+06
2.30478e+06
3.25681e+06
3.39511e+06
2.99182e+06
1.41895e+06
539931
676569
818636
980905
1.13241e+06
1.27547e+06
1.40553e+06
1.56292e+06
1.7347e+06
2.03779e+06
2.93013e+06
2.95324e+06
2.71936e+06
2.64995e+06
2.19518e+06
754929
1.20047e+06
1.29534e+06
1.37243e+06
1.43681e+06
1.47677e+06
1.51406e+06
1.54909e+06
1.60595e+06
1.68812e+06
1.79924e+06
2.21957e+06
3.19532e+06
3.14203e+06
3.13535e+06
3.08526e+06
1.56142e+06
1.66822e+06
1.63983e+06
1.61412e+06
1.59075e+06
1.58132e+06
1.58276e+06
1.59008e+06
1.60479e+06
1.62438e+06
1.64415e+06
1.78738e+06
3.1856e+06
3.13082e+06
3.12082e+06
3.23819e+06
1.72807e+06
1.68487e+06
1.66166e+06
1.64172e+06
1.62213e+06
1.60567e+06
1.59937e+06
1.60258e+06
1.60941e+06
1.62126e+06
1.63547e+06
1.7082e+06
2.8813e+06
2.73414e+06
2.64232e+06
2.87569e+06
1.47287e+06
1.18149e+06
1.23664e+06
1.27594e+06
1.30883e+06
1.33968e+06
1.3597e+06
1.37477e+06
1.39786e+06
1.42301e+06
1.45433e+06
1.52707e+06
2.4335e+06
1.94366e+06
1.48023e+06
1.40281e+06
571741
1.50411e+06
1.66377e+06
1.40981e+06
156908
263077
454691
634133
782305
891831
978729
1.05863e+06
1.1333e+06
1.19934e+06
1.25394e+06
1.35903e+06
1.97882e+06
1.26114e+06
738765
517408
1.15655e+06
1.61221e+06
1.62614e+06
1.14723e+06
285608
91377.3
130572
223361
345934
477962
614210
737082
848785
943484
1.02711e+06
1.16135e+06
1.58497e+06
904025
586964
648151
1.24788e+06
1.58443e+06
1.60503e+06
1.20342e+06
481026
135914
74028.4
86250.7
134269
220404
336517
462090
580963
689714
798125
961987
1.33469e+06
764440
673019
782718
1.32229e+06
1.56104e+06
1.58727e+06
1.24378e+06
656925
238943
89393.6
70577.8
82895.5
114430
181261
271430
370927
484274
592660
774585
1.24589e+06
811416
806513
936522
1.38595e+06
1.54121e+06
1.57127e+06
1.2799e+06
800217
370480
145168
84740.8
86916.3
91861
116964
167660
242723
338468
433885
612233
1.28089e+06
897206
985530
1.08022e+06
1.42644e+06
1.53197e+06
1.55551e+06
1.31123e+06
906952
507714
239966
120983
94473.1
90205.3
96205.2
117725
162553
232800
308937
469714
1.37722e+06
1.06512e+06
1.21124e+06
1.21799e+06
1.46348e+06
1.53443e+06
1.55444e+06
1.33118e+06
990326
643112
360445
193239
124808
99627.3
99932.9
106442
127930
170165
226273
362872
1.57127e+06
1.31422e+06
1.47931e+06
1.34058e+06
1.49815e+06
1.54361e+06
1.56104e+06
1.3467e+06
1.06676e+06
763357
486502
289539
181631
126408
109999
112748
121781
141787
181852
290806
1.81306e+06
1.62521e+06
1.81155e+06
1.48995e+06
1.55116e+06
1.56015e+06
1.56972e+06
1.37285e+06
1.13832e+06
868390
605293
396859
264948
179024
137244
124526
124830
136699
161693
243170
2.15562e+06
2.01376e+06
2.19577e+06
1.64732e+06
1.62613e+06
1.5823e+06
1.58375e+06
1.40318e+06
1.20053e+06
960039
719554
518910
370538
257293
186260
151402
140005
148961
168250
224311
2.48862e+06
2.40019e+06
2.65524e+06
1.91552e+06
1.72925e+06
1.60385e+06
1.59945e+06
1.44099e+06
1.25173e+06
1.04195e+06
828580
628951
467778
337209
249110
198928
171328
171365
182825
229914
3.13235e+06
3.08368e+06
3.47085e+06
2.75022e+06
2.12672e+06
1.73983e+06
1.6751e+06
1.51852e+06
1.357e+06
1.17478e+06
989747
808707
648033
505364
395122
318590
264995
238319
239411
264236
6.41356e+06
5.59428e+06
3.94557e+06
2.99946e+06
3.10281e+06
3.40325e+06
3.36184e+06
3.01504e+06
2.5208e+06
2.04553e+06
1.63948e+06
1.38178e+06
1.31075e+06
1.35012e+06
1.45837e+06
1.66758e+06
1.92021e+06
2.27038e+06
2.60747e+06
3.25242e+06
5.55112e+06
3.29911e+06
2.06223e+06
2.00882e+06
2.90735e+06
3.34641e+06
3.29676e+06
2.85308e+06
1.99143e+06
1.28798e+06
914625
778155
839955
931358
1.10993e+06
1.37406e+06
1.70129e+06
2.10469e+06
2.49301e+06
3.18404e+06
3.9048e+06
1.99955e+06
1.75019e+06
1.66428e+06
2.83821e+06
3.33415e+06
3.28452e+06
2.75878e+06
1.50376e+06
738214
594636
688050
827744
1.01146e+06
1.24866e+06
1.53402e+06
1.89182e+06
2.31151e+06
2.80132e+06
3.63377e+06
2.87513e+06
1.88536e+06
1.56468e+06
1.38701e+06
2.34659e+06
3.28367e+06
3.41947e+06
3.0211e+06
1.44032e+06
528066
667073
809176
972069
1.12615e+06
1.27172e+06
1.39835e+06
1.549e+06
1.70913e+06
1.98859e+06
2.86657e+06
2.92347e+06
2.70442e+06
2.62794e+06
2.17151e+06
568489
1.20605e+06
1.30298e+06
1.38028e+06
1.45055e+06
1.49773e+06
1.53555e+06
1.56846e+06
1.61814e+06
1.69047e+06
1.78847e+06
2.17272e+06
3.19584e+06
3.14897e+06
3.15207e+06
3.10831e+06
1.61089e+06
1.69673e+06
1.66722e+06
1.64087e+06
1.6168e+06
1.60533e+06
1.60624e+06
1.61292e+06
1.62505e+06
1.64142e+06
1.65605e+06
1.77278e+06
3.18498e+06
3.13746e+06
3.1328e+06
3.25443e+06
1.7856e+06
1.7247e+06
1.70165e+06
1.67871e+06
1.65612e+06
1.63834e+06
1.63114e+06
1.63274e+06
1.63573e+06
1.64423e+06
1.65389e+06
1.71099e+06
2.87889e+06
2.73581e+06
2.64352e+06
2.88781e+06
1.5265e+06
1.20442e+06
1.25808e+06
1.29455e+06
1.32985e+06
1.3645e+06
1.38347e+06
1.39202e+06
1.41266e+06
1.43527e+06
1.46435e+06
1.52835e+06
2.41906e+06
1.9228e+06
1.45628e+06
1.39045e+06
569959
1.56859e+06
1.74072e+06
1.47107e+06
158643
257088
451491
638295
785548
892766
987292
1.07032e+06
1.1452e+06
1.20699e+06
1.25519e+06
1.35693e+06
1.96826e+06
1.24722e+06
721682
518799
1.18975e+06
1.66315e+06
1.68173e+06
1.17902e+06
289507
88368.6
130403
216753
336153
474182
614320
745758
853878
941464
1.02592e+06
1.16351e+06
1.57905e+06
895611
580881
652590
1.28505e+06
1.63328e+06
1.65775e+06
1.23718e+06
485342
136560
71705.9
82101.2
133351
223320
342006
463839
572634
687748
799940
962344
1.32637e+06
753429
670406
788872
1.35744e+06
1.60673e+06
1.63747e+06
1.28043e+06
672524
235669
85510.4
67047.6
81331.2
114863
176046
258611
362371
483961
601204
773802
1.23664e+06
803952
805761
946236
1.42065e+06
1.58392e+06
1.62168e+06
1.3167e+06
817568
366128
143953
82802.3
87331.3
90705.7
110332
161331
240896
344898
440484
607983
1.26988e+06
889412
985294
1.0933e+06
1.46089e+06
1.56959e+06
1.60643e+06
1.34462e+06
918760
508604
242328
120333
92469.5
86743.5
95472.7
121364
170304
239870
307833
462739
1.35988e+06
1.05523e+06
1.21303e+06
1.23368e+06
1.49551e+06
1.56952e+06
1.59711e+06
1.35995e+06
1.0082e+06
648251
367207
187252
116919
98923.9
101698
112010
132562
167430
218353
355492
1.54924e+06
1.30133e+06
1.48063e+06
1.35415e+06
1.52805e+06
1.57621e+06
1.59985e+06
1.37341e+06
1.08837e+06
777864
492090
277409
173873
129340
115171
118697
122084
137898
178779
289553
1.78722e+06
1.61032e+06
1.81059e+06
1.49842e+06
1.57677e+06
1.59029e+06
1.60466e+06
1.40389e+06
1.16238e+06
882527
602815
388196
259198
183860
141198
125266
122400
137515
165212
246269
2.12714e+06
1.98951e+06
2.1914e+06
1.65033e+06
1.64631e+06
1.61053e+06
1.61668e+06
1.43239e+06
1.2198e+06
966146
717926
513687
368990
260094
183794
147481
140552
150313
170226
217282
2.46661e+06
2.37962e+06
2.64281e+06
1.89904e+06
1.74053e+06
1.6295e+06
1.62967e+06
1.46407e+06
1.2634e+06
1.0473e+06
829900
631175
467566
333590
240229
193942
173878
172629
183213
220825
3.13415e+06
3.08452e+06
3.46723e+06
2.7023e+06
2.10676e+06
1.74544e+06
1.69285e+06
1.53206e+06
1.36836e+06
1.18585e+06
992136
804819
639833
495341
384518
312186
264203
228241
227671
252916
6.4117e+06
5.58654e+06
3.92179e+06
2.97798e+06
3.10985e+06
3.4145e+06
3.36758e+06
3.0194e+06
2.52263e+06
2.04788e+06
1.64216e+06
1.37787e+06
1.30542e+06
1.34778e+06
1.46055e+06
1.67431e+06
1.93085e+06
2.28328e+06
2.61864e+06
3.26109e+06
5.55596e+06
3.28714e+06
2.04945e+06
2.00098e+06
2.92554e+06
3.36491e+06
3.30306e+06
2.85636e+06
1.99298e+06
1.29022e+06
919803
777360
837815
928161
1.10902e+06
1.377e+06
1.70814e+06
2.11652e+06
2.50508e+06
3.19449e+06
3.91215e+06
1.98765e+06
1.74355e+06
1.66274e+06
2.86268e+06
3.35357e+06
3.29081e+06
2.76201e+06
1.50309e+06
740427
597495
691571
829299
1.00966e+06
1.24626e+06
1.53272e+06
1.89386e+06
2.31861e+06
2.8158e+06
3.6548e+06
2.87301e+06
1.87514e+06
1.55202e+06
1.37626e+06
2.41295e+06
3.3104e+06
3.42305e+06
3.03274e+06
1.4311e+06
527755
667550
810553
974778
1.12881e+06
1.27352e+06
1.39858e+06
1.54791e+06
1.70872e+06
1.99319e+06
2.88749e+06
2.91443e+06
2.69088e+06
2.6126e+06
2.10038e+06
544405
1.19897e+06
1.29742e+06
1.37508e+06
1.44637e+06
1.49225e+06
1.52849e+06
1.56027e+06
1.60949e+06
1.68293e+06
1.78275e+06
2.17424e+06
3.19372e+06
3.14566e+06
3.14783e+06
3.12526e+06
1.61072e+06
1.69079e+06
1.6604e+06
1.63469e+06
1.61205e+06
1.59697e+06
1.59709e+06
1.60338e+06
1.61614e+06
1.63383e+06
1.64944e+06
1.76865e+06
3.17733e+06
3.13331e+06
3.13089e+06
3.25064e+06
1.79552e+06
1.71947e+06
1.69591e+06
1.67376e+06
1.6534e+06
1.63508e+06
1.62434e+06
1.62601e+06
1.63044e+06
1.63973e+06
1.64969e+06
1.70722e+06
2.87205e+06
2.7315e+06
2.64119e+06
2.88321e+06
1.53175e+06
1.20221e+06
1.25851e+06
1.29843e+06
1.33305e+06
1.36492e+06
1.38056e+06
1.39031e+06
1.41538e+06
1.43927e+06
1.46723e+06
1.52992e+06
2.41454e+06
1.92231e+06
1.46182e+06
1.42824e+06
488890
1.59119e+06
1.7648e+06
1.49754e+06
155643
267045
461179
649691
796533
900757
992434
1.07415e+06
1.14853e+06
1.21219e+06
1.25894e+06
1.35892e+06
1.96504e+06
1.24832e+06
724548
513475
1.18987e+06
1.67205e+06
1.69077e+06
1.18498e+06
285183
88864.1
132156
220269
342682
480730
618567
747860
856518
944219
1.02734e+06
1.16368e+06
1.57516e+06
893339
581051
649510
1.28646e+06
1.64405e+06
1.66815e+06
1.24285e+06
480324
135363
71232.5
82593
135004
225248
342274
463020
573712
688011
800121
961666
1.32528e+06
754598
671218
788571
1.36287e+06
1.61922e+06
1.64875e+06
1.28109e+06
667232
231434
84661.7
66178.4
80474.8
113730
174621
258964
362655
483263
599746
770976
1.23924e+06
806140
807943
946909
1.43027e+06
1.59809e+06
1.63086e+06
1.31656e+06
814331
360598
142227
81774.4
86251.9
89402.7
110014
161394
240373
343525
436795
604159
1.27204e+06
892536
990728
1.09764e+06
1.47467e+06
1.58523e+06
1.61391e+06
1.35247e+06
919430
502561
239180
118593
91213.1
85819.8
93694.4
118788
166957
235465
303263
459372
1.36229e+06
1.05915e+06
1.22135e+06
1.24022e+06
1.5123e+06
1.58582e+06
1.60752e+06
1.37496e+06
1.00839e+06
643390
363093
185800
117229
97306.5
99361.4
109008
128651
164849
217471
354068
1.55249e+06
1.30645e+06
1.49087e+06
1.3646e+06
1.54615e+06
1.59337e+06
1.61194e+06
1.38706e+06
1.08912e+06
773722
489832
277536
174062
127295
112132
114648
119908
137999
178066
288276
1.79171e+06
1.61667e+06
1.82048e+06
1.51238e+06
1.59505e+06
1.60755e+06
1.61808e+06
1.40931e+06
1.16232e+06
883522
603965
386803
258402
181505
137477
122789
121140
134648
162002
241680
2.13127e+06
1.99561e+06
2.20157e+06
1.66431e+06
1.66507e+06
1.62768e+06
1.63011e+06
1.43435e+06
1.22415e+06
972387
718289
512575
368139
256559
180688
146524
137502
146827
167782
213841
2.46929e+06
2.38464e+06
2.65354e+06
1.91254e+06
1.75963e+06
1.64652e+06
1.643e+06
1.46911e+06
1.27249e+06
1.05055e+06
829990
629843
465485
330384
239055
192363
170613
169981
179371
218157
3.13614e+06
3.08833e+06
3.4692e+06
2.70574e+06
2.1211e+06
1.75976e+06
1.70594e+06
1.54077e+06
1.37241e+06
1.18235e+06
990274
804111
638606
493220
382937
311081
260961
224878
225844
251976
6.36375e+06
5.50625e+06
3.98705e+06
3.0469e+06
3.12472e+06
3.40583e+06
3.36132e+06
3.01914e+06
2.52843e+06
2.05988e+06
1.65211e+06
1.39146e+06
1.31751e+06
1.36157e+06
1.47203e+06
1.68123e+06
1.93544e+06
2.2892e+06
2.62474e+06
3.26585e+06
5.47879e+06
3.39712e+06
2.10149e+06
2.02808e+06
2.93231e+06
3.35767e+06
3.2928e+06
2.85286e+06
1.99645e+06
1.30329e+06
930722
792126
851162
943499
1.12454e+06
1.38986e+06
1.71847e+06
2.12735e+06
2.51103e+06
3.19462e+06
3.99661e+06
2.0399e+06
1.74155e+06
1.68038e+06
2.86641e+06
3.34791e+06
3.27774e+06
2.75486e+06
1.50536e+06
755010
607422
698439
836728
1.02311e+06
1.26615e+06
1.55986e+06
1.92466e+06
2.35136e+06
2.83883e+06
3.65452e+06
2.93634e+06
1.89002e+06
1.55651e+06
1.37978e+06
2.42186e+06
3.31459e+06
3.41664e+06
3.02778e+06
1.4338e+06
534013
673401
816430
980864
1.13383e+06
1.27955e+06
1.41196e+06
1.57063e+06
1.7456e+06
2.0589e+06
2.97538e+06
2.92836e+06
2.67985e+06
2.60309e+06
2.10093e+06
541425
1.18453e+06
1.2836e+06
1.36399e+06
1.43258e+06
1.4753e+06
1.51359e+06
1.54933e+06
1.60804e+06
1.69223e+06
1.80497e+06
2.23462e+06
3.1831e+06
3.13332e+06
3.13886e+06
3.11712e+06
1.59468e+06
1.66244e+06
1.63379e+06
1.60876e+06
1.58595e+06
1.5758e+06
1.57806e+06
1.58676e+06
1.60332e+06
1.62499e+06
1.64498e+06
1.79326e+06
3.16658e+06
3.12259e+06
3.1189e+06
3.24241e+06
1.76783e+06
1.67973e+06
1.65858e+06
1.63902e+06
1.6216e+06
1.60439e+06
1.6e+06
1.60467e+06
1.61329e+06
1.62703e+06
1.64222e+06
1.71581e+06
2.865e+06
2.72473e+06
2.63412e+06
2.88358e+06
1.50563e+06
1.18144e+06
1.23877e+06
1.27846e+06
1.31081e+06
1.33996e+06
1.36014e+06
1.37727e+06
1.40327e+06
1.431e+06
1.46417e+06
1.53664e+06
2.41348e+06
1.9201e+06
1.45237e+06
1.37776e+06
551129
1.57439e+06
1.74745e+06
1.48381e+06
155130
273393
466160
646308
794784
904762
989677
1.06686e+06
1.14112e+06
1.20842e+06
1.26301e+06
1.36721e+06
1.9629e+06
1.25122e+06
730522
527164
1.18039e+06
1.64378e+06
1.65936e+06
1.16326e+06
274514
89744.4
131252
227343
354529
489448
624454
743922
853696
949546
1.03378e+06
1.16659e+06
1.57068e+06
892761
588199
660257
1.27574e+06
1.61425e+06
1.63655e+06
1.22273e+06
470435
131580
72721.5
86698.8
137180
224577
338524
462641
583237
693070
802612
965517
1.33042e+06
763024
677109
798973
1.35155e+06
1.58965e+06
1.61751e+06
1.26374e+06
650607
233469
88225.3
68701.4
80586.5
111260
178327
270582
372572
487222
594775
774218
1.25003e+06
814705
815408
957106
1.41558e+06
1.56848e+06
1.60074e+06
1.29711e+06
798510
363847
142444
81652
83986.2
89583.2
116470
168943
244871
339707
431811
609837
1.28264e+06
903776
1.00119e+06
1.10607e+06
1.45713e+06
1.55952e+06
1.58421e+06
1.32872e+06
909010
501405
233754
116159
92036.7
88809
94969.5
116614
160641
228300
304617
467280
1.37822e+06
1.07216e+06
1.23155e+06
1.24855e+06
1.49488e+06
1.56182e+06
1.57976e+06
1.35279e+06
996593
637642
352613
188537
124610
98691.1
97548
103255
122500
165951
224179
360980
1.57353e+06
1.32185e+06
1.50171e+06
1.37416e+06
1.52994e+06
1.57093e+06
1.58565e+06
1.37169e+06
1.07453e+06
758698
481261
286759
182502
125658
106173
107484
118326
141125
180825
288853
1.81927e+06
1.6368e+06
1.83539e+06
1.52372e+06
1.58319e+06
1.58698e+06
1.59528e+06
1.39594e+06
1.14702e+06
870753
604857
394920
265318
176167
131681
121088
123235
135140
160094
238420
2.16367e+06
2.03019e+06
2.22449e+06
1.68044e+06
1.65854e+06
1.60917e+06
1.60935e+06
1.42222e+06
1.21178e+06
967426
720027
517149
367056
251833
182439
150637
138578
147104
166201
219322
2.49821e+06
2.42237e+06
2.68832e+06
1.94538e+06
1.76e+06
1.63028e+06
1.62417e+06
1.45623e+06
1.26707e+06
1.05125e+06
830920
625986
463988
334153
247382
197851
169999
169198
178991
225122
3.14251e+06
3.1101e+06
3.50941e+06
2.77505e+06
2.15021e+06
1.76083e+06
1.69665e+06
1.53178e+06
1.37208e+06
1.18443e+06
993910
808617
647829
505460
394890
317852
261513
232322
235263
260773
6.26989e+06
5.34099e+06
4.07711e+06
3.13636e+06
3.14881e+06
3.37866e+06
3.33694e+06
3.0039e+06
2.52696e+06
2.06467e+06
1.65638e+06
1.41412e+06
1.33613e+06
1.38055e+06
1.48524e+06
1.68531e+06
1.93385e+06
2.28089e+06
2.60628e+06
3.23459e+06
5.29556e+06
3.66493e+06
2.21586e+06
2.07933e+06
2.91704e+06
3.32954e+06
3.27209e+06
2.83952e+06
2.00347e+06
1.31489e+06
937949
812899
868894
965167
1.14334e+06
1.39808e+06
1.71182e+06
2.10756e+06
2.46561e+06
3.12697e+06
4.09033e+06
2.16999e+06
1.7549e+06
1.71098e+06
2.85422e+06
3.32262e+06
3.26018e+06
2.74513e+06
1.51748e+06
778136
618167
704995
845108
1.03668e+06
1.28072e+06
1.5702e+06
1.9216e+06
2.33442e+06
2.78717e+06
3.53506e+06
3.04138e+06
1.94002e+06
1.58927e+06
1.38526e+06
2.4261e+06
3.2892e+06
3.40097e+06
3.01781e+06
1.44243e+06
548600
679175
821384
980236
1.12908e+06
1.27098e+06
1.40662e+06
1.57486e+06
1.76519e+06
2.10465e+06
2.99584e+06
2.97295e+06
2.66964e+06
2.59141e+06
2.09443e+06
547995
1.15924e+06
1.25909e+06
1.34072e+06
1.40105e+06
1.43936e+06
1.48181e+06
1.52264e+06
1.58917e+06
1.68008e+06
1.80425e+06
2.26526e+06
3.16541e+06
3.11534e+06
3.12726e+06
3.09247e+06
1.5496e+06
1.61073e+06
1.58419e+06
1.56079e+06
1.53756e+06
1.53328e+06
1.53636e+06
1.54472e+06
1.56135e+06
1.58227e+06
1.60546e+06
1.78735e+06
3.14976e+06
3.10749e+06
3.10736e+06
3.23206e+06
1.71028e+06
1.62292e+06
1.60249e+06
1.58397e+06
1.56548e+06
1.54963e+06
1.55011e+06
1.55348e+06
1.56273e+06
1.57547e+06
1.59101e+06
1.6802e+06
2.8558e+06
2.7184e+06
2.63235e+06
2.87106e+06
1.45587e+06
1.14324e+06
1.20359e+06
1.23986e+06
1.2676e+06
1.29567e+06
1.32159e+06
1.34314e+06
1.36232e+06
1.38565e+06
1.42002e+06
1.50047e+06
2.41795e+06
1.93526e+06
1.47432e+06
1.43593e+06
495428
1.53655e+06
1.69239e+06
1.43196e+06
161888
274811
457505
629710
778337
893042
975792
1.04117e+06
1.10701e+06
1.17532e+06
1.24043e+06
1.34055e+06
1.96282e+06
1.26149e+06
752640
528334
1.14054e+06
1.58443e+06
1.59089e+06
1.12663e+06
283786
92481.3
134285
231812
364037
501668
622052
725073
837586
943194
1.02814e+06
1.14719e+06
1.56758e+06
890008
592024
654200
1.2358e+06
1.55584e+06
1.56902e+06
1.18246e+06
473330
136796
81527.3
97742.9
146584
225959
336314
463076
592716
714155
810684
953915
1.34326e+06
776630
676878
791675
1.31265e+06
1.53097e+06
1.55054e+06
1.21611e+06
640909
243264
101190
79181
84000.7
113809
188123
288019
401271
509953
597829
768474
1.26604e+06
825785
817193
944073
1.36963e+06
1.50809e+06
1.53298e+06
1.24279e+06
782852
378207
156107
86527.4
86387
97532.3
132037
190451
267559
347648
435065
614407
1.30022e+06
919340
1.00411e+06
1.0861e+06
1.40772e+06
1.5022e+06
1.51696e+06
1.27287e+06
892761
513276
239672
121501