/*--------------------------------*- C++ -*----------------------------------*\
  =========                 |
  \\      /  F ield         | OpenFOAM: The Open Source CFD Toolbox
   \\    /   O peration     | Website:  https://openfoam.org
    \\  /    A nd           | Version:  9
     \\/     M anipulation  |
\*---------------------------------------------------------------------------*/
FoamFile
{
    format      ascii;
    class       volVectorField;
    location    "0.008";
    object      rhoU;
}
// * * * * * * * * * * * * * * * * * * * * * * * * * * * * * * * * * * * * * //

dimensions      [1 -2 -1 0 0 0 0];

internalField   nonuniform List<vector> 
9720
(
(-1786.8 -1791.89 96.623)
(-1243 -1736.56 93.5146)
(-1034.46 -1766.08 34.6391)
(-957.392 -1685.94 -16.5207)
(-593.355 -1898.1 -12.8727)
(-185.598 -1991.82 -15.3756)
(181.599 -1981.03 -18.9157)
(583.039 -1781.86 -10.7146)
(858.616 -1444.63 -13.3955)
(942.016 -1064.97 -8.20524)
(902.251 -743.053 1.41593)
(866.493 -552.166 -5.23229)
(867.947 -445.629 -6.51248)
(921.929 -395.023 5.12857)
(1001.69 -368.634 17.8421)
(1132.46 -364.235 15.4194)
(1284.24 -378.481 6.28841)
(1488.05 -401.962 4.36629)
(1671.17 -412.145 11.5643)
(2012.41 -453.354 14.3504)
(-1714.06 -1238.83 100.078)
(-1274.3 -1280.41 73.2387)
(-1079.78 -1089.85 -4.05976)
(-830.172 -1145.8 -23.1147)
(-599.588 -1685.36 -10.729)
(-193.239 -1944.72 -14.9993)
(186.825 -1937.49 -11.0185)
(609.134 -1679.95 -9.52241)
(828.5 -1121.16 -1.60207)
(755.909 -621.88 -6.56267)
(622.032 -339.035 2.49951)
(581.687 -240.743 2.58564)
(631.825 -210.738 -0.930064)
(703.768 -197.296 4.03447)
(822.194 -206.116 9.30091)
(987.355 -214.254 12.1495)
(1185.09 -228.727 8.35489)
(1426.25 -238.587 2.12456)
(1634.81 -245.228 6.05663)
(1997.42 -315.76 13.8441)
(-1738.95 -1004.37 61.8542)
(-1087.05 -1073.63 11.5946)
(-872.918 -868.161 -8.32832)
(-712.397 -950.788 -28.5397)
(-626.216 -1596.82 -6.83493)
(-209.102 -1926.41 -10.0432)
(208.516 -1916.67 -7.01105)
(639.615 -1604.84 -6.31865)
(738.983 -810.852 -0.395625)
(529.105 -319.808 -4.0607)
(448.339 -170.436 -5.61507)
(511.993 -152.366 0.951578)
(602.436 -158.007 5.56058)
(724.132 -171.955 -1.27423)
(873.302 -194.517 -9.88261)
(1054.11 -209.685 -15.9062)
(1268.94 -215.251 -9.75026)
(1523.05 -222.006 -9.33119)
(1793.18 -198.529 -11.885)
(2215.25 -219.721 -8.75284)
(-1673.58 -926.889 8.06082)
(-1128.83 -816.793 3.02639)
(-941.524 -697.953 8.79653)
(-726.663 -702.38 -16.7406)
(-718.536 -1274.31 -14.634)
(-371.524 -1875.51 -5.57039)
(84.4733 -1969.83 -15.6228)
(532.848 -1737.58 -5.79378)
(697.853 -798.667 -13.3411)
(377.996 -155.706 -4.70311)
(452.631 -156.455 -8.74937)
(540.43 -171.084 -6.91764)
(632.407 -190.736 -4.20392)
(720.736 -206.625 -6.24003)
(812.23 -218.518 -6.84715)
(905.109 -224.126 -12.5647)
(1020.19 -221.204 -10.5251)
(1156.53 -218.046 -10.182)
(1384.09 -184.426 -13.3805)
(1931.84 -108.584 -13.4556)
(-1850.98 -583.063 -12.3453)
(-1628.03 -583.555 -8.75885)
(-1543.67 -610.883 -1.2555)
(-1263.63 -688.556 -2.74547)
(341.612 -122.083 -7.80258)
(724.595 -145.854 -5.8317)
(786.219 -155.177 -5.41674)
(835.087 -158.62 -7.49323)
(869.068 -156.173 -8.09141)
(894.851 -151 -11.1035)
(924.7 -143.806 -11.3595)
(955.514 -140.008 -9.81274)
(1004.8 -136.076 -10.5834)
(1070.01 -135.261 -11.7465)
(1162.64 -128.656 -12.7493)
(1487.88 -81.6181 -14.268)
(-1937.25 -180.712 -14.7582)
(-1897.23 -190.061 -13.8043)
(-1883.46 -206.528 -10.3326)
(-1828.24 -362.723 -8.59495)
(951.238 -91.172 -8.1804)
(998.338 -49.7526 -7.75091)
(983.865 -47.3801 -8.0827)
(973.313 -46.1094 -8.87971)
(965.721 -44.5802 -9.21819)
(966.204 -43.4894 -9.19569)
(970.889 -42.9052 -9.98748)
(978.237 -42.6176 -10.6851)
(991.727 -41.0903 -11.1684)
(1008.15 -38.0323 -11.5753)
(1029.49 -33.7074 -11.9505)
(1172.41 -10.8305 -12.8509)
(-1922.3 178.057 -26.5468)
(-1887.35 180.61 -20.0474)
(-1873.06 202.748 -12.4527)
(-1927.38 81.657 -26.2378)
(1043.27 14.6987 -9.50451)
(1002.44 51.9154 -7.6764)
(992 48.5725 -8.30392)
(983.051 45.7207 -7.64016)
(976.124 43.5331 -8.08497)
(969.592 42.1623 -9.86455)
(970.787 41.1944 -11.1509)
(973.761 41.3018 -11.0295)
(979.763 42.0596 -10.3001)
(989.055 43.2623 -9.99624)
(1002.1 44.8514 -10.8486)
(1071.34 56.3415 -11.9714)
(-1727.8 566.966 -19.9472)
(-1629.93 594.752 -18.7847)
(-1555.18 626.574 -15.8166)
(-1689.35 516.768 -17.0581)
(889.667 116.41 -8.3634)
(704.276 144.252 -7.35752)
(742.452 144.449 -2.36737)
(765.186 143.879 -3.90753)
(782.309 141.073 -9.78144)
(798.155 136.751 -12.8761)
(815.187 133.964 -9.55566)
(833.452 130.14 -5.21827)
(849.768 128.241 -6.16738)
(867.807 126.153 -10.1441)
(888.783 122.505 -11.2211)
(944.522 127.488 -10.4036)
(-1392.59 832.939 -21.5623)
(-1069.26 800.375 -13.1949)
(-759.884 706.426 -15.1793)
(-710.746 647.796 -27.5334)
(-117.36 348.401 -6.17524)
(-86.028 877.737 -9.33228)
(15.2785 962.956 -8.73477)
(112.854 815.782 -6.76508)
(69.4024 80.1327 -2.225)
(163.806 83.7447 2.6965)
(278.247 117.021 -3.49546)
(384.929 145.335 -9.35951)
(472.287 165.465 -7.56363)
(545.33 175.569 -0.148178)
(599.376 178.559 3.52226)
(642.055 180.259 -2.26416)
(685.325 178.665 -12.1579)
(726.042 178.378 -13.473)
(763.05 177.882 -8.84581)
(830.166 179.846 -6.8669)
(-1020.21 906.742 -18.5274)
(-587.007 721.954 -16.3165)
(-299.138 503.38 -12.8881)
(-148.388 362.909 -9.53494)
(-138.89 673.687 -5.54115)
(-46.2746 923.147 -8.07723)
(51.2267 924.64 -7.11081)
(140.844 657.619 -6.10324)
(84.7758 176.551 2.13572)
(48.0937 50.0441 -1.65093)
(79.7833 54.6888 -6.88394)
(138.88 80.5679 -2.89225)
(221.851 114.706 3.25707)
(306.659 144.76 4.73187)
(381.526 165.841 -2.56319)
(450.601 179.309 -12.9887)
(518.046 191.712 -14.0994)
(580.442 200.649 -5.87911)
(630.451 204.882 -1.55497)
(708.48 211.393 -4.79245)
(-712.525 868.946 -10.724)
(-322.031 594.932 -6.95557)
(-162.614 433.731 -11.3037)
(-148.561 433.618 -10.9818)
(-147.705 734.026 -5.31282)
(-44.0461 909.832 -8.2728)
(47.9374 916.025 -7.46164)
(139.747 692.536 -1.88165)
(118.424 289.461 -1.29331)
(56.7538 86.8079 -6.35176)
(47.0158 48.3796 -1.91086)
(60.5824 47.7569 2.9699)
(91.3978 62.3823 1.61432)
(143.544 89.4429 -2.94565)
(215.253 122.125 -9.39535)
(290.243 152.398 -9.80844)
(369.155 178.842 -2.72739)
(441.021 196.418 3.23333)
(495.293 209.414 -1.07361)
(587.834 224.842 -5.63073)
(-532.429 838.181 -16.675)
(-232.508 564.163 -7.07202)
(-149.098 495.56 -4.81507)
(-165.292 516.297 -7.51333)
(-149.805 778.512 -7.64127)
(-42.6662 899.765 -9.32869)
(45.0007 910.179 -7.07516)
(138.196 716.007 -2.5765)
(143.028 386.92 -9.72834)
(85.8553 151.518 -2.79028)
(50.2979 66.234 3.43261)
(45.7361 47.2139 1.64184)
(53.0828 44.4322 -2.61925)
(76.3258 58.2423 -5.39167)
(121.418 85.5565 -5.32895)
(180.953 117.501 -1.46016)
(247.812 148.102 3.08228)
(312.596 173.552 2.24256)
(371.402 194.195 -4.90581)
(475.824 221.694 -7.75202)
(-428.805 838.486 -18.8213)
(-203.026 612.377 -11.864)
(-157.228 585.71 -0.419314)
(-184.261 603.477 -6.14018)
(-146.603 810.029 -7.96143)
(-41.109 895.837 -9.55129)
(42.8163 904.28 -8.22902)
(135.475 733.952 -7.97509)
(160.546 467.98 -9.88107)
(118.678 234.409 3.45127)
(68.6017 101.772 2.80929)
(46.4328 57.0056 -1.89751)
(50.7444 51.5642 -4.5521)
(58.5883 51.7559 -3.18719)
(78.275 63.9338 0.0611275)
(112.583 85.9321 2.43701)
(158.937 114.138 2.71464)
(215.626 144.027 -2.19843)
(272.003 169.32 -7.81396)
(375.881 207.531 -8.11046)
(-380.173 889.574 -7.67351)
(-192.892 683.217 -7.52138)
(-166.756 704.147 -5.59885)
(-198.413 687.244 -8.47221)
(-141.366 835.76 -11.5155)
(-40.1738 897.772 -9.9008)
(41.3936 902.817 -9.48087)
(131.339 752.434 -11.6096)
(169.391 533.938 -2.49751)
(146.492 316.028 5.27574)
(96.3947 157.165 -1.40441)
(63.4785 84.8238 -4.52981)
(53.7699 62.4035 -2.85775)
(53.8544 54.5697 1.04405)
(60.8568 55.5949 2.7384)
(74.7935 64.0385 2.15128)
(103.533 84.3143 0.501942)
(149.078 113.504 -4.07608)
(197.419 142.306 -5.50978)
(290.081 186.856 -4.27577)
(-356.864 967.47 5.12206)
(-204.08 794.483 -1.55987)
(-187.332 842.671 -12.6365)
(-208.973 775.298 -8.58643)
(-134.637 865.502 -10.9597)
(-39.6033 904.125 -10.909)
(40.4681 905.739 -9.7444)
(128.619 771.571 -9.06673)
(171.447 583.457 2.15074)
(165.367 385.494 -1.52676)
(127.797 228.542 -8.45776)
(92.6054 134.051 -4.7364)
(69.3748 87.0267 0.321451)
(57.2432 64.3766 2.5831)
(59.374 60.4285 2.56704)
(65.9263 61.4528 0.816517)
(80.2302 70.5668 -1.9334)
(110.222 93.3995 -3.78558)
(147.16 120.839 -2.12232)
(226.001 166.095 -0.0924307)
(-353.349 1095.24 3.61909)
(-213.159 949.632 3.10078)
(-201.523 1007.96 -18.2045)
(-212.283 861.658 -15.1716)
(-131.371 896.917 -9.66834)
(-39.437 913.726 -11.4886)
(39.8642 911.851 -10.1091)
(124.974 790.357 -6.09265)
(173.642 623.609 -2.04597)
(177.143 450.241 -12.1569)
(155.947 301.798 -9.87159)
(124.523 195.203 -1.37126)
(94.0886 125.242 2.76107)
(70.3423 82.6603 2.21571)
(62.0523 68.4491 0.598871)
(67.3997 68.491 -1.78184)
(77.2123 73.9182 -3.2366)
(91.8733 83.9821 -2.06108)
(114.902 101.009 1.50992)
(177.712 143.064 2.07939)
(-369.619 1246.79 -4.90974)
(-226.009 1138.22 1.36501)
(-206.379 1201.23 -11.16)
(-208.639 969.24 -12.282)
(-127.84 945.98 -11.169)
(-38.0612 929.713 -11.8497)
(40.3501 921.728 -10.4908)
(122.558 806.643 -6.47309)
(172.495 663.904 -10.8992)
(188.525 514.485 -13.8851)
(180.208 376.864 -3.71722)
(154.184 262.141 3.19593)
(123.385 174.437 3.52488)
(93.4465 115.283 0.846141)
(76.0267 86.8293 -2.241)
(74.7995 79.0614 -3.49871)
(79.2801 79.67 -2.12696)
(88.8614 84.8246 1.24351)
(103.875 95.684 3.36481)
(150.308 130.181 2.4523)
(-394.777 1449.99 -7.91757)
(-232.396 1377.16 -4.86172)
(-211.319 1437.07 -12.4739)
(-205.931 1095.51 -12.0635)
(-127.341 1009.83 -12.4677)
(-35.4386 949.464 -12.2294)
(41.3447 935.015 -11.2888)
(120.669 826.779 -8.46069)
(172.316 702.784 -12.0346)
(196.638 572.18 -6.67333)
(196.433 445.02 2.20154)
(178.466 325.867 2.34832)
(152.232 230.952 -1.36171)
(122.132 162.089 -3.96265)
(101.499 120.302 -4.29073)
(90.976 99.2514 -2.652)
(86.9245 92.1138 0.683355)
(93.0052 94.0491 2.79149)
(104.388 102.404 2.16895)
(142.08 130.993 0.229095)
(-405.733 1633.57 -2.00741)
(-231.903 1583.61 -1.5033)
(-186.855 1699.06 -11.3091)
(-176.125 1303.98 -15.6692)
(-121.26 1099.55 -13.6437)
(-31.4199 973.386 -12.68)
(43.0491 951.477 -12.1256)
(117.245 849.542 -9.89044)
(171.653 738.503 -8.07915)
(200.56 619.783 -2.40992)
(208.613 498.118 -1.15254)
(197.733 383.194 -4.23707)
(176.027 286.882 -7.21033)
(149.603 210.53 -5.03852)
(129.12 158.486 -2.23494)
(112.373 126.986 0.545547)
(100.304 109.437 2.29621)
(105.262 108.06 2.05105)
(112.387 111.789 -0.0342713)
(142.193 134.789 -0.734393)
(-447.04 1970.33 0.41484)
(-299.737 1940.9 3.65965)
(-207.137 2115.61 -6.83313)
(-103.685 1821.97 -12.9518)
(-77.2367 1413.74 -14.3402)
(-8.6727 1117.99 -13.6458)
(54.7536 1028.6 -12.8554)
(123.292 909.357 -10.3994)
(174.46 806.126 -6.88927)
(207.039 697.318 -4.54823)
(223.607 588.994 -4.39117)
(223.819 484.991 -5.9863)
(212.678 389.328 -6.6242)
(193.147 303.98 -2.76272)
(174.495 239.839 0.40203)
(156.417 194.334 1.06578)
(141.167 163.507 1.13241)
(138.318 150.175 -0.352904)
(140.86 146.708 -0.948327)
(155.707 154.576 0.597301)
(-1785.93 -1794.89 120.284)
(-1221.99 -1733.78 150.01)
(-1021.81 -1734.61 146.728)
(-950.614 -1668.4 31.6476)
(-580.305 -1898.55 -0.948403)
(-181.485 -2022.97 -8.01153)
(182.338 -2009.83 -9.65473)
(584.802 -1802.04 -1.64779)
(854.158 -1446.63 2.58714)
(929.944 -1060.57 5.81399)
(888.484 -737.035 13.1466)
(845.703 -542.176 9.45465)
(843.677 -435.372 7.42014)
(895.578 -384.615 17.7652)
(971.987 -357.882 31.642)
(1097.51 -351.163 33.5307)
(1243.14 -364.421 28.8547)
(1444.82 -388.329 27.9104)
(1633.07 -400.641 30.0712)
(1984.79 -446.237 28.0633)
(-1703.06 -1225.97 155.213)
(-1211.7 -1231.5 179.765)
(-1037.39 -1072.58 56.1295)
(-803.519 -1155.11 -9.34332)
(-596.008 -1728.11 -12.7469)
(-187.65 -1999.26 -12.0882)
(190.517 -1980.83 -6.79503)
(612.621 -1711.17 -5.46251)
(821.543 -1124.44 10.5553)
(738.532 -613.611 7.28978)
(606.577 -333.285 11.0917)
(562.796 -234.24 11.6967)
(609.869 -202.98 8.3175)
(678.066 -188.081 15.1826)
(789.2 -195.388 24.1209)
(945.964 -202.894 30.0194)
(1135.44 -216.262 32.8335)
(1371.41 -226.071 34.7276)
(1580.29 -229.532 39.1068)
(1952.21 -299.267 34.3817)
(-1693.99 -1000.81 166.626)
(-1056.91 -1043.17 72.2046)
(-860.174 -866.438 1.25255)
(-693.622 -961.76 -5.83097)
(-619.132 -1667.83 -5.1809)
(-207.565 -1995.02 -8.46289)
(210.544 -1970.98 -4.26481)
(643.02 -1644.02 -4.65234)
(728.707 -812.709 11.4335)
(510.888 -310.809 8.99543)
(432.312 -164.812 4.46094)
(494.462 -145.767 8.48079)
(581.919 -153.422 13.02)
(697.315 -166.954 10.5787)
(837.611 -186.392 8.24731)
(1007.78 -199.494 5.45576)
(1213.8 -205.157 15.4585)
(1459.16 -211.058 19.535)
(1723.07 -185.685 28.734)
(2148.48 -202.777 30.3512)
(-1646.6 -926.711 52.9755)
(-1123.55 -801.869 9.26609)
(-923.874 -693.615 7.84049)
(-687.514 -712.785 6.08404)
(-708.01 -1390.83 -6.76258)
(-370.106 -1944.28 -0.568821)
(83.9951 -2027.44 -13.1342)
(531.329 -1784.03 -2.75939)
(695.936 -827.409 9.11679)
(370.304 -151.104 2.28153)
(440.998 -151.832 -0.235727)
(525.821 -164.422 1.38335)
(614.422 -183.922 3.77646)
(697.499 -198.837 2.78481)
(779.721 -209.26 5.15568)
(866.005 -215.524 2.109)
(972.858 -213.593 7.3162)
(1098.76 -210.905 11.1559)
(1307.38 -181.291 17.1156)
(1836.86 -107.009 30.8105)
(-1843.08 -577.623 4.65765)
(-1644.1 -588.411 -7.26732)
(-1566.2 -613.792 1.19371)
(-1255.81 -688.97 5.72443)
(350.709 -122.085 -0.887516)
(727.406 -144.762 -2.46531)
(784.157 -152.911 -0.858255)
(829.037 -155.748 -1.82027)
(858.654 -152.813 -1.10607)
(879.79 -147.071 -3.08096)
(905.065 -139.954 -2.46273)
(930.874 -135.529 0.27621)
(972.54 -131.243 2.18239)
(1030.21 -130.529 3.1756)
(1112.46 -125.454 5.71248)
(1410.08 -83.5188 15.2197)
(-1949.6 -180.298 -3.27823)
(-1926.82 -189.824 -8.61078)
(-1930.63 -206.413 -9.44436)
(-1879.36 -362.457 -7.49943)
(960.857 -90.2336 -5.25305)
(1003.49 -48.8134 -4.499)
(985.656 -46.5987 -3.99652)
(970.705 -44.7342 -3.5227)
(957.793 -43.1272 -2.50553)
(954.25 -42.1818 -1.25379)
(955.618 -41.2923 -0.452689)
(958.839 -41.1309 -0.000502055)
(967.584 -39.7927 0.624591)
(979.786 -36.9657 0.681666)
(996.361 -33.1852 1.58694)
(1119.7 -13.305 5.95775)
(-1939.23 175.052 -15.0717)
(-1916.58 181.208 -12.8698)
(-1918.97 202.826 -9.31103)
(-1972.08 79.9117 -20.669)
(1054.61 14.6262 -6.30739)
(1007.87 51.6569 -3.75284)
(993.738 47.8928 -4.07762)
(979.913 45.5831 -2.33852)
(966.994 43.1297 -1.05425)
(958.235 41.163 -1.19041)
(954.114 40.0101 -1.29207)
(955.044 39.9558 -1.09262)
(958.045 40.5008 0.103843)
(963.312 41.5759 1.8863)
(972.731 42.661 2.04207)
(1031.85 51.9371 3.31771)
(-1743 563.892 -13.6231)
(-1657.62 593.352 -16.8593)
(-1593.6 625.697 -11.7288)
(-1737.57 513.259 -11.9663)
(897.502 114.967 -5.31172)
(706.455 141.838 -4.94128)
(740.466 142.386 1.42613)
(759.403 140.714 2.2365)
(772.98 137.541 -1.95819)
(787.765 132.751 -5.61122)
(802.947 130.216 -3.02903)
(816.093 126.396 2.99812)
(826.376 123.276 4.69013)
(840.247 121.192 1.84076)
(860.064 117.328 0.200522)
(911.175 121.122 2.34147)
(-1397.39 826.32 -10.0946)
(-1081.31 794.874 -7.89384)
(-771.264 700.233 -7.21143)
(-750.261 654.701 -4.10245)
(-124.849 358.836 -2.03772)
(-85.2025 899.852 -7.46757)
(15.5387 987.085 -6.69955)
(112.245 830.992 -4.66053)
(69.1866 81.0195 -0.255509)
(161.25 81.6133 4.27554)
(271.566 112.891 0.173554)
(376.602 139.458 -6.52856)
(465.019 159.273 -5.94324)
(535.528 170.019 1.8306)
(584.761 171.91 9.51002)
(619.99 172.359 7.61338)
(658.325 170.71 -0.669791)
(700.774 170.191 -3.90512)
(738.751 170.707 -0.153543)
(799.652 171.988 4.42366)
(-1018.82 893.968 -8.05749)
(-585.166 707.899 -7.6583)
(-294.478 489.309 -2.4247)
(-144.293 359.336 -4.34173)
(-139.564 693.812 -4.95521)
(-45.8553 953.809 -7.73209)
(51.9941 954.163 -6.10994)
(140.24 674.676 -5.88129)
(82.8411 176.659 2.88982)
(45.3897 47.5384 0.347224)
(76.2118 52.0082 -5.69155)
(135.143 77.7337 -3.45831)
(215.622 110.485 3.81203)
(295.725 138.237 8.75908)
(363.507 156.813 5.30612)
(426.752 168.591 -4.02726)
(495.622 180.527 -7.83323)
(559.058 191.629 -0.402214)
(606.084 195.618 7.18047)
(675.82 200.786 6.59633)
(-708.32 854.288 -0.742292)
(-319.049 580.567 -2.94694)
(-158.957 418.077 -2.07319)
(-144.987 427.731 -4.26035)
(-147.057 748.929 -3.11469)
(-43.7522 935.616 -6.89845)
(48.3709 940.899 -6.14816)
(140.036 706.732 -0.763886)
(115.289 287.773 1.98765)
(52.9716 82.326 -5.18896)
(43.0877 44.401 -2.49505)
(56.766 44.5624 3.16048)
(84.8464 57.4904 4.2161)
(130.719 80.7263 1.43242)
(197.298 110.293 -4.83713)
(272.513 140.631 -6.56157)
(350.014 168.152 -0.504411)
(419.196 185.328 10.2177)
(467.298 196.504 9.21649)
(552.646 210.886 5.61037)
(-521.149 811.961 -0.264567)
(-227.052 542.141 0.27394)
(-142.597 478.013 1.58247)
(-159.198 508.465 -0.151372)
(-149.342 790.86 -4.58156)
(-41.9953 921.094 -7.15526)
(45.6504 929.196 -4.70188)
(137.243 725.371 0.56027)
(139.699 384.727 -5.81047)
(81.9334 146.621 -2.98853)
(46.22 61.2511 3.4539)
(40.7503 41.8997 3.66841)
(46.7259 39.0951 0.282667)
(67.6099 50.6126 -3.28485)
(110.832 76.9482 -4.11566)
(168.433 108.572 0.183079)
(232.012 137.741 7.70956)
(289.35 159.315 10.1024)
(341.165 177.753 4.02298)
(442.231 205.273 2.00777)
(-417.324 808.667 -1.55365)
(-196.344 586.431 -2.19779)
(-151.186 564.15 5.88952)
(-177.937 592.679 1.46258)
(-146.094 818.366 -3.88855)
(-40.4587 908.632 -6.61532)
(43.1172 917.929 -4.17878)
(134.156 740.252 -3.47931)
(156.894 466.749 -7.33158)
(114.005 227.799 4.16855)
(62.2157 93.5452 5.28943)
(40.3671 49.9499 0.799401)
(44.7647 45.7436 -2.98197)
(54.1264 47.6486 -2.66833)
(73.4498 59.8764 0.317097)
(104.912 79.7029 5.01329)
(145.34 103.537 7.29386)
(192.928 128.181 3.99684)
(245.477 152.06 -0.509628)
(346.76 190.43 0.999831)
(-368.326 858.08 7.33255)
(-183.495 652.714 5.12618)
(-160.45 674.822 7.14805)
(-191.426 671.812 0.580631)
(-140.521 839.01 -6.23513)
(-39.5348 906.566 -6.06818)
(41.2464 909.762 -4.46496)
(129.551 757.118 -7.7405)
(166.361 531.121 -0.392345)
(139.757 305.639 9.45428)
(86.4602 142.421 3.24538)
(54.8337 74.5017 -2.33089)
(49.2079 57.3007 -2.28143)
(49.6878 50.2395 1.13462)
(56.0633 51.2252 3.54004)
(67.5773 57.6301 3.95989)
(91.0941 73.8232 3.03795)
(131.326 98.9765 -0.313569)
(176.77 126.45 0.244972)
(265.626 169.611 3.68046)
(-345.949 935.36 20.1289)
(-192.243 758.108 15.517)
(-178.333 804.163 7.66835)
(-201.33 750.201 3.47098)
(-133.631 863.249 -5.19779)
(-38.5971 907.834 -5.6621)
(40.0779 908.602 -4.55596)
(127.153 774.213 -5.76515)
(167.33 576.109 7.4133)
(157.032 369.827 6.44616)
(115.606 209.547 -3.12081)
(82.9103 121.508 -2.95305)
(64.1154 80.669 1.2642)
(52.2431 58.7598 3.79109)
(52.4229 53.2937 3.93623)
(57.1849 53.1903 2.17151)
(70.1068 61.1842 -0.13403)
(97.7042 82.1504 -0.790946)
(131.695 107.212 2.34699)
(205.239 149.612 5.87713)
(-340.873 1060 23.3847)
(-200.446 907.683 22.9595)
(-191.255 960.744 5.72108)
(-206.079 830.778 0.101009)
(-129.313 888.024 -2.71093)
(-38.5868 911.755 -5.13729)
(39.457 910.197 -4.069)
(123.414 786.8 -0.605705)
(168.158 610.847 6.15876)
(168.328 430.743 -3.26427)
(144.707 284.175 -5.68864)
(114.882 181.232 1.28227)
(85.8358 115.124 6.14253)
(61.9879 73.5956 4.71565)
(53.647 59.3724 2.45078)
(58.1892 59.188 -0.221082)
(67.4976 64.3789 -1.05865)
(81.771 74.4799 0.840111)
(103.244 90.3651 4.70379)
(160.702 129.084 6.13562)
(-355.755 1205.05 20.4054)
(-212.561 1090.53 26.4173)
(-196.88 1148.92 15.892)
(-203.731 929.531 6.02057)
(-125.06 927.482 -0.863341)
(-37.3993 921.637 -4.12811)
(39.7718 914.829 -3.01676)
(119.938 797.049 1.22976)
(167.15 648.506 -1.68322)
(179.69 498 -7.81221)
(170.648 359.849 -0.434203)
(143.155 245.158 8.60241)
(111.052 158.371 8.91581)
(80.9718 100.793 4.3762)
(65.1889 75.2644 0.321248)
(64.931 69.1043 -0.956928)
(69.1624 69.5914 0.612096)
(77.7691 73.9655 4.27347)
(90.8817 83.5775 6.04744)
(134.377 116.079 5.76418)
(-380.934 1403.07 20.2795)
(-219.819 1324.79 27.4229)
(-201.96 1380.43 17.5628)
(-201.412 1044.39 9.91307)
(-124.504 981.95 0.140812)
(-34.8549 936.01 -4.05877)
(40.5206 922.849 -2.37725)
(117.466 813.113 -0.0944041)
(166.826 689.051 -4.58116)
(190.104 558.023 -1.40645)
(186.787 426.385 9.47222)
(164.515 302.683 10.7059)
(136.537 207.88 5.887)
(107.241 143.465 0.791312)
(88.7696 106.142 -0.497501)
(79.6984 87.4966 0.88565)
(75.64 80.4181 3.97754)
(80.692 81.5574 5.92499)
(90.5319 89.0918 5.28635)
(124.297 114.863 4.32954)
(-393.02 1587.3 24.1923)
(-218.555 1530.06 32.4628)
(-176.459 1639.29 27.4978)
(-174.983 1235.91 15.8582)
(-120.109 1059.93 3.35845)
(-31.601 953.839 -2.47089)
(41.2951 934.555 -1.9909)
(113.634 834.176 -1.23878)
(166.948 725.123 -1.51768)
(193.895 603.264 4.98943)
(197.943 475.038 8.45447)
(183.027 355.549 4.67765)
(160.094 261.469 0.521109)
(134.567 190.399 0.87344)
(114.839 142.137 2.76901)
(98.9671 112.448 4.64324)
(87.4469 95.4108 5.57549)
(90.8516 93.5983 5.32013)
(97.3102 97.1196 3.91746)
(124.031 117.669 4.77978)
(-437.531 1928.35 22.8998)
(-286.276 1891.81 29.249)
(-194.639 2059.83 31.0337)
(-104.265 1739.67 31.7341)
(-81.2004 1345.97 14.4478)
(-12.1823 1076.18 2.69673)
(50.7433 998.457 0.163079)
(118.027 887.169 0.45389)
(168.533 786.038 2.58942)
(198.969 674.19 5.1588)
(212.408 561.507 5.76329)
(209.969 456.696 3.18435)
(197.581 363.272 1.96657)
(177.781 281.437 4.56175)
(158.408 219.184 6.79826)
(140.171 174.349 6.33592)
(124.906 144.793 5.64623)
(121.33 131.934 4.26472)
(122.731 128.06 4.69096)
(135.952 134.93 6.56329)
(-1855.01 -1854.93 93.2804)
(-1259.74 -1829.99 133.753)
(-1084.16 -1784.87 157.55)
(-961.278 -1693.96 35.0361)
(-569.896 -1911.37 7.35202)
(-179.195 -2076.93 -0.318826)
(189.128 -2057.56 -9.28527)
(592.315 -1837.83 -3.30848)
(857.634 -1467.77 5.00391)
(932.52 -1075.76 4.85855)
(890.694 -747.987 11.6892)
(839.692 -544.609 12.7842)
(833.445 -435.391 8.6986)
(882.428 -382.374 17.5133)
(957.233 -355.177 31.5215)
(1084.51 -348.087 34.3461)
(1231.49 -360.797 30.2091)
(1435.32 -386.134 28.9007)
(1626.41 -401.039 28.5464)
(1991.07 -450.334 24.2778)
(-1797.26 -1252.42 134.174)
(-1195.39 -1206.69 197.842)
(-1018.43 -1063.55 48.0239)
(-781.25 -1180.65 1.191)
(-604.946 -1758.63 0.421638)
(-184.078 -2052.28 1.00276)
(199.699 -2023.82 -6.3224)
(620.165 -1739.74 -6.14932)
(817.94 -1128.01 12.6429)
(733.596 -613.525 8.41058)
(606.27 -335.123 8.37361)
(555.016 -230.352 12.8424)
(601.039 -199.663 8.9506)
(667.763 -182.627 15.5613)
(778.197 -189.869 26.3288)
(935.866 -198.619 31.3799)
(1128.74 -211.645 33.1034)
(1370.44 -224.945 35.5543)
(1594.75 -226.123 40.9542)
(1978.18 -294.944 31.7752)
(-1728.24 -1048.04 164.489)
(-1051.9 -1006 45.0128)
(-867.3 -861.672 -7.11272)
(-698.023 -956.849 22.7393)
(-623.734 -1701.24 7.48337)
(-205.706 -2044.57 -0.572839)
(215.898 -2011.1 -5.40008)
(648.446 -1666.07 -3.60477)
(717.7 -804.234 10.3745)
(498.559 -302.815 11.3659)
(429.482 -164.671 5.81361)
(492.772 -139.876 7.85273)
(578.393 -147.037 13.7523)
(692.18 -163.998 13.044)
(832.079 -185.218 12.8902)
(1002.09 -199.242 8.44063)
(1211.76 -205.887 16.3336)
(1460.4 -212.07 18.3046)
(1738.6 -185.279 28.3155)
(2198.43 -200.495 29.4104)
(-1640.36 -929.271 34.3208)
(-1123.28 -764.792 -11.8042)
(-907.059 -682.663 -4.13111)
(-683.135 -709.698 3.12217)
(-711.383 -1431.46 5.8511)
(-365.959 -1994.23 -1.78956)
(87.8619 -2075.32 -14.0877)
(535.698 -1823.12 -2.35722)
(681.989 -814.622 8.93469)
(365.501 -143.52 5.07328)
(437.902 -152.401 4.80407)
(523.447 -161.901 3.83738)
(615.723 -179.145 6.01456)
(700.43 -195.433 4.80903)
(782.126 -206.442 7.40122)
(865.777 -213.977 4.3496)
(969.279 -214.026 7.92481)
(1089.9 -213.07 11.1403)
(1287.33 -190.321 17.602)
(1831.24 -120.176 31.8517)
(-1842.99 -565.778 2.99105)
(-1665.15 -589.282 -9.13932)
(-1592.25 -610.404 -2.26367)
(-1264.58 -686.497 2.63786)
(330.124 -117.896 -0.0625202)
(725.93 -141.596 1.40464)
(781.307 -149.328 2.90746)
(827.328 -152.742 2.11613)
(861.288 -151.134 2.35748)
(884.162 -146.24 -0.514911)
(909.448 -139.58 -1.49564)
(935.956 -134.437 0.0457931)
(976.925 -130.598 1.9057)
(1034.36 -130.912 2.24138)
(1111.94 -128.759 4.45757)
(1396.38 -95.3889 13.909)
(-1984.89 -182.154 -4.93059)
(-1957.98 -187.74 -8.07117)
(-1950.8 -203.805 -8.28624)
(-1922.5 -361.395 -5.28119)
(951.862 -88.2766 -0.139072)
(1005.73 -47.9882 1.50943)
(990.819 -45.6283 1.34918)
(977.727 -44.1686 0.416995)
(965.069 -42.4866 0.0406903)
(964.387 -41.6801 0.482471)
(967.564 -40.9352 0.829729)
(974.186 -40.8183 0.872666)
(985.376 -40.1791 1.33977)
(999.655 -38.1046 1.18487)
(1014.87 -35.033 1.81844)
(1122.63 -19.1532 5.87523)
(-1978.22 172.606 -8.29121)
(-1951.63 185.41 -3.16038)
(-1940.45 204.203 -2.74456)
(-2007.05 84.7583 -13.2184)
(1047.79 14.9254 -0.309374)
(1010.32 50.694 2.93994)
(997.695 47.1208 1.79829)
(986.515 44.7615 2.29003)
(975.799 42.6047 2.66496)
(967.331 41.029 2.08575)
(968.565 39.7142 0.949592)
(971.465 39.3943 0.344456)
(977.008 39.875 0.532872)
(984.888 40.8027 1.5879)
(994.831 41.4698 2.10748)
(1048.29 48.2604 3.09946)
(-1773.99 564.144 -6.28141)
(-1686.46 594.337 -8.52281)
(-1619.1 622.587 -4.88647)
(-1763.26 517.072 -7.35416)
(888.801 112.873 0.814487)
(706.292 138.752 -0.907687)
(740.683 139.735 3.79783)
(762.639 137.738 6.8046)
(779.108 135.673 3.8576)
(797.018 131.459 -2.19744)
(813.92 128.364 -2.75196)
(827.585 125.661 2.01135)
(840.72 121.771 5.83531)
(856.537 120.586 4.19962)
(878.012 117.381 0.925252)
(928.496 119.42 2.08519)
(-1420.23 824.018 -3.22671)
(-1103.46 791.535 -0.559328)
(-798.493 698.555 -2.3913)
(-797.143 659.281 -6.96545)
(-113.808 321.672 -2.48405)
(-84.5596 924.329 -6.93993)
(16.3238 1014.26 -6.21016)
(111.904 854.278 -4.21949)
(73.2868 69.3883 0.879003)
(161.457 77.2671 3.93912)
(271.313 109.479 5.11561)
(374.458 135.951 -2.13639)
(464.496 154.234 -5.76498)
(532.819 164.888 -0.907836)
(583.733 167.478 8.95697)
(624.32 168.886 10.9279)
(664.661 169.929 4.16265)
(710.369 169.825 -3.15441)
(750.034 170.532 -1.77438)
(812.609 171.512 3.24495)
(-1033.83 890.274 -4.74622)
(-594.042 700.534 -0.925487)
(-297.939 477.526 2.0415)
(-140.411 343.896 -0.908496)
(-136.597 699.719 -3.7497)
(-45.2114 976.157 -5.89)
(52.1211 977.356 -3.87465)
(138.801 682.52 -5.114)
(77.0432 163.822 3.02949)
(43.4963 43.8984 2.29224)
(73.059 48.5116 -3.63244)
(131.18 73.2221 -4.17156)
(208.7 104.144 1.87833)
(288.178 131.28 9.5523)
(358.944 151.348 9.6406)
(423.801 165.327 1.77429)
(494.259 176.349 -6.99964)
(558.642 187.88 -3.87443)
(607.555 193.51 5.43435)
(681.696 199.236 7.10339)
(-717.442 849.171 -1.89802)
(-324.919 575.699 -1.6267)
(-163.082 406.273 0.884312)
(-147.898 413.623 -1.87976)
(-144.208 753.062 -2.43531)
(-42.9574 961.011 -6.48312)
(48.5678 965.49 -4.7073)
(139.317 717.433 -0.457268)
(111.427 277.729 4.15863)
(49.2884 75.3869 -3.72398)
(37.7615 38.2051 -2.99576)
(50.9121 38.9914 1.93716)
(79.8229 52.6393 5.38183)
(125.055 75.9489 4.87961)
(188.603 103.7 -1.13094)
(264.39 132.876 -6.13779)
(339.3 159.715 -3.82727)
(408.856 178.139 8.2405)
(463.569 191.252 11.5706)
(553.141 208.481 7.51755)
(-520.065 794.767 1.82563)
(-223.419 525.839 3.53323)
(-138.236 467.304 0.94381)
(-157.68 495.344 -0.0665803)
(-147.345 797.744 -3.64945)
(-41.2069 947.845 -6.58406)
(46.4302 955.231 -3.94276)
(137.134 740.248 2.42936)
(137.655 379.747 -4.01665)
(76.4356 137.718 -4.34589)
(39.9031 52.9558 2.15909)
(37.1734 37.4893 4.43153)
(43.5212 36.0315 2.54099)
(61.9415 45.1345 -1.31659)
(102.376 69.0239 -3.79813)
(157.238 99.2526 -1.58748)
(219.268 128.336 7.21616)
(280.896 151.429 13.3565)
(332.783 171.192 7.41144)
(437.472 200.425 2.39794)
(-415.606 787.592 0.518921)
(-192.67 566.616 0.110858)
(-144.699 549.663 3.12572)
(-174.109 583.601 1.90648)
(-145.802 831.616 -3.13389)
(-39.7591 935.189 -6.06694)
(44.0926 945.43 -2.6758)
(135.003 758.176 -0.725864)
(155.042 466.935 -8.68837)
(107.711 217.48 1.66113)
(56.123 85.5179 6.00379)
(37.0106 45.0678 2.79458)
(41.0436 41.3937 -1.63049)
(49.3094 42.4754 -2.60495)
(66.4907 53.1547 -0.46756)
(96.7581 72.4603 5.14384)
(137.767 96.5218 9.29742)
(183.785 120.161 7.11715)
(235.546 143.662 -0.134036)
(339.669 184.042 0.556695)
(-364.278 834.204 7.10959)
(-177.98 630.449 5.35086)
(-159.515 657.742 6.59884)
(-189.188 666.321 0.414779)
(-141.129 855.329 -5.51187)
(-38.9769 933.989 -5.19755)
(42.1446 937.305 -2.53774)
(130.769 777.254 -6.55367)
(165.064 533.815 -3.88527)
(134.403 298.132 9.23802)
(81.2136 134.143 5.57216)
(48.5948 66.2477 -1.12583)
(43.9545 51.4418 -2.48937)
(45.7366 45.986 0.0316153)
(51.0548 46.2694 3.37364)
(63.1377 52.9637 5.05398)
(84.6593 67.3913 4.30319)
(121.636 89.7862 -0.0680018)
(165.986 116.629 -0.580784)
(257.154 161.602 3.51775)
(-341.839 911.129 18.4294)
(-187.996 738.01 15.2071)
(-180.48 790.026 10.2073)
(-200.134 746.388 3.38001)
(-135.16 879.797 -5.39993)
(-38.1018 936.55 -4.6833)
(40.9698 938.473 -3.14847)
(128.059 795.502 -6.5958)
(167.079 584.295 6.03176)
(154.327 369.103 8.83967)
(109.609 199.933 -1.23911)
(74.2585 110.075 -3.78777)
(57.11 71.7619 -0.13469)
(47.4864 52.9872 3.65315)
(48.5248 48.8904 4.64703)
(52.4691 48.1975 3.06068)
(63.524 54.7202 0.081193)
(88.6082 72.9421 -1.06575)
(121.119 96.6619 2.13964)
(195.942 140.125 6.37052)
(-338.097 1040.34 23.5231)
(-198.65 894.277 21.4325)
(-195.256 951.404 5.46835)
(-207.813 827.001 0.0071117)
(-129.688 904.306 -3.787)
(-38.0452 942.984 -4.4822)
(40.0494 942.575 -3.00925)
(124.966 809.899 -1.23975)
(168.575 625.479 7.59408)
(168.332 434.292 -0.0745002)
(138.794 276.653 -7.08805)
(106.022 168.498 -1.46909)
(78.1973 105.447 5.85851)
(56.6791 67.9032 5.71383)
(49.1345 54.1776 3.3012)
(52.3975 52.8479 -1.21849e-05)
(60.2159 56.7544 -1.10739)
(73.7486 65.9241 0.740649)
(95.4501 82.1281 5.15259)
(151.406 120.749 6.92807)
(-352.657 1188.35 23.1779)
(-211.371 1086.1 24.7914)
(-203.134 1151.69 13.4068)
(-208.643 924.757 3.73369)
(-125.265 941.305 -2.66966)
(-37.5998 954.343 -3.8244)
(40.3556 949.48 -2.88592)
(121.217 823.647 1.88284)
(169.532 666.335 0.410633)
(179.217 504.129 -8.84596)
(165.589 352.94 -4.54678)
(135.335 233.596 7.56618)
(104.071 149.885 10.1243)
(74.2404 93.4069 5.13125)
(58.8164 68.3597 0.410559)
(57.7505 61.7867 -0.977392)
(61.3829 61.6783 0.734665)