/*--------------------------------*- C++ -*----------------------------------*\
  =========                 |
  \\      /  F ield         | OpenFOAM: The Open Source CFD Toolbox
   \\    /   O peration     | Website:  https://openfoam.org
    \\  /    A nd           | Version:  9
     \\/     M anipulation  |
\*---------------------------------------------------------------------------*/
FoamFile
{
    format      ascii;
    class       volScalarField;
    location    "0.008";
    object      T;
}
// * * * * * * * * * * * * * * * * * * * * * * * * * * * * * * * * * * * * * //

dimensions      [0 0 0 1 0 0 0];

internalField   nonuniform List<scalar> 
9720
(
1082.33
1067.74
1047.07
989.22
965.308
970.581
969.892
953.966
932.255
915.78
900.603
897.723
900.22
905.194
913.134
925.045
939.549
954.499
966.398
984.885
1066.84
1049.22
954.988
917.637
947.88
967.242
967.401
947.067
908.309
875.116
860.504
862.093
867.622
877.128
890.363
906.926
924.811
943.805
957.967
978.723
1048.73
955.676
905.044
897.208
946.843
967.978
968.208
945.32
892.455
854.051
858.695
863.946
871.54
881.414
892.17
905.04
919.853
937.553
954.193
979.686
991.497
916.506
895.977
875.183
919.059
965.995
973.134
958.518
885.254
818.815
819.725
823.208
827.215
831.502
836.499
843.544
854.402
869.499
888.982
942.615
963.288
943.8
943.038
918.363
809.551
809.021
813.569
817.004
819.08
820.788
823.279
827.052
832.567
840.246
849.407
891.13
967.017
963.534
964.785
962.61
829.961
833.864
831.956
830.313
828.824
828.615
829.061
830.053
831.518
833.391
835.378
853.78
965.991
963.583
965
970.267
838.785
833.793
832.083
830.395
829.038
828.004
827.492
827.629
827.968
828.742
829.938
838.281
949.753
942.797
941.161
954.706
822.177
799.808
801.536
802.125
802.862
804.227
806.022
808.165
810.381
812.514
814.755
821.904
928.046
903.805
887.778
877.015
789.035
824.546
833.236
815.957
775.912
764.227
764.576
767.084
770.581
775.327
779.951
783.605
787.816
792.852
797.063
806.398
911.887
870.645
849.007
811.583
803.527
828.526
828.175
792.896
758.249
763.463
757.126
755.887
757.14
758.395
760.197
763.641
768.663
775.993
781.699
792.222
897.499
855.771
853.584
813.542
808.662
826.537
826.492
796.245
758.683
756.922
754.231
751.373
747.589
747.302
749.523
753.475
758.8
764.904
769.219
779.869
894.531
857.735
858.371
817.389
811.988
824.951
824.968
797.828
761.296
755.235
752.982
744.878
741.198
743.099
747.218
751.748
754.303
756.279
758.676
769.838
896.829
863.533
866.36
821.691
813.995
823.717
823.826
799.164
766.152
755.358
748.641
742.941
741.951
743.019
745.965
749.618
750.15
751.717
754.497
765.196
901.498
872.872
876.889
826.79
815.991
823.8
822.976
801.078
772.322
755.88
747.543
746.039
745.387
743.174
741.49
743.002
745.489
751.912
755.533
763.067
909.22
885.667
887.521
832.481
818.951
824.534
823.016
803.356
777.679
757.131
749.591
750.883
751.777
747.182
739.849
740.303
744.807
753.591
757.105
763.045
921.285
901.739
899.299
839.823
823.212
825.979
823.458
805.671
781.666
760.497
753.302
754.963
755.681
751.75
743.233
743.37
746.727
752.99
756.423
763.41
936.216
919.379
912.782
850.614
829.124
827.912
824.272
808.019
786.117
766.151
757.867
756.053
755.039
753.297
750.213
750.289
750.559
752.309
755.742
765.321
951.605
939.033
929.8
865.246
837.135
830.309
825.573
810.45
791.482
774.088
763.536
757.143
755.574
756.564
759.271
759.048
755.927
755.364
757.906
769.833
963.5
953.761
947.152
883.922
846.485
832.733
827.234
813.063
795.973
780.3
768.158
759.248
757.006
757.998
760.398
761.985
760.467
760.684
763.675
775.347
981.735
974.915
974.677
937.55
888.343
852.198
836.938
821.082
806.077
792.061
779.885
770.339
765.689
763.854
764.606
766.594
769.45
773.876
777.906
786.546
1082.93
1067.75
1041.15
981.882
962.521
970.679
970.05
953.64
931.002
914.442
899.116
896.042
898.654
903.673
911.336
923.079
937.669
953.077
965.462
984.283
1067.14
1042.4
945.625
914.366
949.206
968.446
968.158
947.265
907.501
873.354
859.182
860.534
865.841
874.874
887.361
903.608
921.443
940.796
955.639
977.358
1044.29
946.23
902.541
895.214
949.388
969.319
969.096
945.611
892.045
851.945
857.336
862.9
869.67
878.385
888.356
900.969
915.697
933.311
950.375
977.529
985.128
913.1
893.198
871.959
925.986
966.185
973.39
958.568
885.89
818.023
817.5
820.281
823.62
827.131
831.357
837.657
847.908
862.639
881.552
937.155
960.275
943.406
942.549
914.232
813.745
806.901
810.859
813.926
815.693
816.997
819.044
822.319
827.297
834.493
843.074
883.533
966.329
963.672
965.218
962.604
828.511
831.839
829.788
827.781
826.218
825.224
825.426
826.1
827.276
828.848
830.523
847.006
965.542
963.665
965.437
970.101
837.332
831.651
829.746
827.738
825.937
824.556
823.838
823.67
823.833
824.305
825.237
832.537
949.264
943.119
941.737
954.908
820.696
797.832
798.619
798.885
799.297
800.616
802.458
804.092
805.628
807.456
809.674
816.414
926.755
903.324
887.681
879.384
795.151
823.935
832.609
814.845
790.379
768.824
763.561
765.168
768.727
772.887
776.22
778.483
781.79
787.152
791.888
800.821
910.134
869.075
847.616
813.357
803.39
828.226
827.704
792.301
762.176
767.244
763.075
759.749
757.238
755.369
755.461
757.672
763.235
771.084
776.449
785.935
894.996
854.726
853.102
813.559
807.797
826.223
825.918
794.944
760.115
761.515
759.4
755.142
745.313
742.503
745.591
750.998
755.842
760.382
763.244
772.598
892.101
856.297
858.492
816.454
810.855
824.348
824.129
796.009
761.72
758.568
755.943
743.182
738.23
741.832
747.527
750.789
751.083
751.166
752.163
762.651
894.566
861.602
865.453
819.903
812.596
822.868
822.514
797.021
765.888
756.349
747.099
739.399
741.283
745.444
748.563
748.662
746.306
746.409
748.91
759.629
899.561
870.303
874.113
823.925
814.059
822.078
821.335
798.924
771.093
753.834
743.69
743.971
747.364
747.253
744.374
741.99
742.047
747.08
750.819
758.385
907.25
882.386
883.437
828.427
816.284
822.385
820.76
801.11
775.095
753.612
746.94
750.683
753.231
748.776
737.976
736.963
741.308
750.639
753.817
758.745
919.189
898.296
894.993
834.619
819.694
823.277
820.884
802.79
777.882
755.841
752.103
753.685
753.35
748.846
739.544
739.824
743.671
750.57
753.515
759.353
934.111
916.106
908.68
844.412
824.701
824.719
821.302
804.447
781.645
762.118
756.13
753.235
751.002
748.512
746.114
746.911
747.216
748.729
751.481
761.159
949.854
936.294
925.93
858.384
831.866
826.641
822.125
806.547
787.239
770.617
760.199
752.877
750.922
751.988
756.125
756.16
752.144
750.452
752.759
765.125
962.09
951.587
943.895
876.508
840.387
828.597
823.388
809.016
792.021
776.391
763.367
754.02
752.625
754.318
757.439
758.274
755.812
755.146
757.7
769.694
980.494
973.289
972.752
932.206
880.784
845.672
831.624
816.311
801.423
786.861
773.668
764.623
761.628
760.442
760.949
762.38
764.882
768.935
772.464
780.669
1087.52
1074.17
1038.49
974.54
960.289
971.648
970.744
953.948
930.863
914.728
899.601
896.914
899.661
905.041
912.883
924.932
940.012
956.039
968.7
987.359
1073.69
1031.28
933.534
912.359
950.364
969.663
968.828
947.299
906.996
873.236
860.918
862.194
867.57
876.844
889.23
905.35
923.463
943.377
959.211
981.338
1041.96
933.021
900.949
894.782
950.144
970.239
969.523
945.136
891.513
852.385
859.142
867.174
873.73
881.423
890.297
902.053
916.58
934.149
952.293
981.904
976.289
908.441
890.402
870.405
927.56
967.197
974.509
958.98
885.193
820.148
816.76
819.858
823.292
826.071
829.415
834.71
844.079
858.312
876.691
935.558
956.873
943.655
942.746
913.487
805.655
803.901
807.129
810.156
812.605
814.145
816.107
819.188
823.984
831.057
839.212
877.845
966.286
963.822
965.152
962.827
825.388
828.752
826.895
825.025
823.587
822.815
823.161
824.101
825.589
827.378
828.968
842.881
965.867
964.187
965.423
970.346
834.053
828.384
826.553
824.735
823.094
821.923
821.439
821.64
822.137
822.824
823.766
829.985
949.545
943.716
942.127
955.324
816.982
793.962
794.722
795.333
796.177
797.988
800.104
801.679
803.227
805.272
807.699
814.163
926.473
903.697
888.303
881.521
804.66
823.571
831.98
814.188
799.468
769.47
762.472
763.409
767.355
771.031
773.488
775.453
778.444
784.155
789.386
798.334
909.281
868.393
847.701
815.072
802.622
827.45
826.856
791.437
766.079
771.168
766.264
762.86
758.489
754.358
753.594
755.355
761.327
768.894
773.891
783.054
893.78
856.077
854.438
812.513
805.585
825.523
825.035
792.991
761.096
765.208
762.808
758.526
748.243
744.44
747.855
753.511
756.222
759.086
761.336
769.839
891.427
857.563
862.282
815.59
808.349
823.541
823.239
794.058
762.183
761.666
758.501
746.811
740.479
745.029
752.288
754.059
753.194
752.033
752.503
761.856
894.153
862.355
868.578
819.194
810.743
822.107
821.691
795.289
766.19
757.732
749.3
741.348
744.753
752.806
754.928
754.134
750.638
750.019
751.887
761.005
899.763
870.902
875.784
822.55
812.397
821.184
820.561
797.458
770.544
754.187
745.504
746.019
752.962
755.832
753.184
749.924
748.072
751.491
754.54
761.934
907.802
883.039
884.137
826.297
814.363
821.449
820.115
799.908
773.867
753.837
748.759
753.146
757.369
755.374
747.109
744.234
747.396
755.572
758.855
763.309
920.123
899.408
895.505
831.454
817.243
822.367
820.366
801.684
776.5
755.86
754.329
755.992
757.32
754.818
746.884
746.351
749.26
755.769
759.685
764.956
935.547
917.982
909.848
840.246
821.728
823.947
820.987
803.383
780.094
762.23
757.275
755.22
755.141
754.202
752.153
752.61
752.626
755.01
758.308
767.285
952.049
938.789
927.364
853.598
828.442
825.928
821.875
805.61
785.973
770.366
760.279
754.643
754.976
757.718
762.804
762.332
758.544
757.183
759.161
771.136
964.807
955.208
946.273
871.228
836.379
827.709
823.034
808.203
791.034
775.627
762.572
755.598
756.353
759.933
764.181
765.382
763.097
761.726
764.096
776.529
983.351
977.515
977.697
930.77
874.922
841.745
829.765
815.076
800.155
785.178
771.473
765.091
764.422
765.536
766.831
768.934
771.979
776.095
780.198
789.352
1090.93
1080.54
1034.78
968.061
958.933
972.123
971.054
953.785
929.746
913.301
898.293
896.651
899.725
905.801
914.266
926.665
942.05
958.624
971.788
990.48
1079.89
1018
922.154
910.074
950.499
970.002
969.167
947.186
905.582
871.089
860.813
862.342
867.954
877.838
890.756
907.151
925.66
945.826
962.379
985.205
1037.75
920.473
899.874
894.314
949.047
970.5
969.813
944.964
889.662
851.454
858.622
870.281
878.095
884.799
892.371
902.961
917.322
934.971
953.958
986.01
966.81
904.978
890.382
873.249
923.21
967.567
974.943
958.795
885.091
823.578
817.391
820.039
824.08
826.254
828.487
832.272
839.952
853.038
870.755
932.503
953.847
944.678
944.115
918.144
778.253
802.992
805.63
808.281
811.271
813.021
814.519
816.785
820.696
826.958
834.327
870.337
965.914
963.914
965.194
962.616
822.939
827.602
825.82
823.911
822.516
821.497
821.653
822.349
823.68
825.376
826.724
837.794
965.71
964.276
965.256
970.272
831.743
827.363
825.564
823.794
822.191
820.928
820.075
820.115
820.415
820.94
821.701
826.558
949.333
943.418
941.443
954.929
814.554
793.094
793.09
793.456
794.387
796.246
798.287
799.587
800.899
802.744
804.887
810.704
925.848
902.77
886.857
879.755
792.252
822.645
831.466
813.705
811.873
775.1
764.524
764.388
766.978
770.196
771.952
773.58
776.079
780.867
785.838
794.916
908.709
867.726
848.016
819.161
802.425
827.232
826.938
791.119
767.985
777.943
770.696
766.76
761.066
754.629
753.841
755.372
760.359
766.789
771.423
780.269
893.982
857.301
855.343
813.871
804.726
825.29
825.118
792.54
761.78
768.305
767.811
763.167
751.787
748.057
750.642
755.286
756.785
757.859
759.381
767.176
891.326
858.707
866.353
816.488
807.08
823.24
823.321
793.607
762.349
764.941
762.647
750.772
744.909
748.753
754.999
756.453
753.686
752.031
752.859
761.095
893.859
863.229
873.181
820.591
809.937
821.751
821.787
795.019
765.788
760.465
751.889
745.235
747.765
755.737
759.177
757.896
753.431
752.974
753.945
761.455
899.67
871.812
879.095
822.935
811.665
820.578
820.653
797.111
770.415
755.054
747.93
748.483
754.871
760.594
759.416
756.12
754.197
756.558
757.768
763.281
907.993
884.011
885.871
825.374
813.141
820.7
819.815
799.301
773.574
754.407
750.07
753.968
759.221
760.189
755.328
752.1
754.684
760.911
762.111
765.801
920.344
900.091
895.477
829.013
815.291
821.376
819.89
800.852
775.938
755.884
754.744
756.198
758.824
758.51
754.44
753.848
755.946
760.309
763.695
769.029
935.866
918.631
909.245
836.108
818.952
822.73
820.252
802.385
778.877
761.053
756.907
754.81
756.069
758.62
758.559
758.632
757.857
759.466
763.34
772.512
953.038
939.138
926.078
847.987
824.858
824.596
820.928
804.436
783.792
768.444
758.529
754.44
756.251
761.502
767.771
766.804
762.372
762.002
765.082
777.202
966.781
956.736
945.11
864.119
831.802
826.104
821.816
806.757
788.661
773.595
760.121
755.439
757.353
762.553
768.595
770.74
768.661
768.327
771.31
783.484
986.217
980.915
980.096
925.413
866.452
836.859
826.937
812.817
797.686
782.718
767.909
763.427
764.552
767.275
770.581
774.464
778.414
783.09
788.005
798.498
1093.27
1084.51
1031.96
963.844
958.34
972.366
971.429
953.808
928.888
912.021
896.724
896.251
899.331
906.046
915.047
927.847
943.29
960.175
973.515
991.92
1084.14
1012.23
917.347
908.706
951.817
970.582
969.657
947.429
904.417
869.094
859.869
861.704
866.956
877.042
891.04
908.234
926.982
947.321
964.065
986.794
1035.63
914.853
898.575
894.347
950.491
971.173
970.266
945.23
887.796
849.644
857.245
870.842
879.619
885.559
892.245
901.943
916.358
934.318
954.075
987.655
962.184
902.844
888.792
872.787
924.457
968.155
975.523
959.38
880.93
823.039
817.767
819.975
824.845
826.748
828.244
831.062
837.493
849.415
866.352
929.419
952.332
943.944
942.642
916.602
796.46
802.501
804.907
807.355
810.703
812.972
814.427
816.32
819.57
825.037
831.568
865.009
965.504
963.717
965.041
962.278
823.158
827.681
825.739
823.728
822.227
821.153
821.284
821.862
822.962
824.433
825.459
834.468
965.394
964.121
965.16
970.118
832.158
827.687
825.739
823.773
822.051
820.689
820.045
819.722
819.828
820.168
820.669
824.397
948.885
943.031
940.955
954.63
815.399
793.432
793.074
793.077
793.671
795.43
797.518
798.696
799.778
801.318
803.197
808.438
924.918
901.449
885.211
879.079
791.72
822.809
831.995
813.771
817.521
779.029
767.091
765.246
766.471
769.225
771.677
773.362
775.262
778.852
783.398
792.407
907.921
866.752
847.826
821.566
802.28
827.304
827.201
790.808
769.836
782.158
772.012
767.749
764.339
758.494
755.21
755.733
758.683
764.382
769.368
778.312
893.533
857.245
855.519
815.595
804.642
825.309
825.252
792.479
762.218
768.638
768.853
766.711
759.978
752.429
752.764
755.212
756.702
758.623
760.008
765.775
891.19
858.852
868.01
817.458
806.771
823.19
823.421
793.589
762.706
765.203
765.388
759.81
751.585
751.908
755.092
757.544
757.223
755.667
755.265
760.204
893.747
863.591
875.808
821.71
809.632
821.553
822.019
794.865
765.056
762.425
758.053
751.356
750.9
754.165
760.5
762.002
759.562
756.847
756.354
761.408
899.588
872.507
881.577
823.573
811.441
820.197
820.848
796.584
769.213
757.345
751.205
751.517
754.087
761.395
765.114
763.928
760.975
760.148
759.925
764.059
907.984
884.945
887.785
825.306
812.702
820.233
819.798
798.513
773.19
755.336
751.809
753.981
759.713
765.783
764.554
760.325
760.207
762.935
764.441
768.305
920.22
900.809
896.382
828.194
814.573
820.763
819.578
800.281
775.996
756.234
754.333
756.534
761.638
765.166
762.783
759.154
759.494
763.62
768.183
772.711
935.641
918.968
909.289
834.282
817.83
821.952
819.767
802.001
778.632
759.731
756.066
756.72
759.784
763.547
763.543
761.347
761.028
764.87
769.58
775.914
952.891
938.737
925.424
845.266
823.256
823.714
820.325
803.777
782.452
766.142
758.003
756.161
758.088
763.313
769.213
769.124
768.508
769.661
772.139
779.299
967.184
956.257
943.631
860.274
829.609
825.078
821.031
805.628
786.855
771.724
759.587
756.175
758.088
763.441
770.368
775.507
775.084
775.075
776.183
784.443
987.355
981.613
979.714
920.672
861.296
834.062
825.193
811.001
795.913
781.294
766.286
761.654
763.458
767.197
772.377
777.351
780.828
784.272
788.639
800.592
1093.33
1084.41
1030.98
963.037
958.429
972.666
971.61
953.978
928.933
912.123
896.842
896.016
898.998
905.911
915.262
928.283
943.785
960.688
973.93
992.246
1084.64
1011.98
916.511
908.09
952.424
971.124
969.867
947.578
904.536
869.372
860.221
861.968
866.681
876.435
890.854
908.439
927.368
947.912
964.701
987.312
1036.44
914.071
898.052
893.914
951.476
971.623
970.44
945.351
887.966
850.057
857.851
871.366
879.991
885.773
892.5
902.265
916.806
934.986
955.121
988.651
962.17
902.276
888.248
871.822
928.372
968.661
975.611
959.653
880.979
822.562
817.731
820.098
825.404
827.271
828.562
831.189
837.568
849.606
866.895
930.848
951.923
943.3
941.804
912.208
790.761
802.039
804.626
807.155
810.637
812.869
814.177
815.969
819.173
824.689
831.328
865.451
965.328
963.464
964.801
962.401
823.027
827.341
825.377
823.414
821.898
820.683
820.784
821.344
822.458
823.971
825.04
834.209
965.112
963.888
965.084
969.929
832.091
827.383
825.352
823.443
821.819
820.403
819.575
819.275
819.432
819.812
820.327
824.088
948.546
942.837
940.913
954.485
815.118
792.771
792.732
792.945
793.665
795.339
797.198
798.518
799.875
801.5
803.32
808.433
924.676
901.347
885.201
878.872
807.665
822.709
831.867
814.003
828.498
779.508
767.385
765.116
766.253
769.027
771.657
773.393
775.236
778.887
783.377
792.316
907.685
866.732
848.292
821.734
802.237
827.224
827.053
791.125
775.224
784.658
772.253
767.641
764.416
758.394
754.616
755.008
757.976
763.846
768.933
777.924
892.942
857.339
855.835
815.658
804.416
825.397
825.196
792.101
763.909
770.249
769.561
767.046
760.227
751.639
751.763
754.3
756.202
758.121
759.441
765.081
891.229
859.043
868.378
817.525
806.663
823.437
823.421
792.898
763.725
766.015
766.082
760.583
751.562
751.292
754.126
757.04
756.707
754.91
754.478
759.493
893.918
863.905
876.331
821.577
809.664
821.962
821.943
794.197
765.615
762.763
758.568
751.977
751.053
753.577
760.061
761.632
758.999
756.063
755.745
760.761
899.98
872.992
882.448
823.784
811.762
820.748
820.778
796.515
769.456
757.17
751.994
752.203
754.644
761.512
764.304
762.771
759.775
759.384
759.404
763.529
908.525
885.628
888.814
825.67
813.266
820.821
819.832
798.939
772.822
755.28
752.726
755.171
761.358
765.46
763.229
758.473
758.804
763.27
764.693
768.072
920.816
901.633
897.43
828.761
815.246
821.401
819.853
800.419
775.572
756.33
755.501
757.707
762.498
764.507
761.413
757.825
759.083
764.084
768.055
772.174
936.283
919.806
910.111
834.912
818.533
822.617
820.107
801.674
778.229
760.289
756.921
757.383
759.968
763.358
762.774
761.122
761.363
764.651
768.543
774.981
953.466
939.43
926.081
845.769
823.977
824.388
820.675
803.374
782.478
766.648
758.309
756.563
758.658
763.786
769.403
769.24
767.63
768.171
770.627
778.486
967.599
956.759
944.129
860.646
830.313
825.745
821.39
805.465
787.03
771.581
759.683
756.698
758.705
763.843
770.376
774.52
773.482
773.43
775.049
784.331
987.543
981.807
979.647
920.123
861.309
834.439
825.521
811.044
795.622
780.613
766.234
762.256
763.923
767.393
772.368
777.115
780.328
783.655
788.413
801.102
1091.13
1080.5
1032.93
966.41
959.333
972.733
971.664
954.208
929.599
913.058
897.981
896.375
899.383
905.897
914.872
927.66
943.089
959.65
972.722
991.225
1080.9
1017.49
921.102
909.592
952.808
971.208
969.874
947.747
905.131
870.748
861.002
862.454
867.382
877.268
891.09
908.237
927.068
947.466
963.86
986.253
1039.13
918.822
898.728
894.727
952.093
971.71
970.293
945.474
888.585
851.101
859.114
871.159
878.78
885.137
892.859
903.889
918.765
936.933
956.487
988.071
966.887
903.262
888.029
872.267
929.012
968.77
975.548
959.806
881.198
821.609
817.48
820.482
825.068
827.091
829.114
832.806
840.568
853.919
872.288
935.336
952.766
942.774
941.813
912.19
791.168
801.737
804.696
807.651
811.029
812.892
814.345
816.6
820.558
826.865
834.298
871.431
965.179
963.208
964.718
962.461
822.511
826.936
825.076
823.131
821.647
820.59
820.796
821.593
823.019
824.776
826.131
837.564
964.976
963.699
965.018
969.905
831.558
826.733
824.851
823.056
821.479
820.204
819.388
819.482
819.904
820.564
821.377
826.219
948.48
942.766
940.885
954.441
814.358
791.748
792.372
792.957
793.813
795.415
797.438
799.029
800.625
802.658
804.835
810.503
924.887
901.462
885.216
877.75
789.573
822.774
831.842
814.233
818.729
774.467
764.382
763.774
765.893
769.423
771.633
773.39
775.843
780.399
785.291
794.415
907.942
867.049
848.014
820.529
802.661
827.639
827.323
791.696
773.726
780.627
770.887
766.659
761.761
755.17
753.704
754.693
758.997
765.535
770.451
779.383
892.579
856.93
855.796
815.817
805.219
825.617
825.391
792.633
763.9
770.402
768.65
764.353
754.034
748.249
749.842
754.335
756.096
757.128
758.548
765.951
891.577
858.584
867.473
818.075
807.633
823.553
823.556
793.529
763.697
766.23
764.186
753.571
745.676
748.183
753.846
756.031
753.751
751.879
752.515
760.229
894.434
863.876
875.245
822.014
810.548
822.115
822.009
794.688
766.255
761.455
753.828
746.245
748.047
753.998
759.109
758.467
754.045
753.001
753.778
760.971
900.507
873.137
881.778
824.515
812.434
821.063
820.842
796.667
770.32
755.749
749.142
749.439
755.062
761.238
760.252
757.113
754.633
756.453
757.913
763.365
909.047
885.706
888.563
826.927
813.98
821.209
819.978
799.013
773.298
754.895
751.214
755.312
761.155
761.629
756.334
752.024
754.269
761.871
763.304
766.175
921.531
901.931
897.852
830.453
816.166
821.915
820.077
800.702
775.644
756.205
756.074
757.81
760.839
760.29
754.808
753.299
756.101
762.016
764.902
769.071
937.216
920.479
911.042
837.22
819.791
823.275
820.532
802.252
778.454
761.238
757.844
756.232
757.617
759.698
758.518
758.984
759.398
761.02
764.08
772.177
954.326
940.842
927.526
848.731
825.603
825.134
821.242
804.205
783.292
768.233
759.201
755.699
757.419
762.198
768.381
767.987
763.947
762.762
765.338
776.775
967.916
958.232
946.202
864.396
832.36
826.595
822.09
806.35
788.155
773.338
760.774
756.524
758.491
763.734
769.865
771.312
768.975
768.118
770.908
783.51
986.925
981.941
980.808
924.707
865.797
836.718
826.884
812.2
797.14
782.441
768.422
764.449
765.733
768.855
772.139
775.133
778.213
782.333
787.625
799.144
1087.62
1073.89
1036.29
973.162
961.182
972.709
971.527
954.423
930.532
914.113
898.941
896.568
899.315
904.956
913.262
925.611
940.659
956.481
968.957
987.692
1074
1029.78
932.65
913.003
952.424
971.052
969.712
947.883
906.074
872.079
860.575
861.774
866.981
876.475
889.72
906.575
924.963
944.863
960.154
981.908
1042.61
931.471
900.806
896.003
952.263
971.561
970.339
945.788
889.827
851.652
859.193
867.876
874.506
882.075
891.395
903.943
919.23
937.39
955.666
983.885
976.04
907.018
889.402
872.358
929.738
968.742
975.665
959.926
882.053
819.899
817.22
820.558
824.179
826.964
830.301
835.693
845.445
860.301
879.812
939.517
955.616
942.51
942.091
912.656
796.184
802.501
806.177
809.673
812.469
814.061
816.017
819.083
823.911
831.06
839.444
880.138
965.421
963.18
964.805
962.49
822.398
827.641
825.827
824.008
822.556
821.8
822.172
823.164
824.691
826.475
828.098
843.042
965.094
963.617
965.174
970.004
831.148
827.184
825.501
823.808
822.175
820.973
820.504
820.691
821.218
821.955
822.905
829.315
948.741
943.105
941.591
954.889
813.766
792.223
793.494
794.127
794.889
796.622
798.888
800.671
802.323
804.384
806.792
813.282
925.696
902.724
887.023
879.941
807.302
823.966
832.484
814.617
806.57
772.613
762.759
762.84
766.055
770.207
773.05
774.922
777.644
782.985
788.194
797.302
908.654
868.183
848.651
817.597
803.021
828.185
827.634
792.312
768.679
773.656
767.349
763.801
759.77
755.048
753.427
754.643
759.934
767.624
772.835
781.914
892.614
856.069
855.605
814.47
806.183
826.161
825.764
793.772
762.267
766.973
764.533
760.977
750.75
744.722
747.505
753.333
756.142
758.889
760.799
768.504
891.874
857.746
864.121
817.276
809.029
824.124
823.947
794.528
762.851
763.898
761.404
749.865
740.979
744.671
751.89
754.898
753.98
752.187
752.377
761.065
894.701
863.174
871.127
820.663
811.517
822.675
822.329
795.385
766.487
760.173
751.929
742.112
744.819
752.465
756.603
755.842
751.933
750.617
752.164
761.154
900.472
872.171
878.587
823.885
813.18
821.722
821.122
797.355
771.085
755.61
746.247
746.258
753.562
758.236
755.59
752.041
749.262
752.19
755.393
762.733
908.826
884.718
886.599
827.403
815.054
821.965
820.584
799.909
774.349
754.276
749.039
753.812
759.176
757.467
749.08
744.862
747.977
757.136
760.72
764.399
921.498
901.348
897.378
832.197
817.775
822.821
820.786
801.77
776.533
755.707
754.932
757.287
758.931
756.14
747.261
746.515
750.082
757.758
761.375
765.633
937.24
920.057
911.219
840.416
822.053
824.342
821.339
803.354
779.546
761.493
757.998
756.519
755.966
754.348
751.674
752.736
753.631
756.42
759.583
767.423
953.874
941.063
928.418
853.113
828.501
826.258
822.153
805.387
785.107
769.833
760.972
755.127
755.063
757.239
762.764
763.094
759.628
758.168
759.889
770.867
966.635
957.496
947.348
870.04
836.101
827.973
823.225
807.856
790.384
775.363
763.069
755.726
756.401
760.351
765.673
766.288
763.781
761.841
763.967
776.142
984.753
979.392
979.174
929.574
873.134
840.966
829.456
814.516
799.637
784.816
771.393
765.02
765.285
767.053
768.589
769.888
771.988
775.408
779.548
789.284
1082.86
1067.49
1038.71
980.198
963.309
972.08
970.799
954.104
930.947
914.464
899.246
895.787
898.36
903.508
911.523
923.43
937.886
952.983
965.17
984.101
1067.15
1040.6
944.638
916.257
951.376
970.068
968.857
947.512
907.169
873.472
859.438
860.491
865.395
874.342
887.213
903.834
921.788
941.087
955.607
977.055
1044.79
945.032
902.867
897.476
951.335
970.552
969.651
945.663
891.753
852.333
857.973
863.319
869.688
878.169
888.544
901.893
917.284
935.496
952.515
978.119
985.429
911.408
891.798
872.548
929.728
968.066
974.972
959.479
885.438
817.702
817.423
820.417
823.795
827.246
831.512
838.182
849.221
864.92
885.197
940.695
959.467
942.498
942.105
913.345
810.148
805.23
809.451
812.937
814.907
816.258
818.368
821.769
826.943
834.501
843.559
886.602
965.465
963.01
964.894
962.555
824.99
830.299
828.316
826.384
824.814
823.905
824.152
824.876
826.049
827.631
829.395
847.678
964.909
963.358
965.336
970.176
833.445
829.857
828.042
826.129
824.382
823.053
822.388
822.329
822.498
822.994
823.951
831.839
948.595
943.023
941.95
955.172
816.23
795.569
796.787
797.13
797.654
799.134
801.126
802.79
804.29
806.097
808.348
815.304
925.942
903.211
888.193
879.392
794.848
823.502
832.21
814.678
802.566
766.602
761.896
763.574
767.451
771.915
775.011
777.01
780.198
785.595
790.44
799.511
908.957
868.699
848.43
813.606
802.694
827.927
827.541
792.35
762.299
766.636
762.679
759.974
756.972
754.02
753.757
755.7
761.407
769.598
774.988
784.397
893.217
854.559
854.101
813.585
807.083
826.046
825.846
794.699
759.474
761.356
759.826
755.611
744.631
741.166
744.565
750.415
755.111
759.247
761.83
770.859
891.397
856.279
859.525
816.137
810.179
824.179
824.092
795.561
761.182
758.802
756.117
742.411
737.003
740.765
747.31
750.962
750.883
750.262
751.032
761.245
894.03
861.559
866.41
819.358
812.05
822.658
822.431
796.5
765.608
756.437
746.268
737.942
740.156
745.589
749.301
749.235
746.166
746.03
748.468
759.065
899.469
870.292
874.907
823.331
813.555
821.83
821.219
798.543
771.007
753.342
742.291
742.404
746.922
747.862
745.358
742.433
742.113
746.779
750.684
758.373
907.727
882.843
884.008
827.767
815.74
822.137
820.751
800.981
774.889
752.724
745.634
749.445
752.751
748.58
737.724
736.588
741.045
751.025
754.429
758.813
920.383
899.401
895.337
833.665
819.039
823.047
820.902
802.692
777.357
754.726
751.297
753.056
752.766
747.87
738.511
739.025
743.345
751.498
754.46
759.315
935.878
917.852
909.037
842.943
823.851
824.519
821.308
804.2
780.817
760.989
755.622
752.725
749.961
746.936
744.516
745.898
747.282
749.637
752.164
760.71
952.015
938.838
926.438
856.371
830.745
826.424
822.021
806.081
786.398
769.846
759.708
751.998
749.532
750.308
754.91
755.645
752.289
750.764
752.847
764.35
964.225
954.249
944.963
873.937
838.868
828.247
823.142
808.417
791.334
775.751
762.653
752.89
751.327
753.276
757.17
758.081
755.55
754.602
757.051
768.843
982.086
975.408
974.753
930.836
877.994
843.86
830.617
815.336
800.548
785.913
772.542
763.37
761.079
760.499
761.156
762.325
764.28
767.914
771.476
779.969
1082.17
1067.43
1044.1
986.662
965.689
972.229
971.037
954.663
932.677
916.503
901.345
897.772
900.084
904.967
913.032
925.066
939.453
954.153
966.001
984.572
1066.72
1047.93
953.395
918.838
950.381
969.297
968.54
947.305
908.417
875.937
860.889
862.067
867.034
876.301
889.72
906.47
924.343
943.284
957.49
978.159
1050.02
955.112
904.777
898.554
949.61
969.359
968.63
945.149
892.607
854.427
859.164
863.633
870.45
880.112
891.459
905.017
920.354
938.499
955.176
979.552
992.849
914.692
893.637
872.902
927.975
966.932
973.683
958.285
885.189
816.335
817.905
822.176
826.39
830.659
835.891
843.558
855.484
871.812
892.86
945.934
962.763
942.226
941.435
913.743
809.721
806.396
811.321
815.211
817.39
819.115
821.767
825.85
831.822
840.161
850.102
894.82
965.908
962.592
964.436
962.535
826.761
831.387
829.47
827.882
826.457
826.449
826.976
828.111
829.683
831.666
833.896
854.915
965.12
963.039
964.916
969.993
835.33
831.114
829.381
827.697
826.425
825.328
825.153
825.381
825.839
826.754
828.097
837.55
948.859
942.42
941.022
954.947
818.565
797.007
798.867
799.505
800.367
801.837
803.766
805.977
808.211
810.42
812.795
820.462
926.898
902.917
886.901
878.772
796.166
823.413
832.052
814.435
782.687
761.048
761.491
764.442
768.368
773.229
777.623
781.204
785.545
790.794
795.093
804.638
910.276
869.641
849.084
812.233
803.327
828.202
827.882
792.726
756.504
761.345
755.906
753.908
754.931
755.937
757.549
761.071
766.383
773.918
779.63
790.236
895.399
854.985
853.894
814.15
808.594
826.3
826.299
795.933
757.686
755.275
752.86
748.759
744.239
744.184
746.907
751.337
756.908
762.929
767.113
777.77
893.146
856.983
858.571
817.709
812.016
824.772
824.833
797.436
761.253
754.511
751.221
742.319
739.475
741.412
745.693
750.535
752.867
754.56
756.755
767.854
895.676
862.642
866.277
821.64
813.977
823.46
823.652
798.817
766.48
754.943
747.262
741.535
740.906
742.193
745.469
749.061
749.194
750.578
753.284
763.816
900.828
871.895
876.355
826.344
815.806
823.494
822.803
800.873
772.431
755.415
746.467
744.964
744.742
743.002