/*--------------------------------*- C++ -*----------------------------------*\
  =========                 |
  \\      /  F ield         | OpenFOAM: The Open Source CFD Toolbox
   \\    /   O peration     | Website:  https://openfoam.org
    \\  /    A nd           | Version:  9
     \\/     M anipulation  |
\*---------------------------------------------------------------------------*/
FoamFile
{
    format      ascii;
    class       volVectorField;
    location    "0.008";
    object      U;
}
// * * * * * * * * * * * * * * * * * * * * * * * * * * * * * * * * * * * * * //

dimensions      [0 1 -1 0 0 0 0];

internalField   nonuniform List<vector> 
9720
(
(-516.847 -518.32 27.9491)
(-408.874 -571.227 30.7608)
(-411.548 -702.614 13.7808)
(-534.333 -940.947 -9.22042)
(-355.416 -1136.95 -7.71065)
(-105.228 -1129.3 -8.71747)
(103.091 -1124.6 -10.7381)
(373.414 -1141.21 -6.8623)
(667.229 -1122.62 -10.4096)
(891.592 -1007.97 -7.76603)
(1046.85 -862.137 1.64286)
(1161.92 -740.424 -7.01621)
(1224.76 -628.829 -9.18977)
(1284.37 -550.322 7.1448)
(1331.33 -489.944 23.7135)
(1372.21 -441.348 18.6839)
(1367.04 -402.883 6.69385)
(1373.69 -371.069 4.03071)
(1366.13 -336.915 9.45342)
(1394 -314.04 9.94057)
(-567.486 -410.147 33.1335)
(-481.564 -483.871 27.6772)
(-780.002 -787.272 -2.93265)
(-770.335 -1063.21 -21.4486)
(-411.473 -1156.59 -7.36287)
(-112.957 -1136.78 -8.76779)
(108.979 -1130.18 -6.42732)
(418.086 -1153.05 -6.53581)
(810.669 -1097.03 -1.56759)
(1092.41 -898.715 -9.48409)
(1252.41 -682.622 5.03257)
(1361.92 -563.655 6.0538)
(1452.77 -484.556 -2.13852)
(1513.81 -424.385 8.67814)
(1575.73 -395.021 17.8251)
(1613.34 -350.091 19.8524)
(1608.78 -310.503 11.342)
(1584.6 -265.077 2.36045)
(1545.01 -231.758 5.72394)
(1516.83 -239.786 10.5131)
(-685.534 -395.947 24.3844)
(-778.234 -768.63 8.30078)
(-932.859 -927.775 -8.9002)
(-813.61 -1085.87 -32.5944)
(-438.267 -1117.56 -4.78354)
(-122.722 -1130.61 -5.89439)
(122.129 -1122.6 -4.10641)
(451.309 -1132.36 -4.4584)
(896.927 -984.157 -0.480182)
(1175.15 -710.3 -9.01888)
(1340.2 -509.477 -16.7849)
(1524.42 -453.657 2.83324)
(1688.72 -442.919 15.5872)
(1804.42 -428.484 -3.17518)
(1891.87 -421.389 -21.4091)
(1938.42 -385.592 -29.2502)
(1949.63 -330.715 -14.9805)
(1918.26 -279.614 -11.7526)
(1883.19 -208.494 -12.4816)
(1771.56 -175.714 -6.99976)
(-929.446 -514.76 4.47669)
(-1057.21 -764.974 2.83439)
(-1085.21 -804.471 10.139)
(-1023.14 -988.946 -23.5706)
(-634.184 -1124.71 -12.9161)
(-220.351 -1112.37 -3.3038)
(47.3834 -1104.93 -8.76324)
(339.148 -1105.94 -3.68763)
(896.149 -1025.61 -17.132)
(1768.31 -728.412 -22.0017)
(1961.84 -678.126 -37.9225)
(2066.32 -654.135 -26.4495)
(2133.27 -643.401 -14.1809)
(2173.64 -623.151 -18.819)
(2201.73 -592.343 -18.5607)
(2205.89 -546.229 -30.6222)
(2218.79 -481.092 -22.8907)
(2189.69 -412.83 -19.2778)
(2198.46 -292.939 -21.2533)
(2040.25 -114.677 -14.2107)
(-1131.23 -356.34 -7.54483)
(-1156.16 -414.416 -6.22016)
(-1116.39 -441.791 -0.907977)
(-1120.15 -610.371 -2.43372)
(1960.36 -700.581 -44.7756)
(2331.44 -469.294 -18.7639)
(2349.8 -463.784 -16.1892)
(2362.5 -448.743 -21.1987)
(2376.03 -426.978 -22.1219)
(2386.01 -402.624 -29.6061)
(2398.66 -373.031 -29.4664)
(2392.36 -350.545 -24.5686)
(2391.57 -323.879 -25.1899)
(2371.19 -299.744 -26.0308)
(2353.72 -260.458 -25.8105)
(2241.2 -122.942 -21.492)
(-1131.87 -105.584 -8.62269)
(-1141.54 -114.358 -8.3059)
(-1135.86 -124.551 -6.23125)
(-1116.61 -221.536 -5.24944)
(2320.69 -222.428 -19.9573)
(2355.09 -117.367 -18.2845)
(2357.37 -113.524 -19.3664)
(2359.78 -111.791 -21.5287)
(2360.69 -108.975 -22.5337)
(2359.3 -106.193 -22.4543)
(2357.16 -104.167 -24.248)
(2351.84 -102.46 -25.6887)
(2349.22 -97.3355 -26.4558)
(2342.71 -88.3786 -26.8985)
(2343.58 -76.733 -27.2047)
(2307.35 -21.3148 -25.2911)
(-1127.58 104.445 -15.5718)
(-1133.56 108.476 -12.0406)
(-1126.49 121.936 -7.48928)
(-1108.02 46.9433 -15.0837)
(2336.32 32.9166 -21.2846)
(2367.71 122.622 -18.1313)
(2371.66 116.127 -19.8529)
(2375.98 110.504 -18.4658)
(2377.98 106.053 -19.6962)
(2379.55 103.474 -24.2094)
(2383.22 101.13 -27.3747)
(2384.52 101.139 -27.0086)
(2386.46 102.447 -25.0883)
(2387.09 104.414 -24.1259)
(2387.5 106.858 -25.8467)
(2372.13 124.75 -26.5069)
(-1145.51 375.891 -13.2248)
(-1158.24 422.635 -13.3485)
(-1135.85 457.628 -11.5519)
(-1108.73 339.158 -11.1953)
(2351.74 307.718 -22.1077)
(2388.72 489.264 -24.9548)
(2398.35 466.614 -7.64733)
(2404.8 452.178 -12.2805)
(2411.88 434.934 -30.1565)
(2413.32 413.485 -38.9324)
(2416.73 397.154 -28.3291)
(2418.7 377.669 -15.1435)
(2412.81 364.123 -17.5115)
(2412.34 350.681 -28.1986)
(2415.11 332.885 -30.4913)
(2402.91 324.335 -26.4671)
(-1124.92 672.842 -17.4179)
(-1095.72 820.181 -13.5214)
(-975.553 906.923 -19.4874)
(-1014.49 924.638 -39.3001)
(-683.421 2028.84 -35.9603)
(-221.701 2262 -24.05)
(36.1877 2280.79 -20.6886)
(317.673 2296.35 -19.0431)
(1593.13 1839.45 -51.0748)
(2161.76 1105.19 35.586)
(2284.45 960.756 -28.6982)
(2324.97 877.821 -56.5313)
(2362.33 827.64 -37.8324)
(2394.96 771.059 -0.650765)
(2398.44 714.515 14.0945)
(2410.38 676.719 -8.50003)
(2424.14 631.977 -43.0051)
(2418.71 594.241 -44.8835)
(2434.65 567.564 -28.2242)
(2432 526.865 -20.1168)
(-1005.51 893.681 -18.2605)
(-892.162 1097.26 -24.7986)
(-701.673 1180.75 -30.2311)
(-723.202 1768.72 -46.4707)
(-470.347 2281.42 -18.7649)
(-115.451 2303.16 -20.1519)
(128.322 2316.2 -17.8124)
(500.993 2339.19 -21.7096)
(1047.58 2181.67 26.3913)
(1613.32 1678.74 -55.381)
(1976.23 1354.64 -170.515)
(2084.64 1209.35 -43.4136)
(2177.43 1125.81 31.9676)
(2255.39 1064.66 34.8015)
(2303.08 1001.1 -15.4727)
(2332.17 928.048 -67.2254)
(2369.82 876.991 -64.4983)
(2376.3 821.45 -24.0688)
(2399.16 779.671 -5.91739)
(2415.39 720.692 -16.3387)
(-860.449 1049.34 -12.9504)
(-680.834 1257.8 -14.7054)
(-502.689 1340.79 -34.943)
(-665.737 1943.14 -49.2121)
(-463.152 2301.66 -16.6592)
(-111.749 2308.32 -20.9887)
(121.559 2322.84 -18.9211)
(471.887 2338.51 -6.35381)
(930.011 2273.21 -10.1567)
(1345.17 2057.51 -150.549)
(1713.24 1762.94 -69.6311)
(1870.52 1474.52 91.6977)
(1966.36 1342.11 34.7309)
(2090.62 1302.67 -42.9013)
(2186.76 1240.67 -95.4479)
(2215.2 1163.13 -74.8602)
(2277.37 1103.3 -16.8257)
(2305.94 1027 16.9059)
(2337.3 988.231 -5.06642)
(2373.73 907.934 -22.7375)
(-737.584 1161.15 -23.1002)
(-561.092 1361.45 -17.0663)
(-458.938 1525.37 -14.8212)
(-653.553 2041.41 -29.7073)
(-445.751 2316.49 -22.7369)
(-109.579 2310.86 -23.9588)
(115.168 2329.37 -18.107)
(452.367 2343.76 -8.43387)
(844.645 2284.93 -57.4501)
(1213.62 2141.8 -39.4422)
(1486.52 1957.5 101.448)
(1648.51 1701.78 59.1786)
(1791.27 1499.36 -88.3861)
(1930.24 1472.92 -136.353)
(2034.23 1433.41 -89.281)
(2070.96 1344.77 -16.7112)
(2141.59 1279.9 26.637)
(2197.49 1220.04 15.7648)
(2246.19 1174.47 -29.6698)
(2297.66 1070.52 -37.433)
(-625.746 1223.58 -27.4655)
(-480.006 1447.82 -28.0496)
(-452.751 1686.6 -1.20745)
(-643.012 2105.94 -21.4272)
(-421.874 2330.99 -22.9103)
(-106.063 2311.31 -24.6429)
(110.412 2331.89 -21.2204)
(434.499 2353.94 -25.5778)
(793.06 2311.72 -48.8104)
(1107.31 2187.13 32.2017)
(1366.67 2027.48 55.966)
(1520.71 1866.98 -62.1451)
(1648.71 1675.34 -147.9)
(1761.51 1556.08 -95.8255)
(1894.94 1547.76 1.47982)
(1949.02 1487.65 42.1893)
(2024.7 1454 34.5818)
(2095.85 1399.92 -21.3684)
(2136.34 1329.85 -61.3716)
(2206.13 1218.04 -47.6021)
(-548.28 1282.93 -11.0666)
(-427.209 1513.16 -16.6581)
(-424.237 1791.39 -14.2438)
(-616.734 2136.18 -26.3344)
(-396.05 2341.46 -32.2616)
(-103.369 2310.01 -25.4752)
(107.048 2334.79 -24.5186)
(411.771 2359.02 -36.3981)
(740.042 2332.69 -10.9112)
(1035.88 2234.71 37.306)
(1299.81 2119.24 -18.9374)
(1487.11 1987.17 -106.12)
(1555.67 1805.45 -82.6801)
(1649.53 1671.44 31.9786)
(1803.26 1647.35 81.1423)
(1868.41 1599.74 53.7411)
(1931.13 1572.66 9.36242)
(1980.01 1507.52 -54.1373)
(2008.9 1448.08 -56.0665)
(2100.62 1353.12 -30.963)
(-491.663 1332.92 7.05683)
(-404.825 1575.98 -3.09425)
(-415.702 1869.94 -28.0413)
(-582.344 2160.52 -23.9277)
(-366.138 2353.69 -29.8044)
(-101.106 2308.21 -27.8502)
(104.489 2338.63 -25.1602)
(394.067 2363.96 -27.7789)
(686.506 2336.27 8.61196)
(971.652 2265.05 -8.9708)
(1221.61 2184.65 -80.8481)
(1422.82 2059.59 -72.7714)
(1536.43 1927.36 7.11911)
(1625.06 1827.57 73.3309)
(1757.6 1788.82 75.9902)
(1857.03 1731.02 22.9999)
(1902.64 1673.48 -45.8501)
(1900.47 1610.41 -65.2716)
(1916.99 1574.12 -27.6465)
(2018.16 1483.21 -0.825396)
(-443.255 1373.91 4.53993)
(-362.619 1615.48 5.27493)
(-383.475 1918.02 -34.641)
(-533.972 2167.4 -38.1624)
(-343.753 2346.92 -25.2987)
(-99.4054 2303.15 -28.9583)
(102.354 2341.23 -25.9558)
(374.297 2367.13 -18.2475)
(654.975 2352.25 -7.7174)
(900.376 2288.47 -61.7909)
(1136.3 2199.03 -71.9288)
(1324.33 2076.04 -14.5837)
(1467.1 1952.86 43.0526)
(1582.5 1859.62 49.8473)
(1693.47 1868.05 16.3438)
(1801.95 1831.12 -47.6378)
(1839.52 1761.04 -77.1093)
(1855.9 1696.49 -41.635)
(1895.85 1666.61 24.9131)
(1980 1593.96 23.1677)
(-405.775 1368.76 -5.39001)
(-320.215 1612.65 1.93397)
(-331.87 1931.66 -17.946)
(-469.653 2181.79 -27.6472)
(-317.059 2346.14 -27.7004)
(-94.2008 2301.02 -29.3277)
(102.61 2343.95 -26.6781)
(358.565 2359.97 -18.9381)
(614.976 2366.95 -38.8578)
(851.512 2323.78 -62.7148)
(1076 2250.21 -22.1951)
(1256.72 2136.66 26.0494)
(1427.55 2018.22 40.7824)
(1545.01 1906.05 13.9898)
(1642.97 1876.42 -48.4289)
(1736.01 1834.92 -81.2009)
(1783.22 1791.99 -47.8409)
(1842.19 1758.51 25.7792)
(1901.39 1751.46 61.5914)
(1949.6 1688.53 31.8079)
(-373.784 1372.89 -7.49652)
(-267.803 1586.98 -5.60243)
(-279.837 1903.03 -16.5184)
(-404.731 2153.08 -23.7092)
(-293.258 2325.57 -28.7124)
(-85.6376 2294.38 -29.5523)
(103.663 2344.35 -28.3042)
(344.487 2360.29 -24.1536)
(579.598 2363.87 -40.4792)
(800.384 2328.97 -27.1627)
(1004.57 2275.86 11.2588)
(1193.47 2179.2 15.7041)
(1365.96 2072.32 -12.2186)
(1470.59 1951.71 -47.7143)
(1577.44 1869.67 -66.6842)
(1681.78 1834.76 -49.0247)
(1737.31 1841.02 13.6578)
(1820.97 1841.41 54.6552)
(1866.35 1830.87 38.7785)
(1904.73 1756.11 3.07126)
(-338.601 1363.28 -1.67527)
(-225.63 1540.78 -1.46264)
(-205.507 1868.66 -12.4379)
(-292.042 2162.19 -25.9818)
(-254.556 2308.26 -28.6417)
(-74.0408 2293.78 -29.8804)
(106.059 2344.14 -29.8737)
(325.926 2361.62 -27.4941)
(553.294 2380.43 -26.0417)
(762.167 2355.3 -9.15819)
(966.399 2307.53 -5.33915)
(1146.15 2221.15 -24.5599)
(1298.22 2115.8 -53.1772)
(1415.26 1991.63 -47.6648)
(1541.15 1891.65 -26.6758)
(1638.01 1851.01 7.95219)
(1708.58 1864.15 39.1137)
(1804.91 1852.9 35.169)
(1829.43 1819.7 -0.557868)
(1861.81 1764.87 -9.61585)
(-315.625 1391.12 0.292891)
(-233.379 1511.21 2.84945)
(-172.105 1757.81 -5.67749)
(-114.332 2009.05 -14.2817)
(-119.963 2195.8 -22.2731)
(-17.4901 2254.65 -27.5193)
(123.871 2327.04 -29.0832)
(318.329 2347.87 -26.8501)
(514.358 2376.69 -20.3115)
(703.688 2370.06 -15.4586)
(888.197 2339.56 -17.4423)
(1047.73 2270.31 -28.0227)
(1195.49 2188.46 -37.2355)
(1326.44 2087.58 -18.9729)
(1452.25 1996.09 3.34594)
(1558.41 1936.18 10.6186)
(1645.95 1906.41 13.2034)
(1718.3 1865.59 -4.38405)
(1756.8 1829.73 -11.8274)
(1809.32 1796.18 6.94065)
(-517.62 -520.217 34.8623)
(-405.462 -575.275 49.7738)
(-427.957 -726.488 61.4526)
(-556.282 -976.316 18.5196)
(-354.928 -1161.2 -0.580065)
(-103.148 -1149.76 -4.55339)
(103.721 -1143.26 -5.49197)
(376.594 -1160.46 -1.06113)
(672.653 -1139.23 2.03738)
(895.904 -1021.75 5.60118)
(1054.37 -874.647 15.6013)
(1169.88 -750.003 13.0788)
(1229.67 -634.562 10.815)
(1288.13 -553.202 25.5521)
(1336.19 -491.981 43.4983)
(1378.67 -441.126 42.1208)
(1372.49 -402.34 31.8571)
(1377.46 -370.224 26.6091)
(1368.34 -335.695 25.1965)
(1395.3 -313.703 19.7284)
(-568.322 -409.113 51.7955)
(-489.397 -497.396 72.6059)
(-812.789 -840.366 43.9772)
(-769.301 -1105.92 -8.94543)
(-405.267 -1175.06 -8.66751)
(-108.908 -1160.33 -7.01573)
(110.815 -1152.16 -3.95235)
(421.1 -1176.22 -3.75479)
(815.469 -1116.13 10.4773)
(1100.87 -914.662 10.8663)
(1266.15 -695.689 23.1525)
(1376.74 -573.009 28.6131)
(1464.51 -487.426 19.9732)
(1525.9 -423.252 34.1666)
(1590.08 -393.667 48.5986)
(1628.87 -349.366 51.691)
(1625.21 -309.547 46.9962)
(1600.64 -263.859 40.5325)
(1555.87 -225.985 38.5025)
(1522.08 -233.33 26.8064)
(-699.175 -413.072 68.773)
(-823.087 -812.393 56.2309)
(-950.062 -956.98 1.38344)
(-811.366 -1125.02 -6.82079)
(-425.245 -1145.53 -3.55845)
(-120.786 -1160.94 -4.92473)
(122.899 -1150.5 -2.48945)
(454.408 -1161.8 -3.28771)
(902.695 -1006.75 14.1634)
(1197.22 -728.353 21.08)
(1361.11 -518.901 14.045)
(1544.42 -455.294 26.4892)
(1711.97 -451.36 38.3041)
(1833.8 -439.056 27.8197)
(1923.75 -428.088 18.9417)
(1968.83 -389.738 10.6585)
(1978.91 -334.475 25.2027)
(1946.74 -281.583 26.0626)
(1909.29 -205.753 31.8393)
(1788.9 -168.839 25.2715)
(-956.668 -538.414 30.7785)
(-1091.41 -778.931 9.00102)
(-1106.41 -830.654 9.38956)
(-1011.31 -1048.48 8.94941)
(-588.349 -1155.76 -5.61963)
(-220.089 -1156.19 -0.338257)
(47.158 -1138.28 -7.37402)
(338.777 -1137.5 -1.75939)
(894.357 -1063.31 11.7161)
(1813.23 -739.897 11.1718)
(2008.66 -691.563 -1.07369)
(2108.4 -659.289 5.54684)
(2173.62 -650.654 13.3599)
(2214.44 -631.274 8.8413)
(2241.14 -601.471 14.8189)
(2243.41 -558.321 5.46341)
(2253.38 -494.736 16.9462)
(2222.08 -426.523 22.5612)
(2230.81 -309.34 29.2046)
(2069.64 -120.57 34.7151)
(-1153.07 -361.374 2.91393)
(-1173.87 -420.12 -5.1888)
(-1141.37 -447.302 0.869917)
(-1156.36 -634.41 5.27111)
(2009.72 -699.601 -5.08587)
(2381.79 -474.003 -8.07232)
(2396.88 -467.392 -2.62337)
(2407.03 -452.201 -5.28497)
(2418.24 -430.369 -3.11504)
(2426.41 -405.614 -8.49712)
(2437.99 -376.997 -6.63388)
(2432.16 -354.106 0.721673)
(2429.64 -327.877 5.45212)
(2408.95 -305.216 7.42551)
(2389.85 -269.506 12.2719)
(2277.37 -134.889 24.5809)
(-1149.59 -106.313 -1.93302)
(-1161.54 -114.431 -5.19082)
(-1161.99 -124.234 -5.68428)
(-1150.54 -221.896 -4.59114)
(2378.23 -223.339 -13.0019)
(2404.55 -116.966 -10.7805)
(2403.5 -113.63 -9.7454)
(2402.85 -110.733 -8.71996)
(2402.15 -108.163 -6.28389)
(2399.61 -106.073 -3.15284)
(2396.12 -103.537 -1.13507)
(2389.82 -102.515 -0.00125133)
(2385.46 -98.1039 1.53985)
(2377.73 -89.7077 1.65425)
(2376.57 -79.1549 3.78526)
(2341.55 -27.8238 12.459)
(-1145.57 103.409 -8.90334)
(-1154.46 109.152 -7.75223)
(-1152.3 121.792 -5.59107)
(-1137.34 46.0868 -11.9203)
(2394.48 33.2084 -14.3208)
(2419.79 124.022 -9.01014)
(2420.01 116.631 -9.93004)
(2421.19 112.628 -5.77806)
(2421.76 108.015 -2.64028)
(2423.32 104.099 -3.01047)
(2424.92 101.687 -3.28385)
(2424.81 101.446 -2.77411)
(2425.14 102.521 0.262863)
(2424.4 104.635 4.74731)
(2423.3 106.278 5.08728)
(2408.88 121.248 7.74526)
(-1163.72 376.486 -9.09557)
(-1178.91 421.995 -11.9904)
(-1162.42 456.403 -8.55531)
(-1140.81 336.982 -7.85654)
(2408.58 308.532 -14.2548)
(2442.06 490.305 -17.081)
(2446.33 470.41 4.71159)
(2451.82 454.313 7.22082)
(2458.3 437.42 -6.22761)
(2458.2 414.246 -17.5097)
(2458.4 398.685 -9.27404)
(2459.56 380.936 9.0358)
(2453.42 365.994 13.9245)
(2449.52 353.303 5.36626)
(2450.93 334.351 0.571427)
(2438.34 324.126 6.26587)
(-1142.29 675.472 -8.2518)
(-1116.58 820.807 -8.15138)
(-1000.16 908.051 -9.35166)
(-1047.08 913.716 -5.72548)
(-725.827 2086.14 -11.8465)
(-221.476 2339.09 -19.4113)
(37.1248 2358.33 -16.0065)
(320.929 2375.95 -13.3253)
(1606.3 1881.03 -5.93214)
(2206.35 1116.7 58.5014)
(2334.19 970.328 1.49175)
(2373.21 878.817 -41.1407)
(2401.51 822.537 -30.6928)
(2432.04 772.123 8.31346)
(2441.81 717.854 39.7114)
(2453.34 682.036 30.1267)
(2466.29 639.533 -2.50924)
(2457.25 596.773 -13.6932)
(2469.68 570.684 -0.513304)
(2466.4 530.471 13.6441)
(-1022.83 897.488 -8.08922)
(-912.492 1103.88 -11.9422)
(-722.064 1199.79 -5.9454)
(-727.907 1812.72 -21.9024)
(-473.817 2355.48 -16.8228)
(-114.419 2379.96 -19.2933)
(130.473 2394.36 -15.3322)
(502.862 2419.2 -21.0887)
(1055.23 2250.29 36.8105)
(1655.04 1733.39 12.6608)
(2024.7 1381.69 -151.206)
(2127.13 1223.52 -54.4333)
(2216.81 1135.9 39.1914)
(2297.32 1073.88 68.0443)
(2349.28 1013.45 34.2925)
(2371.96 937.057 -22.3841)
(2406.2 876.442 -38.0297)
(2412.87 827.065 -1.73594)
(2436.83 786.506 28.8699)
(2449.64 727.785 23.9097)
(-878.324 1059.33 -0.92045)
(-698.563 1271.16 -6.45239)
(-516.534 1358.55 -6.7369)
(-676.832 1996.75 -19.8883)
(-465.11 2368.7 -9.85111)
(-111.126 2376.37 -17.5214)
(123.021 2392.96 -15.6365)
(477.817 2411.44 -2.60646)
(939.113 2344.12 16.1908)
(1348 2094.99 -132.046)
(1723.87 1776.41 -99.8224)
(1920.03 1507.26 106.898)
(2016.24 1366.17 100.189)
(2125.44 1312.58 23.2907)
(2222.5 1242.42 -54.4888)
(2250.23 1161.24 -54.181)
(2308.6 1109.08 -3.32695)
(2348.47 1038.27 57.2429)
(2376.95 999.534 46.8804)
(2406.3 918.227 24.4284)
(-751.233 1170.44 -0.381372)
(-576.899 1377.49 0.696035)
(-459.382 1539.94 5.09799)
(-654.76 2091.24 -0.622573)
(-449.044 2377.98 -13.7759)
(-108.195 2373.08 -18.4346)
(117.573 2393.16 -12.1098)
(456.303 2411.69 1.86277)
(855.637 2356.39 -35.5882)
(1220.67 2184.4 -44.524)
(1506.3 1996.17 112.562)
(1697.98 1745.87 152.855)
(1834.02 1534.51 11.0949)
(1964.94 1470.95 -95.467)
(2064.52 1433.35 -76.6643)
(2106.76 1358.02 2.28995)
(2186.01 1297.79 72.639)
(2237.45 1231.93 78.1188)
(2279.51 1187.66 26.8797)
(2330.74 1081.87 10.5818)
(-633.997 1228.52 -2.3603)
(-489.167 1461.02 -5.47552)
(-456.925 1705.01 17.7997)
(-646.653 2153.9 5.31525)
(-426.3 2387.98 -11.3468)
(-105.521 2369.83 -17.2536)
(112.345 2391.73 -10.8881)
(438.244 2418.15 -11.3657)
(797.368 2372.11 -37.2605)
(1118.24 2234.41 40.8881)
(1378.84 2073.18 117.226)
(1540.68 1906.43 30.5106)
(1674.91 1711.53 -111.573)
(1787.8 1573.83 -88.135)
(1917.5 1563.15 8.27822)
(1987.72 1510.09 94.9845)
(2060.49 1467.84 103.405)
(2123.22 1410.66 43.9862)
(2171.31 1345.01 -4.50779)
(2241.23 1230.82 6.46225)
(-551.529 1284.88 10.9797)
(-428.614 1524.63 11.9739)
(-432.677 1819.75 19.2757)
(-623.103 2186.79 1.88999)
(-401.135 2395.05 -17.7989)
(-103.166 2365.69 -15.8349)
(108.416 2391.3 -11.7361)
(414.096 2420.05 -24.7417)
(748.19 2388.66 -1.76453)
(1045.42 2286.27 70.7209)
(1307.84 2154.33 49.0911)
(1486.92 2020.26 -63.2064)
(1575.31 1834.39 -73.0363)
(1662.42 1680.88 37.9613)
(1812.67 1656.24 114.459)
(1881.04 1604.15 110.225)
(1942.51 1574.22 64.782)
(2006.11 1511.94 -4.78999)
(2042.98 1461.42 2.83121)
(2133.96 1362.6 29.5677)
(-494.141 1336.03 28.7514)
(-402.828 1588.55 32.5146)
(-422.191 1903.8 18.1543)
(-593.105 2210.04 10.2253)
(-372.297 2405.02 -14.4811)
(-100.394 2361.34 -14.7275)
(105.528 2392.41 -11.9962)
(397.629 2421.1 -18.0286)
(695.143 2393.35 30.7973)
(985.571 2321.12 40.4577)
(1228.53 2226.83 -33.1646)
(1430.59 2096.58 -50.9539)
(1559.72 1962.41 30.7539)
(1638.61 1843 118.908)
(1762.19 1791.46 132.316)
(1848.51 1719.39 70.1945)
(1911.12 1667.89 -3.65367)
(1923.57 1617.35 -15.5719)
(1941.81 1580.81 34.6057)
(2040.93 1487.77 58.4432)
(-443.755 1379.93 30.4427)
(-359.884 1629.67 41.2219)
(-388.524 1951.7 11.6221)
(-549.321 2214.51 0.269247)
(-349.269 2398.51 -7.32208)
(-99.6402 2354.37 -13.2657)
(103.706 2392.29 -10.6947)
(379.708 2420.75 -1.86358)
(662.544 2406.74 24.2655)
(913.8 2338.37 -17.7207)
(1141.96 2242.58 -44.8921)
(1343.75 2119.82 14.9984)
(1491.02 1999.77 106.7)
(1589.23 1886.83 120.899)
(1690.91 1871.36 77.2464)
(1797.75 1828.61 -6.83031)
(1852.12 1766.54 -29.049)
(1874.22 1707.1 19.2556)
(1906.74 1668.88 86.8703)
(1988.9 1597.59 75.9364)
(-405.86 1374.77 23.2793)
(-317.326 1628.02 39.4375)
(-336.511 1963.75 27.1629)
(-487.617 2224.78 14.4099)
(-322.987 2395.36 -2.22971)
(-95.3335 2349.32 -10.5228)
(103.989 2391.96 -7.88779)
(362.964 2412.08 3.72158)
(623.698 2419.81 -6.2807)
(855.052 2369.72 -37.1742)
(1085.95 2289.97 -2.76314)
(1274.28 2182.25 76.5733)
(1443.84 2059.05 115.918)
(1553.54 1933.84 83.9627)
(1643.8 1897.86 8.10058)
(1742.56 1854.56 -25.6812)
(1796.03 1807.17 15.8951)
(1853.78 1763.11 101.867)
(1904.55 1751.48 126.733)
(1958.21 1691.57 83.9987)
(-373.921 1377.24 19.9062)
(-265.903 1602.52 33.172)
(-282.975 1934.18 24.608)
(-422.98 2193.29 20.8182)
(-301.041 2374.27 0.34047)
(-87.1692 2340.88 -10.1506)
(104.952 2390.26 -6.15731)
(348.005 2408.93 -0.279682)
(583.986 2412.06 -16.0366)
(808.28 2372.59 -5.97991)
(1016.19 2319.68 51.5321)
(1205.99 2218.84 78.4803)
(1384.38 2107.73 59.6893)
(1486.82 1989.04 10.971)
(1590.8 1902.12 -8.91548)
(1692.91 1858.55 18.8125)
(1743.38 1853.5 91.6758)
(1824.7 1844.27 133.983)
(1868.82 1839.09 109.124)
(1914.15 1768.88 66.6744)
(-338.317 1366.37 20.8251)
(-221.846 1553.1 32.9516)
(-204.217 1897.16 31.8233)
(-311.72 2201.68 28.2503)
(-266.834 2354.73 7.46112)
(-77.4494 2337.72 -6.05579)
(105.513 2387.88 -5.08695)
(328.278 2409.86 -3.57874)
(558.3 2424.93 -5.07537)
(770.043 2395.83 19.8152)
(977.375 2345.57 41.7452)
(1160.98 2255.32 29.6713)
(1318.85 2153.98 4.2929)
(1435.09 2030.51 9.31477)
(1554.86 1924.46 37.4909)
(1644.57 1868.58 77.1582)
(1713.08 1869.09 109.224)
(1806.38 1860.99 105.779)
(1840.78 1837.17 74.1049)
(1877.38 1781.08 72.3481)
(-316.117 1393.24 16.5451)
(-229.883 1519.15 23.4874)
(-168.055 1778.5 26.795)
(-122.486 2043.7 37.28)
(-135.192 2240.92 24.0545)
(-26.0292 2299.41 5.76193)
(120.508 2371.18 0.387287)
(318.658 2395.24 1.22544)
(518.927 2420.28 7.97304)
(710.645 2407.97 18.4254)
(897.769 2373.27 24.3592)
(1059.58 2304.65 16.0693)
(1209.53 2223.85 12.0388)
(1339.92 2121.17 34.3817)
(1462.8 2024.03 62.7779)
(1567.51 1949.71 70.8534)
(1652.63 1915.76 74.7056)
(1727.67 1878.65 60.727)
(1769.74 1846.59 67.6423)
(1819.88 1806.2 87.8578)
(-527.417 -527.397 26.5216)
(-406.571 -590.613 43.1675)
(-469.934 -773.656 68.2905)
(-585.444 -1031.67 21.3379)
(-354.139 -1187.74 4.56862)
(-101.398 -1175.24 -0.180408)
(107.377 -1168.17 -5.27167)
(382.07 -1185.48 -2.13412)
(679.518 -1162.94 3.96468)
(904.945 -1043.95 4.71488)
(1064.62 -894.051 13.9718)
(1183 -767.275 18.011)
(1244.51 -650.131 12.9889)
(1299.53 -563.112 25.7914)
(1347.53 -499.993 44.3738)
(1395.61 -447.94 44.1988)
(1392.32 -407.915 34.1543)
(1396.03 -375.565 28.1097)
(1382.34 -340.856 24.2625)
(1404.91 -317.758 17.1305)
(-582.699 -406.054 43.5014)
(-528.513 -533.511 87.4712)
(-871.981 -910.615 41.1181)
(-764.653 -1155.56 1.1657)
(-408.901 -1188.71 0.284998)
(-106.302 -1185.15 0.579074)
(116.117 -1176.77 -3.67622)
(428.157 -1201.1 -4.24544)
(822.802 -1134.71 12.718)
(1118.21 -935.185 12.8201)
(1285.29 -710.459 17.752)
(1398.55 -580.452 32.3608)
(1489.53 -494.815 22.1819)
(1551.51 -424.324 36.1557)
(1621.37 -395.589 54.8557)
(1668.94 -354.2 55.9602)
(1672.17 -313.541 49.0411)
(1650.34 -270.89 42.8161)
(1605.01 -227.577 41.2177)
(1555.15 -231.871 24.9801)
(-741.324 -449.554 70.5571)
(-908.101 -868.476 38.8593)
(-981.917 -975.546 -8.05269)
(-827.207 -1133.93 26.9476)
(-427.644 -1166.4 5.13074)
(-119.228 -1185.04 -0.332019)
(126.111 -1174.73 -3.15432)
(462.02 -1187.08 -2.56841)
(911.895 -1021.84 13.1817)
(1220.85 -741.522 27.8323)
(1401.65 -537.417 18.9731)
(1580.52 -448.638 25.1869)
(1746.54 -443.999 41.5272)
(1879.04 -445.201 35.4102)
(1983.29 -441.474 30.7242)
(2037.63 -405.135 17.163)
(2052.41 -348.72 27.6649)
(2022.53 -293.7 25.3505)
(1987.16 -211.766 32.3635)
(1856.98 -169.355 24.8425)
(-1008.53 -571.335 21.1011)
(-1144.02 -778.913 -12.0221)
(-1125.36 -846.96 -5.12534)
(-1031.16 -1071.26 4.71277)
(-585.741 -1178.64 4.8177)
(-216.985 -1182.42 -1.06107)
(49.1675 -1161.35 -7.88348)
(342.269 -1164.83 -1.50608)
(908.823 -1085.57 11.9064)
(1859.19 -730.042 25.8062)
(2074.92 -722.122 22.7632)
(2171.38 -671.603 15.9183)
(2236.92 -650.833 21.8509)
(2284.31 -637.363 15.6836)
(2319.44 -612.217 21.9487)
(2324.88 -574.595 11.68)
(2335 -515.59 19.0909)
(2303.92 -450.404 23.5492)
(2315.01 -342.254 31.6537)
(2160.44 -141.78 37.5777)
(-1183.7 -363.383 1.92107)
(-1191.42 -421.633 -6.53922)
(-1164.48 -446.413 -1.65551)
(-1176 -638.409 2.45309)
(2046.73 -730.943 -0.387618)
(2444.87 -476.882 4.73071)
(2466.15 -471.345 9.17724)
(2479.82 -457.827 6.34286)
(2492.2 -437.316 6.82154)
(2501.05 -413.673 -1.45654)
(2514.06 -385.852 -4.13452)
(2512.69 -360.912 0.122937)
(2511.27 -335.713 4.89877)
(2493.92 -315.638 5.40413)
(2475.54 -286.66 9.92405)
(2372.21 -162.05 23.6291)
(-1174.86 -107.817 -2.91841)
(-1184.01 -113.528 -4.88073)
(-1181.88 -123.474 -5.02016)
(-1179.1 -221.65 -3.23905)
(2412.05 -223.696 -0.352414)
(2471.12 -117.908 3.70872)
(2473.94 -113.928 3.36873)
(2476.21 -111.862 1.05609)
(2477.22 -109.058 0.104447)
(2476.19 -107.019 1.23881)
(2473.7 -104.656 2.12131)
(2468.98 -103.45 2.21169)
(2464.17 -100.477 3.35041)
(2456.78 -93.647 2.91197)
(2454.83 -84.74 4.39856)
(2426.23 -41.3939 12.6975)
(-1169 101.999 -4.89955)
(-1176.56 111.776 -1.90527)
(-1173.62 123.506 -1.65996)
(-1161.44 49.0482 -7.64924)
(2435.72 34.6958 -0.719175)
(2489.45 124.911 7.24409)
(2492.83 117.735 4.49319)
(2496.73 113.285 5.79574)
(2499.96 109.152 6.82754)
(2502.67 106.15 5.39623)
(2506.15 102.76 2.45706)
(2506.8 101.654 0.888844)
(2506.74 102.308 1.3672)
(2507.02 103.863 4.04197)
(2506.25 104.474 5.30933)
(2495.95 114.907 7.37975)
(-1186.78 377.406 -4.20219)
(-1199.83 422.841 -6.06354)
(-1184.74 455.564 -3.57556)
(-1161.59 340.633 -4.84472)
(2453.53 311.586 2.24839)
(2511.33 493.353 -3.22742)
(2519.86 475.387 12.9205)
(2529.61 456.864 22.5703)
(2538.8 442.103 12.5704)
(2541.5 419.193 -7.00713)
(2537.36 400.169 -8.57911)
(2538.91 385.509 6.17052)
(2539.37 367.806 17.6253)
(2535.27 356.925 12.4305)
(2535.84 339.016 2.67227)
(2523.32 324.54 5.66679)
(-1166.35 676.72 -2.64991)
(-1138.14 816.406 -0.576903)
(-1028.47 899.749 -3.08002)
(-1085.17 897.496 -9.48224)
(-719.276 2032.99 -15.6994)
(-219.309 2397.29 -17.999)
(38.9458 2419.86 -14.8164)
(319.577 2439.66 -12.0501)
(1827.79 1730.56 21.9225)
(2283.26 1092.68 55.7055)
(2414.29 974.206 45.5214)
(2458.55 892.605 -14.0267)
(2477.19 822.54 -30.745)
(2496.45 772.561 -4.25354)
(2519 722.724 38.6523)
(2541.27 687.444 44.4817)
(2557.76 653.924 16.0188)
(2545.08 608.442 -11.3015)
(2548.5 579.441 -6.02907)
(2547.81 537.75 10.1741)
(-1049.46 903.731 -4.81796)
(-941.401 1110.16 -1.46665)
(-752.742 1206.47 5.15784)
(-745.347 1825.51 -4.82259)
(-472.486 2420.3 -12.9701)
(-113.316 2446.61 -14.7625)
(131.379 2463.56 -9.7666)
(505.255 2484.47 -18.6157)
(1064.28 2263.05 41.8496)
(1733.15 1749.17 91.3362)
(2092.48 1389.41 -104.036)
(2203.38 1229.89 -70.0683)
(2282.4 1138.94 20.5419)
(2368.68 1079.06 78.5152)
(2437.65 1027.83 65.4708)
(2461.65 960.302 10.306)
(2485.29 886.738 -35.1963)
(2486.32 836.19 -17.2438)
(2513.12 800.444 22.4789)
(2531.38 739.832 26.3774)
(-902.515 1068.23 -2.38764)
(-722.091 1279.42 -3.61514)
(-553.685 1379.35 3.00237)
(-731.948 2047.02 -9.30293)
(-467.604 2441.86 -7.89666)
(-109.455 2448.64 -16.5188)
(124.09 2466.82 -12.0271)
(483.54 2490.06 -1.58708)
(962.494 2398.99 35.9216)
(1370.96 2096.9 -103.583)
(1721.21 1741.44 -136.55)
(1967.26 1506.64 74.8526)
(2101.06 1385.55 141.658)
(2201.77 1337.19 85.9127)
(2297.87 1263.44 -13.7789)
(2325.39 1168.68 -53.9836)
(2365.29 1113.39 -26.6803)
(2419.6 1054.22 48.7671)
(2465.71 1017.26 61.5438)
(2490.78 938.786 33.8514)
(-773.341 1181.83 2.71474)
(-591.046 1391.09 9.34703)
(-461.902 1561.45 3.15365)
(-683.362 2146.75 -0.288549)
(-453.487 2455.23 -11.232)
(-106.528 2450.37 -17.0211)
(120.1 2470.87 -10.1986)
(462.896 2498.71 8.20031)
(883.706 2437.87 -25.7857)
(1229.8 2215.8 -69.9229)
(1500.54 1991.38 81.1919)
(1770.35 1785.4 211.048)
(1939.85 1606.02 113.258)
(2034.63 1482.56 -43.2468)
(2118.68 1428.46 -78.6027)
(2162.27 1364.88 -21.8304)
(2247.82 1315.63 73.9761)
(2326.34 1254.12 110.616)
(2365.56 1216.91 52.6837)
(2413.43 1105.7 13.2289)
(-655.302 1241.83 0.818202)
(-503.215 1479.88 0.289538)
(-455.814 1731.49 9.8463)
(-660.383 2213.56 7.23115)
(-432.482 2466.77 -9.29586)
(-104.192 2450.73 -15.8989)
(115.32 2472.69 -6.99832)
(446.6 2508.11 -2.40122)
(813.505 2450.01 -45.5879)
(1129.05 2279.67 17.4123)
(1394.57 2124.99 149.185)
(1617.51 1969.64 122.134)
(1761.13 1776.15 -69.9624)
(1847.35 1591.31 -97.5927)
(1950.1 1558.97 -13.7131)
(2040.76 1528.29 108.49)
(2134.55 1495.51 144.054)
(2203.91 1440.95 85.3474)
(2255.46 1375.63 -1.28345)
(2322.63 1258.47 3.80664)
(-564.716 1293.21 11.0215)
(-436.678 1546.82 13.1284)
(-451.781 1862.87 18.6893)
(-641.338 2258.79 1.40608)
(-408.417 2475.26 -15.9509)
(-102.213 2449.3 -13.6301)
(111.219 2473.53 -6.69706)
(422.377 2510.48 -21.168)
(761.294 2462.01 -17.9193)
(1060.31 2351.99 72.8795)
(1341.18 2215.27 92.0198)
(1516.48 2067.37 -35.1334)
(1607.48 1881.31 -91.0401)
(1685.78 1694.97 1.16529)
(1819.07 1648.57 120.202)
(1921.58 1611.94 153.817)
(2001.89 1593.56 101.755)
(2076.84 1533.03 -1.16108)
(2119.53 1489.28 -7.41622)
(2211.4 1389.7 30.2509)
(-504.077 1343.55 27.176)
(-412.221 1618.24 33.3448)
(-448.92 1965.09 25.3894)
(-614.884 2293.17 10.3846)
(-382.033 2486.77 -15.2631)
(-99.5336 2446.56 -12.2342)
(108.108 2476.37 -8.30795)
(403.333 2505.5 -20.7741)
(708.834 2478.87 25.5897)
(1008.78 2412.69 57.7816)
(1260.84 2299.85 -14.2536)
(1446.66 2144.41 -73.7909)
(1587.22 1994.43 -3.74335)
(1655.02 1846.74 127.321)
(1770.26 1783.59 169.53)
(1863.95 1712.21 108.73)
(1943.45 1674.11 2.48401)
(1975.66 1626.36 -23.7627)
(2002.22 1597.91 35.3703)
(2107.93 1507.45 68.5335)
(-453.533 1395.55 31.5547)
(-370.939 1669.88 40.0209)
(-415.239 2023.29 11.6292)
(-577.935 2299.91 0.0197779)
(-356.54 2486.12 -10.4113)
(-98.512 2441.7 -11.6059)
(105.291 2478.05 -7.91139)
(386.483 2504.77 -3.83416)
(674.088 2501.13 30.3667)
(943.815 2435.02 -0.417713)
(1162.09 2316.35 -59.3464)
(1369.89 2177.13 -18.9819)
(1532.31 2066.28 114.8)
(1621.59 1942.72 163.473)
(1713.51 1889.38 115.125)
(1808.59 1824.14 -0.000420582)
(1873.06 1765.39 -34.4464)
(1911.47 1708.67 19.1967)
(1950.18 1677.99 105.275)
(2029.16 1618.29 92.8507)
(-413.986 1395.01 27.2086)
(-326.313 1676.72 38.2728)
(-360.102 2041.63 23.7667)
(-521.218 2310.16 9.32725)
(-330.666 2484.8 -7.04719)
(-95.9898 2436.37 -9.76344)
(105.325 2478.07 -7.53202)
(368.374 2503.04 5.72189)
(640.231 2516.39 1.55074)
(871.915 2452.66 -43.0368)
(1101.66 2348.09 -30.2495)
(1302.98 2249.02 72.8457)
(1488.53 2143.81 144.809)
(1600.65 2013.89 110.632)
(1676.49 1948.51 11.7025)
(1755.19 1877.86 -29.7056)
(1811.46 1820.18 21.6806)
(1886.95 1769 123.828)
(1933.47 1758.65 150.473)