/*--------------------------------*- C++ -*----------------------------------*\
  =========                 |
  \\      /  F ield         | OpenFOAM: The Open Source CFD Toolbox
   \\    /   O peration     | Website:  https://openfoam.org
    \\  /    A nd           | Version:  9
     \\/     M anipulation  |
\*---------------------------------------------------------------------------*/
FoamFile
{
    format      ascii;
    class       volVectorField;
    location    "0.01";
    object      U;
}
// * * * * * * * * * * * * * * * * * * * * * * * * * * * * * * * * * * * * * //

dimensions      [0 1 -1 0 0 0 0];

internalField   nonuniform List<vector> 
62500
(
(0 0 0)
(-9.39673e-17 0 0)
(-1.53825e-17 0 0)
(1.34779e-37 0 0)
(-3.25671e-53 0 0)
(7.01094e-51 0 0)
(-1.26053e-64 0 0)
(-5.6624e-79 0 0)
(-1.32977e-90 0 0)
(0 0 0)
(0 0 0)
(0 0 0)
(0 0 0)
(0 0 0)
(0 0 0)
(0 0 0)
(0 0 0)
(0 0 0)
(0 0 0)
(0 0 0)
(0 0 0)
(0 0 0)
(0 0 0)
(0 0 0)
(0 0 0)
(0 0 0)
(0 0 0)
(0 0 0)
(0 0 0)
(0 0 0)
(0 0 0)
(0 0 0)
(0 0 0)
(0 0 0)
(0 0 0)
(0 0 0)
(0 0 0)
(0 0 0)
(0 0 0)
(0 0 0)
(0 0 0)
(0 0 0)
(0 0 0)
(0 0 0)
(0 0 0)
(0 0 0)
(0 0 0)
(0 0 0)
(0 0 0)
(0 0 0)
(0 0 0)
(-7.87533e-17 0 0)
(-1.27474e-17 0 0)
(-1.12585e-44 7.94734e-44 0)
(1.58407e-56 -3.0565e-47 0)
(6.45394e-50 4.50128e-31 0)
(-1.99881e-65 -9.41346e-16 0)
(-1.1404e-79 0 0)
(3.23592e-89 3.61755e-31 0)
(0 -9.60952e-16 0)
(0 0 0)
(0 0 6.94345e-15)
(0 0 0)
(0 0 6.94345e-15)
(0 -5.7459e-19 0)
(0 0 0)
(0 0 6.94345e-15)
(0 0 0)
(0 0 8.38087e-15)
(0 -4.20208e-18 0)
(0 0 -1.81064e-14)
(0 -3.21378e-26 1.68545e-14)
(0 -1.75405e-29 0)
(0 -1.2448e-30 0)
(0 -2.95534e-26 1.85703e-14)
(0 0 -1.6669e-14)
(0 0 0)
(0 -8.42874e-30 0)
(0 -4.75298e-36 0)
(0 -2.95536e-26 1.85703e-14)
(0 0 -1.6669e-14)
(0 0 0)
(0 -8.41325e-30 0)
(0 -3.98126e-39 0)
(0 -2.95534e-26 1.85703e-14)
(0 0 -1.6669e-14)
(0 0 0)
(0 -8.33129e-30 0)
(0 -2.29466e-33 0)
(0 -2.21897e-14 2.17235e-14)
(0 -6.31646e-31 0)
(0 -4.65392e-43 0)
(0 -2.82854e-31 0)
(0 -2.52534e-22 0)
(0 -2.95118e-31 0)
(0 -3.42369e-31 0)
(0 -2.86701e-40 0)
(0 -2.82854e-31 0)
(0 -2.52534e-22 0)
(0 -2.95119e-31 0)
(0 0 0)
(-4.99002e-17 0 0)
(-7.09221e-18 0 0)
(4.37522e-44 -2.24564e-51 0)
(1.72794e-55 -3.74956e-48 0)
(-6.70673e-49 1.29469e-44 0)
(-1.51115e-63 -5.99746e-16 0)
(-5.61569e-78 0 0)
(-1.12804e-87 0 0)
(0 -6.25426e-16 0)
(0 0 0)
(0 0 0)
(0 0 0)
(0 0 0)
(0 0 0)
(0 0 0)
(0 0 0)
(0 0 0)
(0 0 0)
(0 0 0)
(0 0 0)
(0 -2.2428e-30 0)
(0 -2.8911e-29 0)
(0 -1.18755e-32 0)
(0 -2.01151e-30 0)
(0 0 0)
(0 0 0)
(0 0 0)
(0 0 0)
(0 -2.01151e-30 0)
(0 0 0)
(0 0 0)
(0 0 0)
(0 0 0)
(0 -2.01151e-30 0)
(0 0 0)
(0 0 0)
(0 0 0)
(0 0 0)
(0 -2.21674e-14 0)
(0 0 0)
(0 0 0)
(0 0 0)
(0 0 0)
(0 0 0)
(0 0 0)
(0 0 0)
(0 0 0)
(0 0 0)
(0 0 0)
(0 0 0)
(-2.76709e-17 0 0)
(-2.74755e-18 0 0)
(-9.67599e-44 -2.4491e-53 0)
(-8.41044e-59 -5.26056e-58 6.94345e-15)
(-2.38695e-48 -6.53293e-54 0)
(-6.46031e-62 -7.50447e-17 0)
(-3.11084e-77 0 0)
(-1.0058e-85 0 -8.4736e-15)
(0 -1.82756e-16 0)
(0 0 0)
(0 0 0)
(0 0 0)
(0 0 0)
(0 0 0)
(0 0 -4.63682e-17)
(0 0 0)
(0 0 0)
(0 0 0)
(0 0 0)
(0 0 -1.25198e-15)
(0 -1.23369e-28 -2.64302e-15)
(0 -6.56484e-31 0)
(0 -8.11529e-31 -6.8636e-15)
(0 4.9037e-24 -1.31709e-14)
(0 0 -1.09913e-14)
(0 0 -5.84336e-15)
(0 0 0)
(0 0 -6.8636e-15)
(0 1.13002e-23 -1.31709e-14)
(0 0 -1.09913e-14)
(0 0 -5.84336e-15)
(0 0 0)
(0 0 -6.8636e-15)
(0 9.11759e-25 -1.31709e-14)
(0 0 -1.09913e-14)
(0 0 -5.75059e-15)
(0 0 0)
(0 0 -1.9475e-15)
(0 -1.0946e-14 -1.71566e-15)
(0 0 0)
(0 0 0)
(0 0 0)
(0 0 0)
(0 0 0)
(0 0 0)
(0 0 0)
(0 0 0)
(0 0 0)
(0 0 0)
(0 0 0)
(-2.02485e-17 0 0)
(-1.49014e-18 0 0)
(-3.90803e-43 1.10956e-50 -6.94345e-15)
(-2.66402e-59 1.39516e-61 0)
(-2.47731e-45 5.35743e-63 0)
(-9.00526e-60 0 0)
(4.27759e-75 0 0)
(-1.39457e-84 0 0)
(0 -8.18311e-18 0)
(0 0 0)
(0 0 0)
(0 0 0)
(0 0 0)
(0 0 0)
(0 0 -2.90493e-14)
(0 0 -6.49155e-16)
(0 0 0)
(0 0 0)
(0 0 0)
(0 0 -2.99767e-14)
(0 -1.82482e-28 -3.41035e-14)
(0 -3.51266e-30 -1.04793e-14)
(0 7.23732e-25 -4.18953e-14)
(0 -3.15837e-23 -4.99193e-14)
(0 0 -4.99193e-14)
(0 0 -4.1478e-14)
(0 0 -1.07113e-14)
(0 0 -4.19881e-14)
(0 -3.16225e-23 -4.99193e-14)
(0 0 -4.99193e-14)
(0 0 -4.1478e-14)
(0 0 -1.07113e-14)
(0 0 -4.19881e-14)
(0 -3.16225e-23 -4.99193e-14)
(0 0 -4.99193e-14)
(0 0 -4.12461e-14)
(0 0 -1.01084e-14)
(0 0 -3.36863e-14)
(0 -1.63823e-28 -3.21569e-14)
(0 0 -7.42272e-16)
(0 0 0)
(0 0 0)
(0 0 0)
(0 0 0)
(0 0 0)
(0 0 0)
(0 0 0)
(0 0 0)
(0 0 0)
(0 0 0)
(-1.89714e-17 0 0)
(-1.58e-18 0 0)
(-7.17176e-43 -1.98798e-57 0)
(-1.56968e-59 7.61062e-68 0)
(-3.37751e-43 3.36349e-67 0)
(-6.50224e-59 0 2.18622e-14)
(9.49447e-74 0 4.12677e-15)
(-5.01148e-83 0 2.22332e-14)
(0 -2.06485e-19 2.22332e-14)
(0 0 0)
(0 0 0)
(0 0 0)
(0 0 0)
(0 0 2.05176e-14)
(0 0 -3.14605e-14)
(0 0 -1.20557e-15)
(0 0 0)
(0 0 0)
(0 0 2.22332e-14)
(0 0 0)
(0 -7.46271e-34 -2.0866e-15)
(0 -5.42277e-37 0)
(0 -3.84746e-36 -6.12161e-15)
(0 -4.76793e-26 -1.02957e-14)
(0 0 -1.02493e-14)
(0 0 -6.02887e-15)
(0 0 0)
(0 0 -6.16797e-15)
(0 -4.76622e-26 -1.02957e-14)
(0 0 -1.02493e-14)
(0 0 -6.02887e-15)
(0 0 0)
(0 0 -6.16797e-15)
(0 -4.74034e-26 -1.02957e-14)
(0 0 -1.02493e-14)
(0 0 -5.93606e-15)
(0 0 0)
(0 0 -2.0403e-15)
(0 -9.14329e-34 -2.13328e-15)
(0 0 0)
(0 0 1.65763e-14)
(0 0 0)
(0 0 0)
(0 0 0)
(0 0 0)
(0 0 1.65763e-14)
(0 0 0)
(0 0 0)
(0 0 0)
(0 0 0)
(-1.19319e-17 0 0)
(-1.26184e-18 0 0)
(-1.34482e-42 -4.75377e-79 0)
(5.20232e-59 -4.05949e-75 0)
(-3.75033e-42 7.38284e-85 -2.18622e-14)
(4.68707e-58 0 0)
(2.4604e-74 0 0)
(3.88434e-83 0 -1.64372e-14)
(0 0 0)
(0 0 0)
(0 0 0)
(0 0 0)
(0 0 0)
(0 0 2.1584e-14)
(0 0 -2.39952e-14)
(0 0 0)
(0 0 0)
(0 0 0)
(0 0 2.22332e-14)
(0 0 0)
(0 -2.74763e-41 0)
(0 -1.23678e-41 0)
(0 -8.18391e-44 0)
(0 -1.41772e-43 0)
(0 0 0)
(0 0 0)
(0 0 0)
(0 0 0)
(0 -4.70334e-42 0)
(0 0 0)
(0 0 0)
(0 0 0)
(0 0 0)
(0 -1.05679e-41 0)
(0 0 0)
(0 0 0)
(0 0 0)
(0 0 0)
(0 -3.52651e-41 0)
(0 0 0)
(0 0 -2.10276e-14)
(0 0 0)
(0 0 0)
(0 0 0)
(0 0 0)
(0 0 -2.10276e-14)
(0 0 0)
(0 0 0)
(0 0 0)
(0 0 0)
(-3.17499e-18 0 0)
(-4.68329e-19 0 0)
(-1.60017e-42 0 0)
(3.23074e-58 0 0)
(-3.5851e-41 0 -4.12677e-15)
(-2.14954e-57 0 0)
(-4.14459e-73 0 0)
(9.68698e-83 0 0)
(0 0 0)
(0 0 0)
(0 0 0)
(0 0 0)
(0 0 0)
(0 0 3.19941e-15)
(0 0 -2.82846e-15)
(0 0 0)
(0 0 0)
(0 0 0)
(0 0 4.21951e-15)
(0 0 0)
(0 -6.37672e-47 0)
(0 -2.97767e-46 0)
(0 -2.17462e-49 0)
(0 0 0)
(0 0 0)
(0 0 0)
(0 0 0)
(0 0 0)
(0 0 0)
(0 0 0)
(0 0 0)
(0 0 0)
(0 0 0)
(0 0 0)
(0 0 0)
(0 0 0)
(0 0 0)
(0 0 0)
(0 -1.29689e-46 0)
(0 0 0)
(0 0 -1.27858e-14)
(0 0 0)
(0 0 0)
(0 0 0)
(0 0 0)
(0 0 -1.27858e-14)
(0 0 0)
(0 0 0)
(0 0 0)
(0 0 0)
(-7.14362e-19 0 0)
(-4.24672e-20 0 0)
(-5.25859e-44 0 8.4736e-15)
(4.05438e-59 0 0)
(-1.28845e-40 0 -2.22332e-14)
(1.44444e-56 0 1.64372e-14)
(9.19458e-74 0 0)
(1.27393e-81 0 0)
(0 0 2.08421e-14)
(0 0 0)
(0 0 0)
(0 0 0)
(0 0 0)
(0 0 2.16304e-14)
(0 0 -2.14913e-14)
(0 0 0)
(0 0 0)
(0 0 0)
(0 0 2.22332e-14)
(0 0 0)
(0 7.88126e-50 0)
(0 -3.27405e-50 0)
(0 5.63491e-53 0)
(0 0 0)
(0 0 0)
(0 0 0)
(0 0 0)
(0 0 0)
(0 0 0)
(0 0 0)
(0 0 0)
(0 0 0)
(0 0 0)
(0 0 0)
(0 0 0)
(0 0 0)
(0 0 0)
(0 0 0)
(0 7.66432e-50 0)
(0 0 0)
(0 0 -2.22567e-15)
(0 0 0)
(0 0 2.13058e-14)
(0 0 0)
(0 0 0)
(0 0 -2.22567e-15)
(0 0 0)
(0 0 2.13058e-14)
(0 0 0)
(0 0 0)
(-2.57058e-18 0 0)
(-3.66294e-34 0 0)
(1.85679e-47 0 0)
(-7.50649e-59 0 0)
(-7.25501e-42 0 -2.22332e-14)
(-5.79373e-59 0 0)
(6.4062e-75 0 0)
(-5.43184e-84 0 -2.08421e-14)
(0 0 0)
(0 0 0)
(0 0 0)
(0 0 0)
(0 0 0)
(0 0 2.09812e-14)
(0 0 -2.09812e-14)
(0 0 0)
(0 0 0)
(0 0 0)
(0 0 2.22332e-14)
(0 0 0)
(0 0 0)
(0 2.28689e-58 0)
(0 0 0)
(0 0 0)
(0 0 0)
(0 0 0)
(0 0 0)
(0 0 0)
(0 0 0)
(0 0 0)
(0 0 0)
(0 0 0)
(0 0 0)
(0 0 0)
(0 0 0)
(0 0 0)
(0 0 0)
(0 0 0)
(0 0 0)
(0 0 0)
(0 0 -2.64063e-14)
(0 0 0)
(0 0 0)
(0 0 0)
(0 0 0)
(0 0 -2.64063e-14)
(0 0 0)
(0 0 0)
(0 0 0)
(0 0 0)
(-7.95293e-18 0 0)
(-4.65133e-34 0 0)
(-6.18818e-47 0 0)
(-1.14231e-61 0 0)
(-4.82736e-58 0 0)
(-1.78554e-71 0 0)
(1.90466e-76 0 0)
(-1.09776e-85 0 0)
(0 0 0)
(0 0 0)
(0 0 0)
(0 0 0)
(0 0 0)
(0 0 0)
(0 0 0)
(0 0 0)
(0 0 0)
(0 0 0)
(0 0 0)
(0 0 0)
(0 0 0)
(0 0 0)
(0 0 0)
(0 0 0)
(0 0 0)
(0 0 0)
(0 0 0)
(0 0 0)
(0 0 0)
(0 0 0)
(0 0 0)
(0 0 0)
(0 0 0)
(0 0 0)
(0 0 0)
(0 0 0)
(0 0 0)
(0 0 0)
(0 0 0)
(0 0 0)
(0 0 -1.33886e-14)
(0 0 0)
(0 0 0)
(0 0 0)
(0 0 0)
(0 0 -1.33886e-14)
(0 0 0)
(0 0 0)
(0 0 0)
(0 0 0)
(-1.16049e-17 0 -6.94345e-15)
(-1.60004e-33 0 0)
(-1.25332e-46 0 0)
(-7.79361e-62 0 0)
(8.23888e-63 0 0)
(7.43378e-73 0 0)
(-3.25817e-81 0 0)
(-9.5059e-86 0 0)
(0 0 0)
(0 0 0)
(0 0 0)
(0 0 0)
(0 0 0)
(0 0 0)
(0 0 0)
(0 0 0)
(0 0 0)
(0 0 0)
(0 0 0)
(0 0 -1.68081e-14)
(0 0 2.22332e-14)
(0 0 2.21868e-14)
(0 0 2.96756e-15)
(0 0 1.73182e-14)
(0 0 -1.96366e-14)
(0 0 0)
(0 0 2.21868e-14)
(0 0 2.96756e-15)
(0 0 1.72718e-14)
(0 0 -1.96366e-14)
(0 0 0)
(0 0 2.21868e-14)
(0 0 2.96756e-15)
(0 0 1.72718e-14)
(0 0 -1.96366e-14)
(0 0 0)
(0 0 2.21868e-14)
(0 0 4.21951e-15)
(0 0 2.22332e-14)
(0 0 2.21868e-14)
(0 0 7.41891e-16)
(0 0 2.21868e-14)
(0 0 4.21951e-15)
(0 0 2.21868e-14)
(0 0 2.21868e-14)
(0 0 7.41891e-16)
(0 0 2.21868e-14)
(0 0 4.21951e-15)
(0 0 2.21868e-14)
(0 0 0)
(-9.31412e-18 0 0)
(-6.29627e-32 0 0)
(5.45167e-45 0 0)
(4.45927e-61 0 0)
(2.76078e-65 0 0)
(4.9811e-73 0 0)
(0 0 0)
(0 0 0)
(0 0 0)
(0 0 0)
(0 0 0)
(0 0 0)
(0 0 0)
(0 0 0)
(0 0 0)
(0 0 0)
(0 0 0)
(0 0 0)
(0 0 0)
(0 0 -4.63682e-16)
(0 0 5.47145e-15)
(0 0 5.61055e-15)
(0 0 0)
(0 0 2.45751e-15)
(0 0 -2.13294e-15)
(0 0 0)
(0 0 4.54408e-15)
(0 0 0)
(0 0 2.41115e-15)
(0 0 -2.17931e-15)
(0 0 0)
(0 0 4.54408e-15)
(0 0 0)
(0 0 2.41115e-15)
(0 0 -2.17931e-15)
(0 0 0)
(0 0 4.54408e-15)
(0 0 0)
(0 0 5.51782e-15)
(0 0 3.75582e-15)
(0 0 -7.36077e-15)
(0 0 2.13294e-15)
(0 0 0)
(0 0 5.51782e-15)
(0 0 3.75582e-15)
(0 0 -7.3144e-15)
(0 0 2.13294e-15)
(0 0 0)
(0 0 5.61055e-15)
(0 0 0)
(-9.35797e-18 0 -6.94345e-15)
(-2.76895e-29 0 0)
(1.32398e-43 0 0)
(3.35905e-60 0 0)
(-2.94479e-65 0 0)
(2.30695e-73 0 0)
(0 0 0)
(0 0 0)
(0 0 0)
(0 0 0)
(0 0 0)
(0 0 0)
(0 0 0)
(0 0 0)
(0 0 0)
(0 0 0)
(0 0 0)
(0 0 0)
(0 0 0)
(0 0 -1.51388e-14)
(0 0 2.22332e-14)
(0 0 2.21868e-14)
(0 0 7.51165e-15)
(0 0 2.22332e-14)
(0 0 -1.72254e-14)
(0 0 0)
(0 0 2.22332e-14)
(0 0 7.37254e-15)
(0 0 2.22332e-14)
(0 0 -1.72254e-14)
(0 0 0)
(0 0 2.22332e-14)
(0 0 7.37254e-15)
(0 0 2.22332e-14)
(0 0 -1.72254e-14)
(0 0 0)
(0 0 2.22332e-14)
(0 0 7.46528e-15)
(0 0 2.22332e-14)
(0 0 2.21868e-14)
(0 0 0)
(0 0 2.13058e-14)
(0 0 0)
(0 0 2.21868e-14)
(0 0 2.21868e-14)
(0 0 0)
(0 0 2.13058e-14)
(0 0 0)
(0 0 2.21868e-14)
(0 0 0)
(-5.70518e-18 0 0)
(-1.54401e-27 0 0)
(7.06318e-43 0 0)
(6.01343e-60 0 0)
(-1.97273e-65 0 -2.06567e-14)
(0 0 -2.1584e-14)
(0 0 -3.15304e-15)
(0 0 -2.16304e-14)
(0 0 -2.09812e-14)
(0 0 0)
(0 0 0)
(0 0 0)
(0 0 0)
(0 0 0)
(0 0 6.94345e-15)
(0 0 0)
(0 0 0)
(0 0 0)
(0 0 0)
(0 0 5.59877e-15)
(0 0 1.46406e-14)
(0 0 5.05413e-15)
(0 0 1.32959e-14)
(0 0 1.64026e-14)
(0 0 7.03619e-15)
(0 0 7.17529e-15)
(0 0 2.9212e-15)
(0 0 1.26467e-14)
(0 0 1.63562e-14)
(0 0 7.03619e-15)
(0 0 7.17529e-15)
(0 0 2.9212e-15)
(0 0 1.26467e-14)
(0 0 1.63562e-14)
(0 0 7.03619e-15)
(0 0 7.17529e-15)
(0 0 2.9212e-15)
(0 0 1.31104e-14)
(0 0 1.78863e-14)
(0 0 0)
(0 0 -3.27006e-14)
(0 0 -1.57652e-15)
(0 0 -2.22795e-14)
(0 0 0)
(0 0 0)
(0 0 -2.95939e-14)
(0 0 -6.02787e-16)
(0 0 -2.20477e-14)
(0 0 0)
(0 0 0)
(-1.10175e-17 0 0)
(-1.28766e-26 0 0)
(9.67866e-42 0 0)
(-8.32301e-62 0 2.22332e-14)
(-1.22659e-69 0 2.22332e-14)
(0 0 2.17231e-14)
(0 0 3.01393e-15)
(0 0 2.15377e-14)
(0 0 2.09812e-14)
(0 0 0)
(0 0 0)
(0 0 0)
(0 0 0)
(0 0 -6.94345e-15)
(0 0 0)
(0 0 0)
(0 0 0)
(0 0 0)
(0 0 -1.20903e-14)
(0 0 -1.74227e-14)
(0 0 -5.59877e-15)
(0 0 0)
(0 0 -6.94345e-15)
(0 0 -6.98982e-15)
(0 0 -1.57534e-14)
(0 0 -9.12276e-15)
(0 0 0)
(0 0 -6.94345e-15)
(0 0 -6.98982e-15)
(0 0 -1.57534e-14)
(0 0 -9.12276e-15)
(0 0 0)
(0 0 -6.94345e-15)
(0 0 -6.98982e-15)
(0 0 -1.57534e-14)
(0 0 -9.12276e-15)
(0 0 0)
(0 0 -6.94345e-15)
(0 0 -6.38703e-15)
(0 0 2.45751e-15)
(0 0 2.11667e-14)
(0 0 3.84856e-15)
(0 0 0)
(0 0 0)
(0 0 3.84856e-15)
(0 0 2.08885e-14)
(0 0 3.80219e-15)
(0 0 0)
(0 0 0)
(0 0 0)
(-2.11402e-17 0 -6.94345e-15)
(-3.10119e-26 0 0)
(7.9212e-41 0 0)
(-1.43386e-64 0 0)
(-1.19783e-70 0 0)
(0 0 0)
(0 0 0)
(0 0 0)
(0 0 0)
(0 0 0)
(0 0 0)
(0 0 0)
(0 0 0)
(0 0 0)
(0 0 0)
(0 0 0)
(0 0 0)
(0 0 0)
(0 0 -1.66926e-15)
(0 0 -2.22332e-14)
(0 0 2.09349e-14)
(0 0 2.21868e-14)
(0 0 6.95523e-16)
(0 0 1.50461e-14)
(0 0 -2.22332e-14)
(0 0 0)
(0 0 2.21868e-14)
(0 0 6.95523e-16)
(0 0 1.50461e-14)
(0 0 -2.22332e-14)
(0 0 0)
(0 0 2.21868e-14)
(0 0 6.95523e-16)
(0 0 1.50461e-14)
(0 0 -2.22332e-14)
(0 0 0)
(0 0 2.21868e-14)
(0 0 2.45751e-15)
(0 0 2.22332e-14)
(0 0 2.21868e-14)
(0 0 7.46528e-15)
(0 0 2.21868e-14)
(0 0 5.28597e-15)
(0 0 2.21868e-14)
(0 0 2.21868e-14)
(0 0 7.37254e-15)
(0 0 2.21868e-14)
(0 0 5.28597e-15)
(0 0 2.21868e-14)
(0 0 0)
(-4.27135e-17 0 0)
(-3.53642e-24 0 0)
(-3.12441e-40 0 0)
(0 0 0)
(0 0 0)
(0 0 0)
(0 0 0)
(0 0 0)
(0 0 0)
(0 0 0)
(0 0 0)
(0 0 0)
(0 0 0)
(0 0 0)
(0 0 0)
(0 0 0)
(0 0 0)
(0 0 0)
(0 0 0)
(0 0 -1.29831e-15)
(0 0 5.00777e-15)
(0 0 5.56418e-15)
(0 0 0)
(0 0 1.66926e-15)
(0 0 -2.96756e-15)
(0 0 0)
(0 0 4.63682e-15)
(0 0 0)
(0 0 1.66926e-15)
(0 0 -2.96756e-15)
(0 0 0)
(0 0 4.63682e-15)
(0 0 0)
(0 0 1.66926e-15)
(0 0 -2.96756e-15)
(0 0 0)
(0 0 4.63682e-15)
(0 0 0)
(0 0 5.51782e-15)
(0 0 3.57035e-15)
(0 0 -8.14903e-15)
(0 0 1.9011e-15)
(0 0 0)
(0 0 5.51782e-15)
(0 0 3.57035e-15)
(0 0 -8.14903e-15)
(0 0 1.9011e-15)
(0 0 0)
(0 0 5.61055e-15)
(0 0 0)
(-8.39993e-17 0 -8.38087e-15)
(-8.04706e-22 0 0)
(3.12057e-39 0 0)
(0 0 0)
(0 0 -8.80996e-16)
(0 0 -1.66926e-15)
(0 0 0)
(0 0 -1.76199e-15)
(0 0 -1.15921e-15)
(0 0 0)
(0 0 0)
(0 0 0)
(0 0 0)
(0 0 0)
(0 0 0)
(0 0 0)
(0 0 0)
(0 0 0)
(0 0 0)
(0 0 -1.50925e-14)
(0 0 2.22332e-14)
(0 0 2.21868e-14)
(0 0 8.39264e-15)
(0 0 2.22332e-14)
(0 0 -1.69472e-14)
(0 0 0)
(0 0 2.22332e-14)
(0 0 8.25354e-15)
(0 0 2.22332e-14)
(0 0 -1.69472e-14)
(0 0 0)
(0 0 2.22332e-14)
(0 0 8.25354e-15)
(0 0 2.22332e-14)
(0 0 -1.69472e-14)
(0 0 0)
(0 0 2.22332e-14)
(0 0 8.29991e-15)
(0 0 2.22332e-14)
(0 0 2.21868e-14)
(0 0 0)
(0 0 2.12131e-14)
(0 0 0)
(0 0 2.21868e-14)
(0 0 2.21868e-14)
(0 0 0)
(0 0 2.12131e-14)
(0 0 0)
(0 0 2.21868e-14)
(0 0 0)
(-3.40265e-16 0 0)
(-7.26877e-20 0 0)
(0 0 0)
(0 0 0)
(0 0 -2.9513e-14)
(0 0 -3.30833e-14)
(0 0 -9.64459e-15)
(0 0 -3.32224e-14)
(0 0 -3.04867e-14)
(0 0 -9.27364e-17)
(0 0 0)
(0 0 0)
(0 0 0)
(0 0 0)
(0 0 1.20903e-14)
(0 0 1.66926e-15)
(0 0 0)
(0 0 0)
(0 0 0)
(0 0 7.4535e-15)
(0 0 1.70517e-14)
(0 0 6.53792e-15)
(0 0 1.66808e-14)
(0 0 1.98802e-14)
(0 0 1.03747e-14)
(0 0 1.06993e-14)
(0 0 4.68319e-15)
(0 0 1.61707e-14)
(0 0 1.98338e-14)
(0 0 1.03747e-14)
(0 0 1.06993e-14)
(0 0 4.68319e-15)
(0 0 1.61707e-14)
(0 0 1.98338e-14)
(0 0 1.03747e-14)
(0 0 1.06993e-14)
(0 0 4.68319e-15)
(0 0 1.63562e-14)
(0 0 2.06221e-14)
(0 0 0)
(0 0 -3.46017e-14)
(0 0 -1.99383e-15)
(0 0 -2.22332e-14)
(0 0 0)
(0 0 0)
(0 0 -3.10777e-14)
(0 0 -1.06647e-15)
(0 0 -2.20013e-14)
(0 0 0)
(0 0 0)
(-8.30535e-16 0 1.81064e-14)
(-2.5557e-18 0 0)
(0 0 0)
(0 0 2.22332e-14)
(0 0 0)
(0 0 -1.76199e-15)
(0 0 0)
(0 0 -1.85473e-15)
(0 0 -1.53015e-15)
(0 0 0)
(0 0 1.84774e-14)
(0 0 1.20557e-15)
(0 0 1.75036e-14)
(0 0 -5.59877e-15)
(0 0 1.74227e-14)
(0 0 2.22332e-14)
(0 0 2.17931e-15)
(0 0 1.73182e-14)
(0 0 -7.59261e-15)
(0 0 0)
(0 0 0)
(0 0 0)
(0 0 0)
(0 0 0)
(0 0 0)
(0 0 0)
(0 0 0)
(0 0 0)
(0 0 0)
(0 0 0)
(0 0 0)
(0 0 0)
(0 0 0)
(0 0 0)
(0 0 0)
(0 0 0)
(0 0 0)
(0 0 0)
(0 0 0)
(0 0 0)
(0 0 1.52316e-14)
(0 0 0)
(0 0 -3.61672e-15)
(0 0 0)
(0 0 0)
(0 0 1.54171e-14)
(0 0 0)
(0 0 -3.57035e-15)
(0 0 0)
(0 0 0)
(-1.59409e-15 0 -1.66226e-14)
(-4.20146e-17 0 0)
(0 0 0)
(0 0 2.22332e-14)
(0 0 0)
(0 0 0)
(0 0 0)
(0 0 0)
(0 0 0)
(0 0 0)
(0 0 -2.22332e-14)
(0 0 -8.0217e-15)
(0 0 -2.22332e-14)
(0 0 -1.64026e-14)
(0 0 5.59877e-15)
(0 0 -2.22332e-14)
(0 0 -7.51168e-15)
(0 0 -2.22332e-14)
(0 0 -1.89529e-14)
(0 0 0)
(0 0 0)
(0 0 0)
(0 0 0)
(0 0 0)
(0 0 0)
(0 0 0)
(0 0 0)
(0 0 0)
(0 0 0)
(0 0 0)
(0 0 0)
(0 0 0)
(0 0 0)
(0 0 0)
(0 0 0)
(0 0 0)
(0 0 0)
(0 0 0)
(0 0 0)
(0 0 0)
(0 0 0)
(0 0 0)
(0 0 -1.70399e-14)
(0 0 0)
(0 0 0)
(0 0 0)
(0 0 0)
(0 0 -1.70399e-14)
(0 0 0)
(0 0 0)
(-2.90411e-15 0 0)
(-3.4411e-16 0 0)
(0 0 0)
(0 0 4.21951e-15)
(0 0 0)
(0 0 0)
(0 0 0)
(0 0 0)
(0 0 0)
(0 0 -2.08657e-15)
(0 0 -3.59582e-14)
(0 0 -1.65534e-14)
(0 0 -4.24497e-14)
(0 0 -1.18239e-14)
(0 0 -1.39139e-16)
(0 0 -3.34544e-14)
(0 0 -1.54407e-14)
(0 0 -4.30063e-14)
(0 0 -1.35396e-14)
(0 0 0)
(0 0 0)
(0 0 0)
(0 0 0)
(0 0 0)
(0 0 0)
(0 0 0)
(0 0 0)
(0 0 0)
(0 0 0)
(0 0 0)
(0 0 0)
(0 0 0)
(0 0 0)
(0 0 0)
(0 0 0)
(0 0 0)
(0 0 0)
(0 0 0)
(0 0 0)
(0 0 0)
(0 0 0)
(0 0 0)
(0 0 1.92656e-14)
(0 0 0)
(0 0 0)
(0 0 0)
(0 0 0)
(0 0 1.92656e-14)
(0 0 0)
(0 0 0)
(-7.7404e-15 0 0)
(-1.41791e-15 0 0)
(0 0 0)
(0 0 2.22332e-14)
(0 0 0)
(0 0 0)
(0 0 0)
(0 0 0)
(0 0 0)
(0 0 0)
(0 0 -7.51165e-15)
(0 0 -3.0603e-15)
(0 0 -1.40959e-14)
(0 0 -1.63098e-14)
(0 0 6.94345e-15)
(0 0 -3.75586e-15)
(0 0 -1.06654e-15)
(0 0 -1.46524e-14)
(0 0 -2.00193e-14)
(0 0 0)
(0 0 0)
(0 0 0)
(0 0 0)
(0 0 0)
(0 0 0)
(0 0 0)
(0 0 0)
(0 0 0)
(0 0 0)
(0 0 0)
(0 0 0)
(0 0 0)
(0 0 0)
(0 0 0)
(0 0 0)
(0 0 0)
(0 0 0)
(0 0 0)
(0 0 0)
(0 0 0)
(0 0 2.21404e-14)
(0 0 0)
(0 0 0)
(0 0 0)
(0 0 0)
(0 0 2.21404e-14)
(0 0 0)
(0 0 0)
(0 0 0)
(0 0 0)
(-1.09316e-14 0 -1.70866e-14)
(-2.92604e-15 0 0)
(0 0 0)
(0 0 2.22332e-14)
(0 0 0)
(0 0 0)
(0 0 0)
(0 0 0)
(0 0 0)
(0 0 0)
(0 0 -1.86165e-14)
(0 0 -3.52398e-15)
(0 0 -2.22332e-14)
(0 0 -1.66808e-14)
(0 0 6.98982e-15)
(0 0 -1.50461e-14)
(0 0 -1.9011e-15)
(0 0 -2.22332e-14)
(0 0 -2.02048e-14)
(0 0 0)
(0 0 0)
(0 0 0)
(0 0 0)
(0 0 0)
(0 0 0)
(0 0 0)
(0 0 0)
(0 0 0)
(0 0 0)
(0 0 0)
(0 0 0)
(0 0 0)
(0 0 0)
(0 0 0)
(0 0 0)
(0 0 0)
(0 0 0)
(0 0 0)
(0 0 0)
(0 0 0)
(0 0 5.28597e-15)
(0 0 0)
(0 0 -2.4598e-14)
(0 0 0)
(0 0 0)
(0 0 5.28597e-15)
(0 0 0)
(0 0 -2.4598e-14)
(0 0 0)
(0 0 0)
(-1.16839e-14 0 1.68546e-14)
(-3.40338e-15 0 0)
(0 0 0)
(0 0 2.22332e-14)
(0 0 0)
(0 0 0)
(0 0 0)
(0 0 0)
(0 0 0)
(0 0 0)
(0 0 1.97757e-14)
(0 0 2.13294e-15)
(0 0 1.72254e-14)
(0 0 -7.03619e-15)
(0 0 1.57534e-14)
(0 0 2.22332e-14)
(0 0 3.01393e-15)
(0 0 1.69472e-14)
(0 0 -1.06529e-14)
(0 0 0)
(0 0 0)
(0 0 0)
(0 0 0)
(0 0 0)
(0 0 0)
(0 0 0)
(0 0 0)
(0 0 0)
(0 0 0)
(0 0 0)
(0 0 0)
(0 0 0)
(0 0 0)
(0 0 0)
(0 0 0)
(0 0 0)
(0 0 0)
(0 0 0)
(0 0 0)
(0 0 0)
(0 0 2.21868e-14)
(0 0 0)
(0 0 0)
(0 0 0)
(0 0 0)
(0 0 2.21868e-14)
(0 0 0)
(0 0 0)
(0 0 0)
(0 0 0)
(-1.25954e-15 0 0)
(-7.87817e-17 0 0)
(0 0 0)
(0 0 2.22332e-14)
(0 0 0)
(0 0 0)
(0 0 0)
(0 0 0)
(0 0 0)
(0 0 0)
(0 0 0)
(0 0 0)
(0 0 0)
(0 0 -7.87082e-15)
(0 0 9.12276e-15)
(0 0 0)
(0 0 0)
(0 0 0)
(0 0 -1.15803e-14)
(0 0 0)
(0 0 0)
(0 0 0)
(0 0 0)
(0 0 0)
(0 0 0)
(0 0 0)
(0 0 0)
(0 0 0)
(0 0 0)
(0 0 0)
(0 0 0)
(0 0 0)
(0 0 0)
(0 0 0)
(0 0 0)
(0 0 0)
(0 0 0)
(0 0 0)
(0 0 0)
(0 0 0)
(0 0 2.21868e-14)
(0 0 0)
(0 0 0)
(0 0 0)
(0 0 0)
(0 0 2.21868e-14)
(0 0 0)
(0 0 0)
(0 0 0)
(0 0 0)
(-2.99501e-15 0 0)
(-3.5714e-16 0 0)
(0 0 0)
(0 0 4.21951e-15)
(0 0 0)
(0 0 0)
(0 0 0)
(0 0 0)
(0 0 0)
(0 0 0)
(0 0 -2.66382e-14)
(0 0 -7.78986e-15)
(0 0 -3.05331e-14)
(0 0 -5.65692e-15)
(0 0 0)
(0 0 -2.62672e-14)
(0 0 -8.1608e-15)
(0 0 -3.18778e-14)
(0 0 -7.92896e-15)
(0 0 0)
(0 0 0)
(0 0 0)
(0 0 0)
(0 0 0)
(0 0 0)
(0 0 0)
(0 0 0)
(0 0 0)
(0 0 0)
(0 0 0)
(0 0 0)
(0 0 0)
(0 0 0)
(0 0 0)
(0 0 0)
(0 0 0)
(0 0 0)
(0 0 0)
(0 0 0)
(0 0 0)
(0 0 4.21951e-15)
(0 0 0)
(0 0 2.22332e-14)
(0 0 0)
(0 0 0)
(0 0 4.21951e-15)
(0 0 0)
(0 0 2.22332e-14)
(0 0 0)
(0 0 0)
(-7.81196e-15 0 0)
(-1.42061e-15 0 0)
(0 0 0)
(0 0 2.22332e-14)
(0 0 0)
(0 0 0)
(0 0 0)
(0 0 0)
(0 0 0)
(0 0 0)
(0 0 -4.12677e-15)
(0 0 0)
(0 0 -9.73732e-15)
(0 0 -1.38987e-14)
(0 0 6.94345e-15)
(0 0 -1.66926e-15)
(0 0 0)
(0 0 -1.10356e-14)
(0 0 -1.77472e-14)
(0 0 0)
(0 0 0)
(0 0 0)
(0 0 0)
(0 0 0)
(0 0 0)
(0 0 0)
(0 0 0)
(0 0 0)
(0 0 0)
(0 0 0)
(0 0 0)
(0 0 0)
(0 0 0)
(0 0 0)
(0 0 0)
(0 0 0)
(0 0 0)
(0 0 0)
(0 0 0)
(0 0 0)
(0 0 2.21868e-14)
(0 0 0)
(0 0 0)
(0 0 0)
(0 0 0)
(0 0 2.21868e-14)
(0 0 0)
(0 0 0)
(0 0 0)
(0 0 0)
(-1.09384e-14 0 -1.70866e-14)
(-2.92645e-15 0 0)
(0 0 0)
(0 0 2.22332e-14)
(0 0 0)
(0 0 0)
(0 0 0)
(0 0 0)
(0 0 0)
(0 0 0)
(0 0 -1.75036e-14)
(0 0 -2.45751e-15)
(0 0 -2.22332e-14)
(0 0 -1.64953e-14)
(0 0 6.98982e-15)
(0 0 -1.50461e-14)
(0 0 -1.66926e-15)
(0 0 -2.22332e-14)
(0 0 -2.00657e-14)
(0 0 0)
(0 0 0)
(0 0 0)
(0 0 0)
(0 0 0)
(0 0 0)
(0 0 0)
(0 0 0)
(0 0 0)
(0 0 0)
(0 0 0)
(0 0 0)
(0 0 0)
(0 0 0)
(0 0 0)
(0 0 0)
(0 0 0)
(0 0 0)
(0 0 0)
(0 0 0)
(0 0 0)
(0 0 5.28597e-15)
(0 0 0)
(0 0 -2.48298e-14)
(0 0 0)
(0 0 0)
(0 0 5.28597e-15)
(0 0 0)
(0 0 -2.48298e-14)
(0 0 0)
(0 0 0)
(-1.16837e-14 0 1.68546e-14)
(-3.4042e-15 0 0)
(0 0 0)
(0 0 2.22332e-14)
(0 0 0)
(0 0 0)
(0 0 0)
(0 0 0)
(0 0 0)
(0 0 0)
(0 0 1.9822e-14)
(0 0 2.17931e-15)
(0 0 1.72254e-14)
(0 0 -7.03619e-15)
(0 0 1.57534e-14)
(0 0 2.22332e-14)
(0 0 3.01393e-15)
(0 0 1.69472e-14)
(0 0 -1.06529e-14)
(0 0 0)
(0 0 0)
(0 0 0)
(0 0 0)
(0 0 0)
(0 0 0)
(0 0 0)
(0 0 0)
(0 0 0)
(0 0 0)
(0 0 0)
(0 0 0)
(0 0 0)
(0 0 0)
(0 0 0)
(0 0 0)
(0 0 0)
(0 0 0)
(0 0 0)
(0 0 0)
(0 0 0)
(0 0 2.21868e-14)
(0 0 0)
(0 0 0)
(0 0 0)
(0 0 0)
(0 0 2.21868e-14)
(0 0 0)
(0 0 0)
(0 0 0)
(0 0 0)
(-1.25788e-15 0 0)
(-8.08573e-17 0 0)
(0 0 0)
(0 0 2.22332e-14)
(0 0 0)
(0 0 0)
(0 0 0)
(0 0 0)
(0 0 0)
(0 0 0)
(0 0 0)
(0 0 0)
(0 0 0)
(0 0 -7.87082e-15)
(0 0 9.12276e-15)
(0 0 0)
(0 0 0)
(0 0 0)
(0 0 -1.15803e-14)
(0 0 0)
(0 0 0)
(0 0 0)
(0 0 0)
(0 0 0)
(0 0 0)
(0 0 0)
(0 0 0)
(0 0 0)
(0 0 0)
(0 0 0)
(0 0 0)
(0 0 0)
(0 0 0)
(0 0 0)
(0 0 0)
(0 0 0)
(0 0 0)
(0 0 0)
(0 0 0)
(0 0 0)
(0 0 2.21868e-14)
(0 0 0)
(0 0 0)
(0 0 0)
(0 0 0)
(0 0 2.21868e-14)
(0 0 0)
(0 0 0)
(0 0 0)
(0 0 0)
(-2.96711e-15 0 0)
(-3.63019e-16 0 0)
(0 0 0)
(0 0 4.21951e-15)
(0 0 0)
(0 0 0)
(0 0 0)
(0 0 0)
(0 0 0)
(0 0 0)
(0 0 -2.66382e-14)
(0 0 -7.78986e-15)
(0 0 -3.05331e-14)
(0 0 -5.65692e-15)
(0 0 0)
(0 0 -2.62672e-14)
(0 0 -8.1608e-15)
(0 0 -3.18778e-14)
(0 0 -7.92896e-15)
(0 0 0)
(0 0 0)
(0 0 0)
(0 0 0)
(0 0 0)
(0 0 0)
(0 0 0)
(0 0 0)
(0 0 0)
(0 0 0)
(0 0 0)
(0 0 0)
(0 0 0)
(0 0 0)
(0 0 0)
(0 0 0)
(0 0 0)
(0 0 0)
(0 0 0)
(0 0 0)
(0 0 0)
(0 0 4.21951e-15)
(0 0 0)
(0 0 2.22332e-14)
(0 0 0)
(0 0 0)
(0 0 4.21951e-15)
(0 0 0)
(0 0 2.22332e-14)
(0 0 0)
(0 0 0)
(-7.67131e-15 0 0)
(-1.41173e-15 0 0)
(0 0 0)
(0 0 2.22332e-14)
(0 0 0)
(0 0 0)
(0 0 0)
(0 0 0)
(0 0 0)
(0 0 0)
(0 0 -4.12677e-15)
(0 0 0)
(0 0 -9.73732e-15)
(0 0 -1.38987e-14)
(0 0 6.94345e-15)
(0 0 -1.66926e-15)
(0 0 0)
(0 0 -1.10356e-14)
(0 0 -1.77472e-14)
(0 0 0)
(0 0 0)
(0 0 0)
(0 0 0)
(0 0 0)
(0 0 0)
(0 0 0)
(0 0 0)
(0 0 0)
(0 0 0)
(0 0 0)
(0 0 0)
(0 0 0)
(0 0 0)
(0 0 0)
(0 0 0)
(0 0 0)
(0 0 0)
(0 0 0)
(0 0 0)
(0 0 0)
(0 0 2.21868e-14)
(0 0 0)
(0 0 0)
(0 0 0)
(0 0 0)
(0 0 2.21868e-14)
(0 0 0)
(0 0 0)
(0 0 0)
(0 0 0)
(-1.06649e-14 0 -1.70402e-14)
(-2.82622e-15 0 0)
(0 0 0)
(0 0 2.22332e-14)
(0 0 0)
(0 0 0)
(0 0 0)
(0 0 0)
(0 0 0)
(0 0 0)
(0 0 -1.75036e-14)
(0 0 -2.45751e-15)
(0 0 -2.22332e-14)
(0 0 -1.64953e-14)
(0 0 6.98982e-15)
(0 0 -1.50461e-14)
(0 0 -1.66926e-15)
(0 0 -2.22332e-14)
(0 0 -2.00657e-14)
(0 0 0)
(0 0 0)
(0 0 0)
(0 0 0)
(0 0 0)
(0 0 0)
(0 0 0)
(0 0 0)
(0 0 0)
(0 0 0)
(0 0 0)
(0 0 0)
(0 0 0)
(0 0 0)
(0 0 0)
(0 0 0)
(0 0 0)
(0 0 0)
(0 0 0)
(0 0 0)
(0 0 0)
(0 0 5.28597e-15)
(0 0 0)
(0 0 -2.48298e-14)
(0 0 0)
(0 0 0)
(0 0 5.28597e-15)
(0 0 0)
(0 0 -2.48298e-14)
(0 0 0)
(0 0 0)
(-1.11741e-14 0 1.68546e-14)
(-3.20086e-15 0 0)
(0 0 0)
(0 0 2.22332e-14)
(0 0 0)
(0 0 0)
(0 0 0)
(0 0 0)
(0 0 0)
(0 0 0)
(0 0 1.9822e-14)
(0 0 2.17931e-15)
(0 0 1.72254e-14)
(0 0 -7.03619e-15)
(0 0 1.57534e-14)
(0 0 2.22332e-14)
(0 0 3.01393e-15)
(0 0 1.69472e-14)
(0 0 -1.06529e-14)
(0 0 0)
(0 0 0)
(0 0 0)
(0 0 0)
(0 0 0)
(0 0 0)
(0 0 0)
(0 0 0)
(0 0 0)
(0 0 0)
(0 0 0)
(0 0 0)
(0 0 0)
(0 0 0)
(0 0 0)
(0 0 0)
(0 0 0)
(0 0 0)
(0 0 0)
(0 0 0)
(0 0 0)
(0 0 2.21868e-14)
(0 0 0)
(0 0 0)
(0 0 0)
(0 0 0)
(0 0 2.21868e-14)
(0 0 0)
(0 0 0)
(0 0 0)
(0 0 0)
(-1.41596e-16 0 0)
(0 0 0)
(0 0 0)
(0 0 2.22332e-14)
(0 0 0)
(0 0 0)
(0 0 0)
(0 0 0)
(0 0 0)
(0 0 0)
(0 0 0)
(0 0 0)
(0 0 0)
(0 0 -7.82445e-15)
(0 0 9.12276e-15)
(0 0 0)
(0 0 0)
(0 0 0)
(0 0 -1.15803e-14)
(0 0 0)
(0 0 0)
(0 0 0)
(0 0 0)
(0 0 0)
(0 0 0)
(0 0 0)
(0 0 0)
(0 0 0)
(0 0 0)
(0 0 0)
(0 0 0)
(0 0 0)
(0 0 0)
(0 0 0)
(0 0 0)
(0 0 0)
(0 0 0)
(0 0 0)
(0 0 0)
(0 0 0)
(0 0 2.21868e-14)
(0 0 0)
(0 0 0)
(0 0 0)
(0 0 0)
(0 0 2.21868e-14)
(0 0 0)
(0 0 0)
(0 0 0)
(0 0 0)
(-5.12868e-17 0 0)
(0 0 0)
(0 0 0)
(0 0 4.21951e-15)
(0 0 0)
(0 0 0)
(0 0 0)
(0 0 0)
(0 0 0)
(0 0 0)
(0 0 -2.66845e-14)
(0 0 -7.78986e-15)
(0 0 -3.03476e-14)
(0 0 -5.51782e-15)
(0 0 0)
(0 0 -2.64991e-14)
(0 0 -8.20717e-15)
(0 0 -3.18314e-14)
(0 0 -7.83623e-15)
(0 0 0)
(0 0 0)
(0 0 0)
(0 0 0)
(0 0 0)
(0 0 0)
(0 0 0)
(0 0 0)
(0 0 0)
(0 0 0)
(0 0 0)
(0 0 0)
(0 0 0)
(0 0 0)
(0 0 0)
(0 0 0)
(0 0 0)
(0 0 0)
(0 0 0)
(0 0 0)
(0 0 0)
(0 0 4.12677e-15)
(0 0 0)
(0 0 2.22332e-14)
(0 0 0)
(0 0 0)
(0 0 4.12677e-15)
(0 0 0)
(0 0 2.22332e-14)
(0 0 0)
(0 0 0)
(-1.01206e-17 0 0)
(0 0 0)
(0 0 0)
(0 0 2.22332e-14)
(0 0 0)
(0 0 0)
(0 0 0)
(0 0 0)
(0 0 0)
(0 0 0)
(0 0 -4.31224e-15)
(0 0 0)
(0 0 -9.27364e-15)
(0 0 -1.42696e-14)
(0 0 6.94345e-15)
(0 0 -2.50388e-15)
(0 0 0)
(0 0 -1.10356e-14)
(0 0 -1.81182e-14)
(0 0 0)
(0 0 0)
(0 0 0)
(0 0 0)
(0 0 0)
(0 0 0)
(0 0 0)
(0 0 0)
(0 0 0)
(0 0 0)
(0 0 0)
(0 0 0)
(0 0 0)
(0 0 0)
(0 0 0)
(0 0 0)
(0 0 0)
(0 0 0)
(0 0 0)
(0 0 0)
(0 0 0)
(0 0 2.18622e-14)
(0 0 0)
(0 0 0)
(0 0 0)
(0 0 0)
(0 0 2.18622e-14)
(0 0 0)
(0 0 0)
(0 0 0)
(0 0 0)
(-3.31409e-18 0 -2.08421e-14)
(0 0 0)
(0 0 0)
(0 0 2.22332e-14)
(0 0 0)
(0 0 0)
(0 0 0)
(0 0 0)
(0 0 0)
(0 0 0)
(0 0 -2.22332e-14)
(0 0 -6.86249e-15)
(0 0 -2.42734e-14)
(0 0 -1.82109e-14)
(0 0 6.38703e-15)
(0 0 -2.22332e-14)
(0 0 -8.0217e-15)
(0 0 -2.58963e-14)
(0 0 -2.15031e-14)
(0 0 0)
(0 0 0)
(0 0 0)
(0 0 0)
(0 0 0)
(0 0 0)
(0 0 0)
(0 0 0)
(0 0 0)
(0 0 0)
(0 0 0)
(0 0 0)
(0 0 0)
(0 0 0)
(0 0 0)
(0 0 0)
(0 0 0)
(0 0 0)
(0 0 0)
(0 0 0)
(0 0 0)
(0 0 0)
(0 0 0)
(0 0 -1.91729e-14)
(0 0 0)
(0 0 0)
(0 0 0)
(0 0 0)
(0 0 -1.91729e-14)
(0 0 0)
(0 0 0)
(-8.05928e-20 0 0)
(0 0 0)
(0 0 0)
(0 0 0)
(0 0 0)
(0 0 0)
(0 0 0)
(0 0 0)
(0 0 0)
(0 0 0)
(0 0 -3.08577e-14)
(0 0 -8.53175e-15)
(0 0 -3.01158e-14)
(0 0 -1.85473e-16)
(0 0 -9.22727e-15)
(0 0 -3.99922e-14)
(0 0 -1.15457e-14)
(0 0 -3.15996e-14)
(0 0 -7.88259e-16)
(0 0 0)
(0 0 0)
(0 0 0)
(0 0 0)
(0 0 0)
(0 0 -1.9011e-15)
(0 0 -1.94746e-15)
(0 0 0)
(0 0 0)
(0 0 0)
(0 0 -1.99383e-15)
(0 0 -1.99383e-15)
(0 0 0)
(0 0 0)
(0 0 0)
(0 0 -1.94746e-15)
(0 0 -1.85473e-15)
(0 0 0)
(0 0 0)
(0 0 0)
(0 0 0)
(0 0 0)
(0 0 0)
(0 0 1.69472e-14)
(0 0 0)
(0 0 0)
(0 0 0)
(0 0 0)
(0 0 1.69472e-14)
(0 0 0)
(0 0 0)
(-9.62449e-20 0 0)
(0 0 0)
(0 0 0)
(0 0 0)
(0 0 -1.65763e-14)
(0 0 2.10276e-14)
(0 0 1.23685e-14)
(0 0 6.49155e-16)
(0 0 2.22332e-14)
(0 0 1.23685e-14)
(0 0 -3.52398e-15)
(0 0 7.36077e-15)
(0 0 0)
(0 0 2.22214e-14)
(0 0 -3.02549e-14)
(0 0 -1.73417e-14)
(0 0 8.14903e-15)
(0 0 0)
(0 0 2.22214e-14)
(0 0 -1.59735e-14)
(0 0 0)
(0 0 0)
(0 0 -2.29751e-14)
(0 0 -8.67085e-15)
(0 0 -3.32688e-14)
(0 0 -3.34543e-14)
(0 0 -8.20717e-15)
(0 0 -2.52471e-14)
(0 0 -9.45911e-15)
(0 0 -3.35934e-14)
(0 0 -3.3547e-14)
(0 0 -8.25354e-15)
(0 0 -2.52471e-14)
(0 0 -9.41274e-15)
(0 0 -3.35007e-14)
(0 0 -3.31297e-14)
(0 0 -7.32618e-15)
(0 0 -2.26505e-14)
(0 0 0)
(0 0 0)
(0 0 0)
(0 0 0)
(0 0 2.78209e-15)
(0 0 0)
(0 0 0)
(0 0 0)
(0 0 0)
(0 0 2.68936e-15)
(0 0 0)
(0 0 0)
(-9.60838e-20 0 0)
(0 0 0)
(0 0 0)
(0 0 0)
(0 0 0)
(0 0 0)
(0 0 0)
(0 0 0)
(0 0 0)
(0 0 0)
(0 0 -2.45052e-14)
(0 0 -2.82846e-15)
(0 0 -2.18159e-14)
(0 0 0)
(0 0 -9.41278e-15)
(0 0 -3.49845e-14)
(0 0 -6.81623e-15)
(0 0 -2.32997e-14)
(0 0 0)
(0 0 0)
(0 0 0)
(0 0 0)
(0 0 0)
(0 0 0)
(0 0 -2.08657e-15)
(0 0 -2.68936e-15)
(0 0 -1.85473e-15)
(0 0 0)
(0 0 0)
(0 0 -2.17931e-15)
(0 0 -2.73572e-15)
(0 0 -1.9011e-15)
(0 0 0)
(0 0 0)
(0 0 -2.08657e-15)
(0 0 -2.50388e-15)
(0 0 -1.53015e-15)
(0 0 0)
(0 0 0)
(0 0 0)
(0 0 0)
(0 0 0)
(0 0 2.18159e-14)
(0 0 0)
(0 0 -1.25194e-15)
(0 0 0)
(0 0 0)
(0 0 2.14913e-14)
(0 0 0)
(0 0 0)
(-6.58736e-20 0 0)
(0 0 0)
(0 0 0)
(0 0 0)
(0 0 0)
(0 0 0)
(0 0 0)
(0 0 -2.09812e-14)
(0 0 0)
(0 0 0)
(0 0 -8.43901e-15)
(0 0 0)
(0 0 -1.20557e-15)
(0 0 2.21868e-14)
(0 0 0)
(0 0 -1.62753e-14)
(0 0 -4.77624e-15)
(0 0 -3.10684e-15)
(0 0 2.16768e-14)
(0 0 3.47762e-15)
(0 0 1.70399e-14)
(0 0 -1.91265e-14)
(0 0 0)
(0 0 2.21868e-14)
(0 0 0)
(0 0 0)
(0 0 -2.41806e-14)
(0 0 0)
(0 0 2.21868e-14)
(0 0 0)
(0 0 0)
(0 0 -2.41806e-14)
(0 0 0)
(0 0 2.21868e-14)
(0 0 0)
(0 0 0)
(0 0 -2.38561e-14)
(0 0 0)
(0 0 1.92656e-14)
(0 0 -1.69472e-14)
(0 0 -2.68936e-15)
(0 0 -2.14913e-14)
(0 0 0)
(0 0 -2.86784e-14)
(0 0 -3.15068e-14)
(0 0 -6.58428e-15)
(0 0 -2.2465e-14)
(0 0 0)
(0 0 -2.7751e-14)
(0 0 0)
(-2.90703e-20 0 0)
(0 0 0)
(0 0 0)
(0 0 0)
(0 0 0)
(0 0 0)
(0 0 0)
(0 0 0)
(0 0 0)
(0 0 -2.9212e-15)
(0 0 -3.69783e-14)
(0 0 -1.39105e-14)
(0 0 -3.28051e-14)
(0 0 0)
(0 0 -6.86325e-15)
(0 0 -4.50017e-14)
(0 0 -1.89654e-14)
(0 0 -3.50775e-14)
(0 0 0)
(0 0 0)
(0 0 0)
(0 0 0)
(0 0 0)
(0 0 0)
(0 0 0)
(0 0 0)
(0 0 0)
(0 0 0)
(0 0 0)
(0 0 0)
(0 0 0)
(0 0 0)
(0 0 0)
(0 0 0)
(0 0 0)
(0 0 0)
(0 0 0)
(0 0 0)
(0 0 0)
(0 0 0)
(0 0 0)
(0 0 0)
(0 0 2.22332e-14)
(0 0 0)
(0 0 -1.25194e-15)
(0 0 0)
(0 0 0)
(0 0 2.22332e-14)
(0 0 0)
(0 0 0)
(-7.19917e-21 0 0)
(0 0 0)
(0 0 0)
(0 0 0)
(0 0 0)
(0 0 0)
(0 0 0)
(0 0 0)
(0 0 0)
(0 0 0)
(0 0 -3.38252e-14)
(0 0 -1.11284e-14)
(0 0 -3.1785e-14)
(0 0 0)
(0 0 -1.59987e-14)
(0 0 -4.87603e-14)
(0 0 -1.64158e-14)
(0 0 -3.36866e-14)
(0 0 0)
(0 0 0)
(0 0 0)
(0 0 0)
(0 0 0)
(0 0 0)
(0 0 -1.9011e-15)
(0 0 -1.94746e-15)
(0 0 0)
(0 0 0)
(0 0 0)
(0 0 -1.99383e-15)
(0 0 -1.99383e-15)
(0 0 0)
(0 0 0)
(0 0 0)
(0 0 -1.94746e-15)
(0 0 -1.85473e-15)
(0 0 0)
(0 0 0)
(0 0 0)
(0 0 0)
(0 0 0)
(0 0 0)
(0 0 2.22332e-14)
(0 0 0)
(0 0 0)
(0 0 0)
(0 0 0)
(0 0 2.22332e-14)
(0 0 0)
(0 0 0)
(-7.25689e-22 0 0)
(0 0 0)
(0 0 0)
(0 0 0)
(0 0 -1.65763e-14)
(0 0 2.10276e-14)
(0 0 1.23685e-14)
(0 0 6.49155e-16)
(0 0 2.22332e-14)
(0 0 1.23685e-14)
(0 0 -3.89493e-15)
(0 0 7.3144e-15)
(0 0 0)
(0 0 2.22214e-14)
(0 0 -3.2157e-14)
(0 0 -2.03108e-14)
(0 0 8.14903e-15)
(0 0 0)
(0 0 2.22214e-14)
(0 0 -1.59735e-14)
(0 0 0)
(0 0 0)
(0 0 -2.29751e-14)
(0 0 -8.67085e-15)
(0 0 -3.32688e-14)
(0 0 -3.34543e-14)
(0 0 -8.20717e-15)
(0 0 -2.52471e-14)
(0 0 -9.45911e-15)
(0 0 -3.35934e-14)