/*--------------------------------*- C++ -*----------------------------------*\
  =========                 |
  \\      /  F ield         | OpenFOAM: The Open Source CFD Toolbox
   \\    /   O peration     | Website:  https://openfoam.org
    \\  /    A nd           | Version:  9
     \\/     M anipulation  |
\*---------------------------------------------------------------------------*/
FoamFile
{
    format      ascii;
    class       volScalarField;
    location    "0.0055";
    object      alpha.C4;
}
// * * * * * * * * * * * * * * * * * * * * * * * * * * * * * * * * * * * * * //

dimensions      [0 0 0 0 0 0 0];

internalField   nonuniform List<scalar> 
9720
(
0.999873
0.999921
0.999933
0.999942
0.999946
0.999948
0.999949
0.99995
0.999952
0.999952
0.999951
0.999948
0.999944
0.999938
0.99993
0.999917
0.999899
0.999873
0.999844
0.999764
0.999919
0.999944
0.999949
0.999951
0.999952
0.999953
0.999954
0.999955
0.999957
0.999957
0.999956
0.999955
0.999952
0.999948
0.999942
0.999935
0.999924
0.999908
0.999888
0.999832
0.999932
0.999948
0.999949
0.999949
0.999949
0.999949
0.999951
0.999952
0.999957
0.999953
0.999947
0.999943
0.999942
0.999941
0.99994
0.999936
0.99993
0.999918
0.999904
0.999861
0.999942
0.999951
0.999948
0.99991
0.999909
0.999907
0.999912
0.999914
0.999916
0.999859
0.999829
0.999829
0.999835
0.999847
0.999863
0.999878
0.999888
0.999889
0.999884
0.999855
0.999948
0.999955
0.999951
0.999911
0.999767
0.999551
0.999554
0.999563
0.999578
0.999599
0.999628
0.999666
0.999707
0.999743
0.999771
0.999771
0.999952
0.999957
0.999954
0.999916
0.999468
0.999255
0.999247
0.999244
0.999246
0.999253
0.999269
0.999299
0.999346
0.999406
0.999472
0.999543
0.999954
0.999959
0.999957
0.999921
0.999155
0.998837
0.998833
0.998829
0.998829
0.99883
0.998835
0.998848
0.998876
0.998923
0.998995
0.999118
0.999955
0.99996
0.999959
0.999925
0.998743
0.99835
0.998357
0.998362
0.998366
0.998366
0.998363
0.998354
0.998354
0.998366
0.998404
0.998511
0.999958
0.999963
0.999963
0.999928
0.999828
0.999635
0.999428
0.99916
0.998431
0.998039
0.997906
0.99789
0.997891
0.997886
0.997867
0.997834
0.9978
0.99776
0.997761
0.9978
0.999959
0.999964
0.999961
0.999894
0.999686
0.999485
0.999197
0.998888
0.99844
0.998053
0.997794
0.99763
0.997519
0.997437
0.997366
0.997298
0.997233
0.997156
0.997089
0.997026
0.999958
0.999964
0.999958
0.999875
0.999684
0.99947
0.999185
0.99888
0.99847
0.998077
0.99775
0.997473
0.997238
0.997043
0.996889
0.996765
0.996653
0.996524
0.996388
0.996182
0.999956
0.999963
0.999956
0.999875
0.999687
0.999459
0.999171
0.998866
0.998488
0.998078
0.997685
0.997325
0.996999
0.996703
0.996452
0.996247
0.996061
0.99585
0.995629
0.995251
0.999953
0.999961
0.999955
0.999878
0.999693
0.99945
0.999158
0.998851
0.998487
0.998069
0.997617
0.997177
0.996762
0.996378
0.99603
0.995713
0.995411
0.995074
0.994755
0.994204
0.999948
0.999958
0.999954
0.999886
0.999704
0.99945
0.999148
0.998835
0.998476
0.998047
0.997555
0.997041
0.996534
0.996056
0.995586
0.995103
0.994623
0.994128
0.993725
0.99303
0.99994
0.999953
0.999953
0.999896
0.999722
0.999456
0.999141
0.998816
0.99845
0.998012
0.997499
0.996935
0.996339
0.995726
0.995072
0.994367
0.993677
0.993022
0.992542
0.991692
0.999928
0.999947
0.99995
0.999906
0.999747
0.999473
0.999144
0.998796
0.998412
0.997966
0.997443
0.996846
0.996166
0.995383
0.994494
0.993536
0.992626
0.991793
0.991186
0.990084
0.999911
0.999937
0.999944
0.999911
0.999775
0.999504
0.999155
0.998771
0.998367
0.997909
0.997374
0.996746
0.99599
0.995055
0.993955
0.992765
0.991624
0.990544
0.989678
0.988116
0.999886
0.999922
0.999933
0.999911
0.999799
0.999542
0.99918
0.998771
0.99832
0.997835
0.997272
0.996601
0.995769
0.994722
0.993488
0.992118
0.990718
0.989261
0.987949
0.985636
0.999858
0.999903
0.999919
0.999905
0.999815
0.999588
0.999225
0.998786
0.998297
0.997765
0.997156
0.996434
0.995546
0.994458
0.993181
0.991701
0.990047
0.988146
0.986277
0.983097
0.999782
0.99985
0.99988
0.999876
0.99981
0.999626
0.999295
0.998833
0.998285
0.997665
0.996952
0.996115
0.99512
0.993953
0.992582
0.990909
0.988857
0.98627
0.983603
0.978844
0.999917
0.999953
0.999962
0.99997
0.999974
0.999975
0.999976
0.999976
0.999977
0.999977
0.999975
0.999973
0.999969
0.999964
0.999958
0.999948
0.999936
0.999917
0.999896
0.999838
0.999951
0.999973
0.99998
0.999984
0.999986
0.999986
0.999986
0.999987
0.999987
0.999984
0.999981
0.999978
0.999975
0.999971
0.999966
0.99996
0.999951
0.99994
0.999926
0.999887
0.999961
0.999979
0.999986
0.999992
0.999992
0.999992
0.999992
0.999993
0.999992
0.999981
0.999967
0.999958
0.999955
0.999955
0.999956
0.999955
0.999952
0.999945
0.999935
0.999906
0.999969
0.999984
0.999991
0.999997
0.999998
0.999998
0.999998
0.999998
0.999996
0.99985
0.999807
0.9998
0.999806
0.999821
0.999842
0.999866
0.999886
0.999896
0.999899
0.999888
0.999975
0.999986
0.999993
0.999998
0.999702
0.999416
0.999422
0.999436
0.999456
0.999484
0.999522
0.999572
0.999632
0.99969
0.99974
0.999768
0.999977
0.999987
0.999993
0.999998
0.999247
0.999045
0.99904
0.999035
0.999037
0.999044
0.999063
0.999099
0.999158
0.999245
0.99934
0.999455
0.999978
0.999988
0.999993
0.999998
0.998807
0.998529
0.99853
0.998529
0.998527
0.998527
0.998531
0.998545
0.998576
0.998636
0.998732
0.998905
0.999979
0.999988
0.999994
0.999999
0.998251
0.997955
0.997971
0.997974
0.997979
0.99798
0.997977
0.997965
0.99796
0.997971
0.998018
0.998163
0.99998
0.999989
0.999993
0.999995
0.999749
0.99942
0.999067
0.998622
0.997752
0.997432
0.997394
0.997413
0.997435
0.99743
0.997401
0.997353
0.99731
0.997263
0.997266
0.997323
0.999981
0.999987
0.999983
0.999864
0.9995
0.999186
0.998744
0.998259
0.997658
0.997287
0.997159
0.997062
0.996957
0.996862
0.996784
0.996721
0.996656
0.99657
0.996485
0.996423
0.99998
0.999985
0.999972
0.999831
0.999509
0.999188
0.99876
0.998295
0.997707
0.997302
0.997024
0.996731
0.996481
0.996324
0.996209
0.996103
0.99599
0.995837
0.995676
0.995464
0.999978
0.999983
0.999966
0.999831
0.999525
0.999191
0.998769
0.998314
0.997773
0.997299
0.996824
0.996384
0.996105
0.995906
0.995704
0.995496
0.995292
0.995059
0.994819
0.994425
0.999975
0.999981
0.999963
0.999837
0.999545
0.999196
0.998774
0.99833
0.997846
0.997292
0.996681
0.996195
0.995843
0.995522
0.995197
0.994862
0.994541
0.994197
0.993857
0.993266
0.999971
0.999978
0.999964
0.999851
0.999571
0.999206
0.998779
0.99834
0.997853
0.997278
0.996656
0.996107
0.995606
0.995125
0.994639
0.994131
0.993645
0.993153
0.992725
0.991971
0.999965
0.999973
0.999965
0.99987
0.999605
0.999225
0.998786
0.998337
0.99784
0.99726
0.996643
0.996026
0.99538
0.994709
0.994014
0.993292
0.99261
0.991963
0.991461
0.990541
0.999956
0.999968
0.999965
0.999891
0.999649
0.999258
0.998801
0.998327
0.997809
0.997238
0.996618
0.995933
0.995162
0.994285
0.993348
0.992382
0.991462
0.990632
0.990013
0.988851
0.999944
0.999961
0.999962
0.999908
0.999699
0.999309
0.998828
0.99832
0.997776
0.997202
0.996565
0.995821
0.994959
0.993921
0.992764
0.991531
0.990346
0.989277
0.988428
0.986822
0.999927
0.99995
0.999956
0.999915
0.999746
0.999381
0.998878
0.998329
0.997734
0.997134
0.99645
0.995657
0.994725
0.99358
0.992277
0.990832
0.989377
0.987945
0.986659
0.984292
0.999907
0.999938
0.999947
0.999916
0.999785
0.999456
0.998957
0.998368
0.997735
0.997059
0.996312
0.995471
0.994481
0.993292
0.991936
0.990371
0.988668
0.986783
0.984936
0.981694
0.999853
0.999902
0.999921
0.999905
0.999804
0.999541
0.999085
0.998475
0.997767
0.996985
0.996121
0.99515
0.994024
0.992729
0.99125
0.989482
0.987374
0.984766
0.982098
0.977294
0.999971
0.999987
0.999991
0.999994
0.999996
0.999996
0.999996
0.999996
0.999996
0.999996
0.999995
0.999994
0.999992
0.99999
0.999987
0.999983
0.999977
0.999967
0.999957
0.999925
0.999987
0.999996
0.999998
0.999999
0.999999
0.999999
0.999999
0.999999
0.999999
0.999998
0.999997
0.999995
0.999994
0.999992
0.99999
0.999987
0.999983
0.999977
0.99997
0.999952
0.999991
0.999998
0.999999
1
1
1
1
1
0.999999
0.999984
0.999964
0.999953
0.999954
0.999957
0.999963
0.999968
0.999972
0.999972
0.999971
0.999959
0.999994
0.999999
1
1
1
1
1
1
0.999996
0.999783
0.999715
0.999703
0.999712
0.999734
0.99977
0.999813
0.999854
0.999886
0.999908
0.999912
0.999996
0.999999
1
1
0.999639
0.999174
0.999174
0.999181
0.999199
0.999232
0.999283
0.999355
0.999447
0.999548
0.999634
0.999717
0.999996
0.999999
1
1
0.999101
0.99868
0.998659
0.998638
0.998628
0.998631
0.998649
0.998689
0.998762
0.998885
0.999026
0.99922
0.999997
0.999999
1
1
0.998556
0.997995
0.997985
0.997971
0.997957
0.997947
0.997948
0.997957
0.997987
0.998054
0.998175
0.998419
0.999997
0.999999
1
1
0.997874
0.99726
0.997273
0.99727
0.997264
0.997257
0.997247
0.997228
0.997207
0.997214
0.997259
0.997432
0.999997
0.999999
1
0.999997
0.999652
0.999168
0.998675
0.998061
0.997027
0.99661
0.996567
0.99659
0.996611
0.996599
0.996554
0.996487
0.996426
0.996363
0.996337
0.996388
0.999997
0.999999
0.999985
0.99981
0.999281
0.99884
0.99823
0.99758
0.996844
0.996366
0.996217
0.996122
0.996003
0.995888
0.995801
0.995733
0.99566
0.99555
0.995424
0.995309
0.999996
0.999997
0.999967
0.999746
0.999285
0.998831
0.998234
0.997604
0.996859
0.99634
0.996005
0.995648
0.995335
0.995193
0.995117
0.995017
0.994877
0.994675
0.994464
0.994191
0.999995
0.999996
0.999959
0.999744
0.999298
0.998826
0.998235
0.997616
0.996896
0.996308
0.995726
0.995138
0.994828
0.994687
0.994516
0.994271
0.994004
0.993727
0.993472
0.993033
0.999994
0.999995
0.99996
0.999753
0.999321
0.998829
0.998236
0.997625
0.996962
0.996261
0.995485
0.994891
0.994549
0.994235
0.993865
0.993452
0.99308
0.992737
0.992409
0.991757
0.999992
0.999994
0.999964
0.999775
0.999354
0.998837
0.998238
0.997628
0.996968
0.996213
0.995429
0.994803
0.994267
0.993708
0.993136
0.992572
0.992086
0.991613
0.991161
0.990289
0.999989
0.999993
0.999969
0.999807
0.999401
0.998859
0.998246
0.997625
0.996952
0.996182
0.995413
0.99469
0.993928
0.993133
0.992391
0.991677
0.99101
0.990332
0.989739
0.988658
0.999985
0.99999
0.999974
0.999844
0.999463
0.998897
0.998261
0.997615
0.996915
0.996153
0.995371
0.99452
0.993569
0.992575
0.991645
0.990711
0.989775
0.98884
0.988098
0.986799
0.99998
0.999986
0.999977
0.999879
0.99954
0.998962
0.998292
0.997603
0.996873
0.996111
0.995286
0.994329
0.993277
0.992145
0.990981
0.989731
0.988467
0.987264
0.986336
0.984677
0.999971
0.999981
0.999978
0.999904
0.999622
0.999065
0.998353
0.99761
0.996819
0.996027
0.995133
0.994115
0.993013
0.991762
0.990366
0.988797
0.987215
0.985725
0.984461
0.982123
0.999961
0.999975
0.999976
0.999922
0.999691
0.999178
0.998454
0.99765
0.996804
0.995922
0.994954
0.993907
0.992755
0.991407
0.989868
0.988117
0.986301
0.984437
0.982679
0.979482
0.999931
0.999959
0.999967
0.999926
0.999759
0.999335
0.99865
0.997793
0.996847
0.995829
0.99473
0.993553
0.992232
0.990702
0.988971
0.987003
0.984812
0.982243
0.979634
0.974811
0.999992
0.999998
0.999999
0.999999
1
1
1
1
1
0.999999
0.999999
0.999999
0.999998
0.999997
0.999996
0.999994
0.999991
0.999986
0.99998
0.999958
0.999998
1
1
1
1
1
1
1
1
0.999999
0.999998
0.999997
0.999997
0.999997
0.999997
0.999996
0.999994
0.999991
0.999987
0.999976
0.999999
1
1
1
1
1
1
1
0.999999
0.999974
0.999942
0.999929
0.999931
0.99994
0.999952
0.999964
0.999973
0.999979
0.999981
0.999978
0.999999
1
1
1
1
1
1
1
0.999988
0.999669
0.999555
0.999549
0.999565
0.999604
0.999663
0.99973
0.999796
0.99985
0.999886
0.99991
1
1
1
1
0.99937
0.998784
0.998792
0.998813
0.998848
0.998901
0.998977
0.999081
0.999212
0.99936
0.999487
0.999622
1
1
1
1
0.998567
0.998119
0.998107
0.998095
0.998096
0.998105
0.998132
0.998186
0.99828
0.998439
0.99863
0.998912
1
1
1
1
0.997828
0.997247
0.997242
0.997233
0.997225
0.997224
0.997229
0.997245
0.997284
0.997365
0.997506
0.997817
1
1
1
1
0.99695
0.996332
0.996344
0.996353
0.99635
0.996347
0.996343
0.996334
0.99632
0.996326
0.996368
0.996557
1
1
0.999999
0.999992
0.999494
0.998832
0.998182
0.997399
0.996093
0.995671
0.995562
0.995569
0.995576
0.995562
0.995516
0.995451
0.995388
0.995327
0.995266
0.995304
1
1
0.999981
0.99975
0.999057
0.998501
0.997755
0.996978
0.996033
0.995409
0.99516
0.995027
0.994895
0.994762
0.994655
0.994572
0.994488
0.994373
0.99423
0.994061
0.999999
0.999999
0.999955
0.999658
0.999059
0.998487
0.997754
0.997004
0.99608
0.995384
0.994938
0.994541
0.994196
0.993988
0.993873
0.993749
0.99359
0.993374
0.993145
0.992804
0.999999
0.999998
0.999944
0.999649
0.99907
0.998472
0.997749
0.997016
0.99613
0.995371
0.994698
0.99406
0.993645
0.993416
0.993197
0.992919
0.992616
0.992299
0.992021
0.991528
0.999998
0.999998
0.999946
0.99966
0.999093
0.99847
0.997742
0.997012
0.99619
0.995344
0.994478
0.993761
0.99331
0.992929
0.992505
0.992029
0.991586
0.991191
0.99085
0.990165
0.999998
0.999998
0.999952
0.999688
0.999129
0.998475
0.997738
0.997004
0.996194
0.995297
0.994362
0.993595
0.992984
0.992382
0.991754
0.991096
0.990523
0.990003
0.98954
0.988624
0.999997
0.999997
0.999961
0.999731
0.999184
0.998492
0.99774
0.996992
0.996178
0.995253
0.994307
0.993437
0.992599
0.991761
0.990955
0.990153
0.989422
0.988704
0.988072
0.986899
0.999995
0.999997
0.99997
0.999781
0.999261
0.998531
0.997748
0.996974
0.99614
0.995209
0.994241
0.993237
0.992173
0.991095
0.990101
0.989123
0.988178
0.98721
0.986384
0.984933
0.999992
0.999995
0.999978
0.999833
0.99936
0.998602
0.997773
0.996946
0.996087
0.995152
0.994142
0.993021
0.991802
0.990541
0.989322
0.988079
0.986846
0.98559
0.984533
0.982715
0.999986
0.999992
0.999983
0.999876
0.999474
0.998723
0.997833
0.996944
0.996025
0.995062
0.99399
0.992783
0.991478
0.990077
0.988609
0.987036
0.985452
0.983878
0.982511
0.980112
0.99998
0.999988
0.999984
0.999905
0.999573
0.998868
0.997938
0.996969
0.99596
0.994942
0.993811
0.992564
0.991208
0.989701
0.988043
0.986205
0.98431
0.982368
0.980588
0.977466
0.999959
0.999978
0.999982
0.999925
0.999684
0.999092
0.998177
0.997107
0.995984
0.994803
0.993535
0.992174
0.990678
0.988982
0.98707
0.984913
0.982576
0.97996
0.977404
0.972719
0.999995
0.999999
0.999999
1
1
1
1
1
1
1
0.999999
0.999999
0.999999
0.999998
0.999997
0.999995
0.999993
0.999988
0.999983
0.999962
0.999999
1
1
1
1
1
1
1
1
0.999999
0.999998
0.999997
0.999997
0.999997
0.999997
0.999997
0.999995
0.999992
0.999989
0.999979
0.999999
1
1
1
1
1
1
1
0.999999
0.999969
0.99993
0.999915
0.999918
0.99993
0.999946
0.99996
0.999971
0.999978
0.999981
0.99998
1
1
1
1
1
1
1
1
0.999988
0.999609
0.999473
0.999464
0.999483
0.999532
0.999603
0.999682
0.99976
0.999823
0.999868
0.999901
1
1
1
1
0.999197
0.998555
0.998563
0.998588
0.998631
0.998695
0.998787
0.99891
0.999065
0.999239
0.999393
0.999558
1
1
1
1
0.998176
0.997729
0.99772
0.99772
0.997727
0.997744
0.99778
0.997847
0.99796
0.998142
0.998368
0.99871
1
1
1
1
0.997243
0.996658
0.996666
0.996672
0.996679
0.99669
0.996708
0.996737
0.99679
0.996889
0.997047
0.99741
1
1
1
1
0.99617
0.995556
0.995581
0.995606
0.995624
0.995639
0.995656
0.995663
0.995668
0.995682
0.99573
0.995943
1
1
0.999999
0.99999
0.999401
0.998615
0.997866
0.996987
0.995264
0.994816
0.994722
0.99472
0.994718
0.994707
0.994683
0.994644
0.994597
0.994542
0.994478
0.994519
1
1
0.999975
0.999686
0.99885
0.998203
0.997361
0.996508
0.99536
0.994623
0.994279
0.994104
0.993975
0.993854
0.993744
0.993648
0.993553
0.993444
0.993313
0.993146
0.999999
0.999998
0.999942
0.999576
0.998853
0.998188
0.997362
0.99654
0.995481
0.994635
0.994064
0.993663
0.993346
0.993082
0.992876
0.992702
0.992532
0.992337
0.99213
0.991777
0.999999
0.999997
0.999928
0.999563
0.998866
0.998174
0.99736
0.996557
0.995569
0.994657
0.993911
0.993313
0.992848
0.992463
0.992129
0.991816
0.991514
0.991192
0.990903
0.990383
0.999999
0.999997
0.999931
0.999577
0.998895
0.998175
0.997358
0.996559
0.995626
0.994673
0.993786
0.99304
0.992458
0.991953
0.991463
0.990952
0.990464
0.989996
0.989618
0.988925
0.999998
0.999997
0.99994
0.999613
0.99894
0.998182
0.997358
0.996555
0.995656
0.994668
0.993677
0.992803
0.992092
0.991453
0.990796
0.990064
0.98937
0.988737
0.988244
0.987344
0.999997
0.999997
0.999952
0.999667
0.999008
0.998205
0.997362
0.996547
0.99565
0.994646
0.993594
0.992607
0.991725
0.990895
0.99004
0.989108
0.988234
0.987423
0.986775
0.9856
0.999995
0.999997
0.999964
0.99973
0.999103
0.998253
0.997375
0.996533
0.995627
0.99461
0.993523
0.992428
0.991334
0.990239
0.98915
0.988042
0.987013
0.986006
0.985143
0.98361
0.999993
0.999995
0.999974
0.999794
0.999224
0.998339
0.997407
0.996509
0.995585
0.994556
0.993439
0.99225
0.990975
0.989638
0.988315
0.98701
0.985773
0.984495
0.983339
0.981345
0.999988
0.999993
0.99998
0.999848
0.999363
0.998479
0.997477
0.996508
0.995529
0.994478
0.99332
0.992042
0.990633
0.989123
0.987581
0.986015
0.984457
0.982805
0.981276
0.97869
0.999983
0.999989
0.999984
0.999886
0.999487
0.998652
0.997592
0.996532
0.995453
0.99437
0.993173
0.991839
0.990365
0.988759
0.987048
0.985209
0.983283
0.981207
0.979282
0.976057
0.999962
0.99998
0.999983
0.999916
0.999625
0.998924
0.997865
0.996675
0.995469
0.994225
0.992895
0.991449
0.989863
0.988104
0.986141
0.983917
0.981466
0.978715
0.97609
0.971392
0.999995
0.999999
0.999999
1
1
1
1
1
1
1
0.999999
0.999999
0.999999
0.999998
0.999997
0.999995
0.999993
0.999988
0.999982
0.999962
0.999999
1
1
1
1
1
1
1
1
0.999999
0.999998
0.999997
0.999997
0.999997
0.999997
0.999997
0.999995
0.999992
0.999989
0.999978
0.999999
1
1
1
1
1
1
1
0.999999
0.999969
0.999929
0.999915
0.999919
0.999931
0.999946
0.99996
0.999971
0.999978
0.999981
0.99998
1
1
1
1
1
1
1
1
0.999986
0.999599
0.999462
0.999455
0.999476
0.999526
0.999599
0.999679
0.999757
0.999821
0.999866
0.999899
1
1
1
1
0.999159
0.998512
0.998521
0.998547
0.998592
0.998658
0.998753
0.998881
0.99904
0.999219
0.999377
0.999545
1
1
1
1
0.998017
0.997644
0.997634
0.997634
0.99764
0.997659
0.997697
0.997768
0.997887
0.998077
0.998312
0.998667
1
1
1
1
0.996952
0.99651
0.996518
0.996524
0.996533
0.996546
0.996567
0.9966
0.996658
0.996764
0.996931
0.997309
1
1
1
1
0.995734
0.995334
0.995363
0.995388
0.995409
0.995428
0.995448
0.995462
0.995471
0.99549
0.995544
0.995771
1
1
0.999999
0.999991
0.999284
0.998327
0.997493
0.996538
0.994768
0.994505
0.994459
0.994456
0.994449
0.994434
0.994411
0.994378
0.994337
0.994285
0.994226
0.994274
1
0.999999
0.999972
0.999647
0.99872
0.998026
0.997135
0.996249
0.995039
0.994307
0.993973
0.993796
0.993664
0.993543
0.99343
0.99333
0.993233
0.993125
0.992997
0.992838
0.999999
0.999998
0.999935
0.999524
0.99873
0.998024
0.997153
0.996301
0.99519
0.994327
0.993743
0.993346
0.993037
0.99276
0.992527
0.992335
0.992158
0.991965
0.991763
0.991414
0.999999
0.999997
0.999919
0.999515
0.998755
0.998026
0.997167
0.996334
0.995306
0.994361
0.993604
0.993022
0.992551
0.99213
0.991755
0.991419
0.991107
0.990782
0.990491
0.989967
0.999999
0.999997
0.999923
0.999532
0.998795
0.998034
0.997178
0.996352
0.995379
0.994396
0.993511
0.992769
0.992164
0.991621
0.991091
0.990548
0.990038
0.989546
0.989156
0.98846
0.999998
0.999997
0.999933
0.999575
0.998852
0.99805
0.99719
0.996365
0.995436
0.994427
0.993429
0.992544
0.991806
0.991134
0.99044
0.989669
0.988933
0.988255
0.987744
0.986841
0.999997
0.999997
0.999948
0.999639
0.998932
0.998083
0.997205
0.996365
0.995444
0.994422
0.993361
0.992354
0.991449
0.990596
0.989708
0.988728
0.987793
0.986924
0.98625
0.985069
0.999995
0.999997
0.999961
0.99971
0.999039
0.998142
0.997227
0.99636
0.995433
0.994402
0.9933
0.992186
0.991078
0.989971
0.988851
0.987685
0.986587
0.985522
0.984627
0.983063
0.999993
0.999995
0.999972
0.999779
0.999174
0.99824
0.99727
0.996351
0.995403
0.99436
0.993224
0.992023
0.990743
0.989401
0.988045
0.986684
0.985388
0.984059
0.982854
0.980786
0.999988
0.999993
0.999979
0.999838
0.999325
0.998396
0.997351
0.996355
0.995357
0.994291
0.993117
0.991832
0.990421
0.988903
0.987329
0.985723
0.984127
0.982421
0.980823
0.978114
0.999983
0.999989
0.999983
0.999879
0.999459
0.998583
0.997479
0.996387
0.995293
0.994192
0.992982
0.991643
0.990164
0.988545
0.986809
0.984949
0.982996
0.980861
0.97885
0.975449
0.999963
0.99998
0.999982
0.999911
0.999604
0.998871
0.997772
0.996545
0.995316
0.994057
0.992718
0.991265
0.989669
0.987896
0.985921
0.983689
0.981212
0.978399
0.975675
0.970745
0.999992
0.999998
0.999999
0.999999
1
1
1
1
1
0.999999
0.999999
0.999999
0.999998
0.999997
0.999996
0.999994
0.999991
0.999986
0.999979
0.999957
0.999998
1
1
1
1
1
1
1
1
0.999999
0.999998
0.999997
0.999997
0.999997
0.999997
0.999996
0.999994
0.999991
0.999987
0.999975
0.999999
1
1
1
1
1
1
1
0.999999
0.999972
0.999938
0.999927
0.99993
0.99994
0.999953
0.999964
0.999973
0.999979
0.999981
0.999978
0.999999
1
1
1
1
1
1
1
0.999987
0.999634
0.999513
0.99951
0.999529
0.999575
0.999641
0.999713
0.999783
0.999841
0.99988
0.999904
1
1
1
1
0.999191
0.998636
0.998644
0.998669
0.998711
0.998774
0.998863
0.998982
0.999131
0.999297
0.999439
0.999586
1
1
1
1
0.998077
0.997844
0.997829
0.997823
0.997827
0.997842
0.997878
0.997945
0.998059
0.998244
0.998465
0.998785
1
1
1
1
0.997055
0.996804
0.996803
0.996799
0.996799
0.996804
0.996816
0.996842
0.996895
0.996997
0.997164
0.997526
1
1
1
1
0.995879
0.995709
0.995731
0.995743
0.995751
0.995759
0.995761
0.995757
0.995757
0.99577
0.995826
0.996058
1
1
0.999999
0.999988
0.999299
0.998382
0.997544
0.99658
0.995007
0.994791
0.994777
0.994799
0.994813
0.994802
0.994764
0.994707
0.994652
0.994591
0.99454
0.994597
0.999999
1
0.999976
0.999687
0.998851
0.998191
0.997322
0.996446
0.995321
0.994617
0.994328
0.994164
0.994018
0.993881
0.993769
0.993678
0.993588
0.993469
0.993325
0.993169
0.999999
0.999998
0.999945
0.99958
0.998856
0.998177
0.997331
0.996489
0.995437
0.994639
0.994094
0.993654
0.993299
0.993045
0.992874
0.992716
0.992538
0.992319
0.992089
0.991742
0.999999
0.999997
0.999932
0.999572
0.998873
0.998173
0.997338
0.996515
0.995539
0.994662
0.993888
0.993229
0.992758
0.992422
0.992119
0.99179
0.991456
0.991116
0.99082
0.990304
0.999998
0.999997
0.999934
0.999587
0.998905
0.998177
0.997344
0.996531
0.995611
0.994668
0.993742
0.992975
0.992419
0.991931
0.991411
0.990854
0.990344
0.98988
0.989501
0.988789
0.999998
0.999997
0.999943
0.999623
0.998954
0.99819
0.997353
0.996544
0.995653
0.994665
0.993674
0.992824
0.992111
0.991415
0.990682
0.989912
0.98922
0.988587
0.988068
0.987116
0.999996
0.999997
0.999954
0.999678
0.999026
0.998219
0.997367
0.996543
0.995649
0.994654
0.993639
0.992681
0.991753
0.990833
0.989913
0.988967
0.988078
0.98721
0.986499
0.985265
0.999994
0.999996
0.999965
0.999741
0.999124
0.998274
0.997388
0.996537
0.99563
0.994632
0.99359
0.992506
0.991366
0.990217
0.989101
0.987956
0.986835
0.985703
0.984765
0.983186
0.999991
0.999994
0.999974
0.999804
0.999249
0.998368
0.997431
0.996528
0.995596
0.994592
0.993507
0.992318
0.991035
0.989705
0.988362
0.986958
0.985562
0.984137
0.982914
0.980866
0.999986
0.999991
0.99998
0.999856
0.99939
0.998521
0.997514
0.996536
0.995548
0.994517
0.993376
0.992109
0.990739
0.989256
0.987664
0.98596
0.984247
0.98248
0.980888
0.978164
0.99998
0.999988
0.999982
0.999891
0.999509
0.998699
0.997645
0.996575
0.995499
0.994411
0.993218
0.991912
0.990486
0.988888
0.987116
0.985178
0.983158
0.981
0.978963
0.975444
0.999959
0.999977
0.99998
0.999915
0.999638
0.998963
0.997932
0.996748
0.995537
0.994286
0.992957
0.991534
0.989963
0.988182
0.986185
0.983942
0.981464
0.978617
0.975788
0.97064
0.999972
0.999988
0.999992
0.999995
0.999996
0.999996
0.999996
0.999997
0.999997
0.999996
0.999995
0.999994
0.999993
0.999991
0.999987
0.999983
0.999977
0.999968
0.999957
0.999924
0.999987
0.999996
0.999998
0.999999
0.999999
0.999999
0.999999
0.999999
0.999999
0.999998
0.999997
0.999995
0.999994
0.999993
0.999991
0.999988
0.999983
0.999977
0.99997
0.999951
0.999991
0.999998
0.999999
1
1
1
1
1
0.999999
0.999981
0.999958
0.999949
0.999951
0.999956
0.999962
0.999968
0.999972
0.999972
0.99997
0.999958
0.999994
0.999999
1
1
1
1
1
1
0.99999
0.999732
0.99965
0.99965
0.999665
0.999697
0.999742
0.999793
0.999841
0.999877
0.9999
0.999906
0.999996
0.999999
1
1
0.999352
0.998966
0.998972
0.998991
0.999025
0.999074
0.999144
0.999238
0.999354
0.999478
0.99958
0.999677
0.999996
0.999999
1
1
0.998441
0.99833
0.998313
0.998301
0.998303
0.998314
0.998345
0.998403
0.998502
0.998661
0.998839
0.999076
0.999996
0.999999
1
1
0.997579
0.997471
0.997464
0.997454
0.997451
0.997452
0.99746
0.997482
0.99753
0.997625
0.997782
0.998088
0.999997
0.999999
1
1
0.996571
0.996546
0.99656
0.996562
0.996565
0.996571
0.996568
0.996554
0.99655
0.996564
0.99663
0.996861
0.999997
0.999999
0.999999
0.999994
0.999449
0.998684
0.997944
0.997067
0.995876
0.995738
0.995677
0.995708
0.995742
0.995731
0.995683
0.995613
0.995558
0.995491
0.99549
0.995567
0.999997
0.999998
0.999981
0.999757
0.999106
0.998577
0.997853
0.997098
0.996164
0.995538
0.995318
0.99517
0.995002
0.994852
0.99475
0.99468
0.994606
0.994488
0.994345
0.994245
0.999996
0.999997
0.999959
0.99968
0.999111
0.998564
0.997855
0.997125
0.996215
0.995569
0.995115
0.994638
0.994229
0.994032
0.993936
0.99382
0.993656
0.993424
0.993181
0.992898
0.999995
0.999996
0.999949
0.999678
0.999126
0.998556
0.997855
0.997137
0.996295
0.995575
0.994825
0.994084
0.993677
0.99348
0.993258
0.99295
0.992621
0.992294
0.992005
0.991534
0.999994
0.999995
0.99995
0.99969
0.999154
0.998559
0.997856
0.997146
0.996384
0.995551
0.994616
0.993879
0.993426
0.993018
0.992544
0.992018
0.991554
0.99115
0.99078
0.990062
0.999992
0.999994
0.999955
0.999718
0.999194
0.998568
0.997859
0.997151
0.996391
0.995516
0.994601
0.99384
0.993174
0.992476
0.991754
0.991045
0.990453
0.989896
0.989374
0.988388
0.999989
0.999992
0.999963
0.999759
0.999252
0.998593
0.997868
0.997148
0.996374
0.99549
0.994603
0.993756
0.992844
0.991881
0.990966
0.990098
0.989299
0.988488
0.987778
0.986537
0.999985
0.999989
0.999969
0.999805
0.99933
0.99864
0.997886
0.997137
0.996336
0.995465
0.994574
0.993593
0.992485
0.991319
0.990217
0.989112
0.987997
0.986867
0.985964
0.984462
0.999979
0.999985
0.999974
0.99985
0.999427
0.99872
0.997924
0.997127
0.996294
0.995425
0.994489
0.993398
0.992193
0.990901
0.989563
0.988113
0.986626
0.985183
0.984062
0.982153
0.999971
0.99998
0.999974
0.999883
0.999533
0.99885
0.998001
0.997138
0.996235
0.995339
0.994328
0.993177
0.991929
0.990517
0.988925
0.987135
0.985315
0.983568
0.982087
0.979439
0.999961
0.999974
0.999974
0.999906
0.99962
0.998992
0.998125
0.997188
0.996224
0.995226
0.994139
0.992963
0.991666
0.990145
0.988399
0.986428
0.984377
0.982248
0.980239
0.976671
0.99993
0.999957
0.999964
0.999914
0.999707
0.99919
0.998368
0.997362
0.996278
0.995127
0.993897
0.992584
0.991107
0.989399
0.987473
0.985299
0.982868
0.980001
0.977088
0.971833
0.999918
0.999954
0.999963
0.999971
0.999975
0.999976
0.999977
0.999978
0.999979
0.999978
0.999977
0.999974
0.999971
0.999966
0.999959
0.99995
0.999937
0.999918
0.999897
0.999839
0.999951
0.999973
0.99998
0.999984
0.999986
0.999986
0.999987
0.999987
0.999987
0.999985
0.999982
0.999979
0.999976
0.999973
0.999967
0.999961
0.999953
0.999941
0.999927
0.999887
0.99996
0.999979
0.999986
0.999992
0.999992
0.999992
0.999993
0.999993
0.999993
0.999981
0.999968
0.99996
0.999957
0.999957
0.999958
0.999957
0.999954
0.999946
0.999936
0.999905
0.999968
0.999984
0.999991
1
1
1
1
1
0.999997
0.999841
0.999796
0.999791
0.999798
0.999815
0.999838
0.999864
0.999885
0.999895
0.999897
0.999885
0.999973
0.999986
0.999992
1
0.999573
0.999346
0.999354
0.999371
0.999395
0.999426
0.99947
0.999528
0.999598
0.999664
0.99972
0.999752
0.999975
0.999986
0.999992
1
0.998914
0.998887
0.998886
0.998887
0.99889
0.9989
0.998924
0.998968
0.999039
0.999145
0.999257
0.999387
0.999976
0.999987
0.999993
1
0.998249
0.998243
0.998261
0.998268
0.998272
0.998277
0.998286
0.998306
0.998344
0.998418
0.998536
0.998738
0.999977
0.999987
0.999993
1
0.997434
0.997517
0.997562
0.997583
0.997604
0.997625
0.997624
0.997614
0.997611
0.997625
0.997686
0.997862
0.999979
0.999988
0.999993
0.999995
0.999579
0.999048
0.998509
0.997847
0.996891
0.996835
0.996826
0.996879
0.996947
0.996947
0.99692
0.996871
0.996828
0.996782
0.996792
0.996868
0.999979
0.999986
0.99998
0.999833
0.9994
0.999035
0.998521
0.997972
0.997272
0.996792
0.996606
0.996481
0.996348
0.996235
0.996162
0.996111
0.99605
0.995956
0.995853
0.995801
0.999978
0.999983
0.999966
0.99979
0.999406
0.999032
0.998532
0.998001
0.997324
0.996831
0.996478
0.99608
0.995745
0.995577
0.995478
0.995382
0.995262
0.995079
0.994886
0.99467
0.999976
0.999981
0.999957
0.999787
0.99942
0.999027
0.998533
0.998008
0.997401
0.996848
0.996251
0.995653
0.995309
0.995106
0.994898
0.994663
0.994426
0.994155
0.993883
0.993464
0.999973
0.999979
0.999955
0.999794
0.99944
0.999028
0.998531
0.99801
0.997459
0.996829
0.996083
0.995461
0.995037
0.994673
0.994303
0.993912
0.993542
0.993159
0.99278
0.992128
0.999969
0.999976
0.999956
0.99981
0.999467
0.999034
0.998529
0.998008
0.997452
0.996787
0.996043
0.995382
0.994778
0.994207
0.993638
0.993043
0.9925
0.991967
0.991489
0.990638
0.999963
0.999971
0.999959
0.999835
0.999505
0.999051
0.998531
0.997999
0.997421
0.996742
0.996017
0.99529
0.994521
0.993721
0.992901
0.992072
0.991318
0.990614
0.990048
0.989002
0.999955
0.999965
0.999959
0.999862
0.999556
0.999084
0.99854
0.997979
0.99737
0.996698
0.995975
0.995173
0.994268
0.993235
0.992147
0.991048
0.990015
0.989088
0.988388
0.987084
0.999943
0.999958
0.999957
0.999885
0.999618
0.99914
0.998563
0.997956
0.997316
0.996641
0.995897
0.995029
0.994025
0.992824
0.991496
0.990091
0.988738
0.987532
0.986586
0.984819
0.999925
0.999947
0.999951
0.999897
0.999678
0.999225
0.998617
0.997962
0.99725
0.996545
0.995746
0.994823
0.993744
0.992426
0.990935
0.989288
0.987633
0.986035
0.984617
0.98204
0.999905
0.999934
0.999943
0.999901
0.999728
0.999316
0.998707
0.998002
0.997244
0.996445
0.99557
0.994591
0.993448
0.992081
0.99053
0.988755
0.986838
0.984749
0.982719
0.979219
0.99985
0.999898
0.999915
0.999892
0.99976
0.999426
0.998864
0.998124
0.997277
0.996347
0.995329
0.994197
0.992897
0.991416
0.98974
0.987755
0.985404
0.982525
0.979601
0.974488
0.999874
0.999923
0.999935
0.999943
0.999948
0.99995
0.999952
0.999953
0.999955
0.999955
0.999954
0.999951
0.999947
0.999941
0.999932
0.999919
0.999902
0.999876
0.999846
0.999765
0.999918
0.999944
0.999949