/*--------------------------------*- C++ -*----------------------------------*\
  =========                 |
  \\      /  F ield         | OpenFOAM: The Open Source CFD Toolbox
   \\    /   O peration     | Website:  https://openfoam.org
    \\  /    A nd           | Version:  9
     \\/     M anipulation  |
\*---------------------------------------------------------------------------*/
FoamFile
{
    format      ascii;
    class       volScalarField;
    location    "0.0055";
    object      p;
}
// * * * * * * * * * * * * * * * * * * * * * * * * * * * * * * * * * * * * * //

dimensions      [1 -1 -2 0 0 0 0];

internalField   nonuniform List<scalar> 
9720
(
4.79994e+06
4.76014e+06
4.86101e+06
4.02211e+06
3.561e+06
3.35319e+06
3.12503e+06
2.66832e+06
2.12465e+06
1.70804e+06
1.38987e+06
1.19664e+06
1.12974e+06
1.10695e+06
1.11182e+06
1.13565e+06
1.17358e+06
1.20926e+06
1.23196e+06
1.2344e+06
4.75723e+06
4.69071e+06
4.8302e+06
3.19581e+06
2.97998e+06
3.20406e+06
3.10102e+06
2.54112e+06
1.70801e+06
1.13713e+06
832568
743356
774592
838012
906696
963253
1.01852e+06
1.06143e+06
1.08357e+06
1.08204e+06
4.82246e+06
4.85989e+06
3.29195e+06
2.28002e+06
2.70204e+06
3.22468e+06
3.20737e+06
2.52572e+06
1.39585e+06
779148
597137
613715
667194
777649
935299
1.04868e+06
1.11616e+06
1.16024e+06
1.17449e+06
1.15947e+06
4.01021e+06
3.17982e+06
2.27449e+06
1.79705e+06
2.15735e+06
3.28151e+06
3.45421e+06
2.9207e+06
1.36966e+06
373494
404027
466371
548776
660734
832897
1.03204e+06
1.21915e+06
1.304e+06
1.29712e+06
1.25252e+06
3.51593e+06
2.89468e+06
2.59438e+06
2.10713e+06
293322
392181
430151
473332
522532
587144
689271
877874
1.13904e+06
1.3492e+06
1.40151e+06
1.37537e+06
3.26566e+06
3.09089e+06
3.10431e+06
3.17114e+06
532515
551245
548727
551410
561502
583716
626838
710209
876070
1.1293e+06
1.33734e+06
1.37659e+06
3.03404e+06
2.98732e+06
3.08638e+06
3.34466e+06
619423
569617
561165
550976
545710
549794
562846
596986
676202
833343
1.07136e+06
1.27423e+06
2.59037e+06
2.44496e+06
2.41709e+06
2.8101e+06
508956
378648
397437
411164
424854
438017
455003
482013
529211
618475
778110
1.06417e+06
2.05858e+06
1.63333e+06
1.31684e+06
1.23018e+06
269473
521994
593280
480590
65715.6
104156
164468
218715
260234
293677
322742
350659
386626
441528
531617
769357
1.65448e+06
1.09182e+06
747921
366962
385271
535492
543317
365919
111943
47981.1
62082.7
95906.8
137176
179084
219806
254559
285496
327416
385328
561855
1.34372e+06
799960
587915
401773
425638
530625
535564
387107
173507
65701.5
44195.4
49676.8
70839.9
106260
145246
179825
211050
244282
287715
422939
1.16145e+06
724221
604644
466737
470581
534281
526501
399287
227434
104300
51162.4
51287.3
57176.8
71821.2
95060.7
123122
154195
187744
221414
322107
1.10443e+06
758259
654373
548108
520385
545923
527494
413104
267411
148513
76206.1
58423.8
59118.6
61142.7
69657
88985.1
118453
152242
178606
250156
1.08855e+06
825491
760708
656095
583553
568593
533996
427557
299503
191272
115881
76554
62215
61639.6
66017.9
77508.9
99253.9
125983
145639
198057
1.09339e+06
898177
917089
819637
680808
612264
550463
446284
327828
231594
157020
102826
73282.1
66845.3
69491.1
78050.9
89169.2
105396
122168
167191
1.11686e+06
953816
1.03676e+06
1.01151e+06
857258
695042
588343
475637
355847
265703
191759
132438
95270.1
80821.8
78996.5
81724.2
88234.5
98519.2
112342
151552
1.15338e+06
1.00715e+06
1.10322e+06
1.19258e+06
1.10708e+06
857464
669453
525065
392680
296797
223203
164769
126908
105644
93484.8
89691.5
91896.5
100209
113567
147220
1.18599e+06
1.04663e+06
1.14396e+06
1.27725e+06
1.31142e+06
1.10253e+06
826270
616311
449387
339549
256902
199614
162527
134842
112605
102171
102655
108225
118541
145611
1.2045e+06
1.0644e+06
1.15421e+06
1.27222e+06
1.37166e+06
1.30444e+06
1.0532e+06
774677
541152
398887
301495
234838
190813
156120
130550
117394
117691
120890
127800
147789
1.20518e+06
1.06138e+06
1.13826e+06
1.23098e+06
1.34882e+06
1.34673e+06
1.2471e+06
1.04889e+06
773331
574423
437832
337984
265690
211679
177946
160032
154876
152014
152556
160726
4.60323e+06
4.56758e+06
4.60489e+06
3.73562e+06
3.29586e+06
3.14863e+06
2.95242e+06
2.52669e+06
2.00571e+06
1.60577e+06
1.30028e+06
1.10897e+06
1.04144e+06
1.02529e+06
1.02829e+06
1.05027e+06
1.08802e+06
1.12607e+06
1.15233e+06
1.15501e+06
4.57876e+06
4.52462e+06
4.48958e+06
2.9236e+06
2.77843e+06
3.03094e+06
2.95809e+06
2.42897e+06
1.62177e+06
1.06958e+06
779049
680651
707664
765881
832598
886206
941776
987878
1.01593e+06
1.0161e+06
4.59261e+06
4.60061e+06
2.88403e+06
2.06568e+06
2.58193e+06
3.11353e+06
3.07973e+06
2.4274e+06
1.32151e+06
724810
551698
566283
610263
703448
843523
961592
1.03363e+06
1.08468e+06
1.10582e+06
1.09535e+06
3.7633e+06
2.93153e+06
2.05589e+06
1.62947e+06
2.16271e+06
3.1452e+06
3.3115e+06
2.79827e+06
1.30891e+06
341282
368322
424853
498591
598326
748753
931313
1.10919e+06
1.21815e+06
1.22002e+06
1.18743e+06
3.27488e+06
2.70128e+06
2.44971e+06
1.94024e+06
277477
360012
390288
426634
470270
527806
616290
774715
1.01566e+06
1.2223e+06
1.31611e+06
1.30212e+06
3.06436e+06
2.91532e+06
2.98795e+06
3.03517e+06
489328
506792
497083
496971
502594
519223
554291
622129
759505
990266
1.2019e+06
1.2888e+06
2.86409e+06
2.84398e+06
2.96818e+06
3.20851e+06
565809
521130
508978
496844
487395
489467
499124
525456
586507
717133
926894
1.15294e+06
2.4456e+06
2.33745e+06
2.33508e+06
2.70292e+06
466335
345786
358779
367725
377605
388246
401706
423435
460745
531099
660980
930875
1.9358e+06
1.55204e+06
1.26111e+06
1.21132e+06
264581
483780
547168
440534
61074.7
93749.6
147206
194176
228659
256048
281703
306530
337029
382050
452701
657355
1.54766e+06
1.02201e+06
695391
338310
357018
496058
499887
333030
100591
42872.4
54956.1
84604.2
119849
154731
188882
219912
247096
282416
328754
476168
1.25137e+06
740197
533246
366075
388473
485447
489357
350023
154824
57538.5
36582.1
40863
59125
88414.9
120690
152911
181916
211083
246175
357407
1.07182e+06
655185
546651
421641
423921
485731
479521
359118
201240
90741.6
42333.7
41490.5
45816
57844.6
78789.8
105260
133586
161620
188323
271917
1.01736e+06
687408
588276
491473
465130
491703
474097
368656
235454
129251
63755.4
46612.9
47271.1
50322.3
58537
75435.6
100503
128177
150802
213363
1.00922e+06
754166
683235
584058
518599
507662
476964
378972
262998
166483
96988.1
61497.2
51035.7
50969.1
54144.4
62869.5
80017.1
104699
125262
172554
1.01284e+06
826435
827485
729721
601323
541590
487733
392610
288319
202123
132575
85874.5
61707.3
54960
56499.3
63155.2
73402.7
90313.6
106688
146154
1.03242e+06
877277
949536
913925
753521
607945
515245
415425
312622
232908
166181
114395
81177.2
66068.4
64152.2
67054.8
74176.4
85055.7
97207.8
130531
1.06562e+06
927488
1.01774e+06
1.08701e+06
990975
744946
577504
454393
342754
259375
195008
143907
108282
85954.3
76820.4
75795
78571.8
86520.5
97776.4
125657
1.09855e+06
968370
1.06295e+06
1.19289e+06
1.19549e+06
972686
710772
527798
388412
294549
223973
173227
137756
112679
96555.9
88510.7
88877.8
93343
100908
124390
1.11886e+06
990360
1.07836e+06
1.19372e+06
1.28814e+06
1.17767e+06
914625
660360
461254
341722
259772
201467
162596
135053
114501
102380
101214
102948
108174
127276
1.11963e+06
988697
1.06635e+06
1.16115e+06
1.27349e+06
1.26202e+06
1.13132e+06
922889
665061
490341
373302
288269
229120
185728
156507
138650
132077
129621
131309
141144
4.56263e+06
4.58866e+06
4.58792e+06
3.60267e+06
3.14396e+06
3.046e+06
2.87475e+06
2.46194e+06
1.95256e+06
1.55967e+06
1.26161e+06
1.06641e+06
995796
987359
995993
1.018e+06
1.05375e+06
1.09171e+06
1.1193e+06
1.12278e+06
4.60305e+06
4.61986e+06
4.23804e+06
2.75021e+06
2.66065e+06
2.94567e+06
2.8907e+06
2.37135e+06
1.58336e+06
1.03854e+06
762843
656391
679015
731335
799151
856137
912461
960319
992044
993733
4.52934e+06
4.41867e+06
2.54179e+06
1.92324e+06
2.4924e+06
3.03354e+06
3.00369e+06
2.36414e+06
1.28455e+06
699969
543102
560600
596187
671606
793534
919869
1.00192e+06
1.05714e+06
1.0823e+06
1.07436e+06
3.57909e+06
2.71729e+06
1.87534e+06
1.4943e+06
2.10243e+06
3.04299e+06
3.21495e+06
2.71441e+06
1.22615e+06
320436
348223
408578
482683
578523
719238
898176
1.06951e+06
1.19494e+06
1.20262e+06
1.17285e+06
3.09668e+06
2.56588e+06
2.36776e+06
1.87593e+06
250486
334892
359946
393236
438002
497737
582909
726521
958329
1.17539e+06
1.30004e+06
1.29119e+06
2.95476e+06
2.8333e+06
2.91598e+06
2.95239e+06
456548
474698
464732
464991
470615
485373
515656
573240
690558
913602
1.14763e+06
1.27574e+06
2.78974e+06
2.79235e+06
2.91158e+06
3.11523e+06
525728
485061
473417
463977
456770
458808
466953
487688
535461
644931
842022
1.10444e+06
2.38481e+06
2.29799e+06
2.30451e+06
2.63413e+06
430427
320545
333939
341816
351251
362993
375891
394509
424302
479249
585524
851960
1.88508e+06
1.52879e+06
1.25388e+06
1.19732e+06
246276
451976
507028
407591
55958.5
86583.2
135014
179201
214197
240052
264377
287384
313677
350619
406403
588403
1.49761e+06
987722
665217
309464
332286
464857
466481
303931
87282
37803.4
49694.8
78614.5
112435
145555
176730
206373
231500
260326
297572
424141
1.20838e+06
715818
509142
332265
355687
454701
456774
320670
135256
50824.7
30997.8
34558.4
51506.7
80343.1
112044
142030
169532
196121
224877
317899
1.02552e+06
623188
529262
387306
385590
455141
448402
329916
178423
80366.3
35524.6
33418.4
37034.4
49770.2
69988
95210.7
122390
149375
172642
242936
967332
652900
565622
457680
425551
460820
443949
338966
212255
114933
54238.2
37574.5
38762.4
42046.8
50565.3
66408.6
89485.3
117596
139407
193196
965159
713447
645982
547405
479478
475374
446950
349939
238364
149128
84837.2
52214.4
42623.1
43303.3
46568
54273.9
70409.7
95012.6
115731
158349
974129
789418
776907
683824
557377
504368
455785
362525
263738
182527
119059
75053.6
53171.4
47207.7
48849.9
55073.9
64899.8
81634.7
97922.7
133263
995311
846870
914978
872594
692537
559582
476624
381994
287710
214228
151786
102676
71560.2
57036.9
56159.2
59234.4
65698.6
76142
87674.2
118221
1.02912e+06
901139
998685
1.0498e+06
925940
674361
524544
414079
314979
240230
180472
131784
97144.6
76335.2
68263.6
66999.4
69572.1
77377
88330.3
115502
1.06321e+06
945266
1.05025e+06
1.18081e+06
1.15744e+06
894997
634762
472578
353469
269549
207144
160329
127444
103710
87826.5
78970.2
79223.6
83814.8
92861.3
117133
1.08543e+06
969734
1.06653e+06
1.18882e+06
1.28321e+06
1.12843e+06
829502
582712
411526
307800
236724
184997
151100
125776
105570
91827.1
91412.4
94597.9
101175
120627
1.08689e+06
968083
1.053e+06
1.15608e+06
1.27084e+06
1.25349e+06
1.08544e+06
846785
595278
437244
333374
259263
208871
171008
143452
125356
121084
121464
123822
133733
4.57477e+06
4.61582e+06
4.55261e+06
3.48743e+06
3.04489e+06
2.99635e+06
2.84163e+06
2.43244e+06
1.91473e+06
1.52548e+06
1.23639e+06
1.04525e+06
976458
974342
986016
1.01076e+06
1.04656e+06
1.08368e+06
1.10863e+06
1.10913e+06
4.64156e+06
4.67799e+06
3.92563e+06
2.61038e+06
2.58798e+06
2.9111e+06
2.87734e+06
2.35267e+06
1.55361e+06
1.00335e+06
737430
641187
666989
721916
791437
851585
910403
959085
988818
988211
4.5253e+06
4.17232e+06
2.30054e+06
1.82104e+06
2.43378e+06
2.99709e+06
2.98364e+06
2.34375e+06
1.2591e+06
667503
523189
547844
588863
664709
784676
918153
1.00663e+06
1.061e+06
1.08443e+06
1.074e+06
3.45023e+06
2.56641e+06
1.78033e+06
1.43029e+06
1.9775e+06
2.98183e+06
3.16444e+06
2.6672e+06
1.14739e+06
299741
323971
385757
463141
560358
706327
898588
1.07372e+06
1.20058e+06
1.21161e+06
1.17734e+06
2.97912e+06
2.49793e+06
2.35097e+06
1.93308e+06
236506
324240
346786
375400
415536
472307
554722
692616
920133
1.1613e+06
1.30781e+06
1.30439e+06
2.90162e+06
2.80538e+06
2.89856e+06
2.90143e+06
436999
460790
451727
450757
454900
466946
492728
543568
642631
846073
1.117e+06
1.28271e+06
2.75773e+06
2.78612e+06
2.89458e+06
3.06315e+06
499035
468602
457514
448309
440005
440886
446366
462106
500207
587027
763059
1.06599e+06
2.36311e+06
2.28933e+06
2.29238e+06
2.59653e+06
408284
305214
317891
326222
334253
344935
356506
372149
397160
441185
524602
779857
1.86549e+06
1.52077e+06
1.24174e+06
1.15137e+06
247230
431030
485076
389205
50673.5
78412.3
123893
166964
202956
228719
251943
274387
298094
329344
373146
531258
1.47964e+06
974852
650272
295967
323852
453340
455535
295136
82729.2
33875
44759.4
72220
105721
138601
168667
197985
225317
250860
280196
385132
1.19533e+06
710055
499055
317052
346151
444704
446512
311161
128120
47139.9
27283.2
31003.7
46869
74287.7
105342
136611
165684
192033
215244
292405
1.00606e+06
612341
524055
373241
373831
444971
438875
320945
169864
75780.9
32321.6
27149.6
30283.2
42692.1
64157.4
89670.9
116846
145312
167271
227573
935247
635631
560567
446353
411047
449721
433548
329438
203980
109366
49875.2
31052
31806.1
35548.8
44211.6
60629.5
83205.4
111624
135208
184069
933001
687217
629309
536838
463288
462102
435491
340502
229597
141891
78545.3
45578.5
36319.7
37004.9
41263.6
49378.8
64704.8
89187.1
110850
151156
944427
758065
742346
668113
538815
487288
442103
352602
253019
173019
111671
68994.9
46709.8
41697.4
43953.3
50260.1
59406.3
75558.8
92287.6
126820
966982
817634
877858
848849
662596
535730
458122
368756
276283
204356
144210
95761.3
64838.2
51321.5
50767.9
53595.9
59281.4
69076.1
81483.9
111657
1.00079e+06
875090
972048
1.02492e+06
875463
628899
495742
394880
301215
232284
173599
123719
88940
69064.2
61624.3
59937.9
62058
70080.3
81920.7
109356
1.03598e+06
922277
1.02759e+06
1.16189e+06
1.12176e+06
823924
580947
440539
334237
257677
198891
152461
118643
95449.7
80219.3
70998.7
71205.6
76431.4
86303.6
111827
1.06024e+06
951519
1.05078e+06
1.18307e+06
1.28127e+06
1.09423e+06
753752
525732
380019
287330
222064
174648
142560
117943
98320.8
84558.6
83778.3
87302.4
94798.6
116069
1.06075e+06
950216
1.04004e+06
1.15047e+06
1.27862e+06
1.25929e+06
1.05112e+06
780452
540661
395360
302374
237314
193697
159756
133968
116106
112079
114279
118179
129805
4.57863e+06
4.63646e+06
4.53695e+06
3.39728e+06
2.97815e+06
2.96573e+06
2.81772e+06
2.40895e+06
1.88669e+06
1.49672e+06
1.21516e+06
1.02465e+06
953311
959834
976002
1.00382e+06
1.04138e+06
1.08054e+06
1.1083e+06
1.10867e+06
4.6624e+06
4.71879e+06
3.77179e+06
2.52585e+06
2.56641e+06
2.90113e+06
2.87179e+06
2.34582e+06
1.53467e+06
976564
718633
627848
653446
710474
783996
846866
907795
958975
992180
991873
4.535e+06
3.9936e+06
2.19603e+06
1.77425e+06
2.4485e+06
2.99486e+06
2.98438e+06
2.35105e+06
1.24395e+06
641369
503839
533908
577772
655059
775076
912739
1.00966e+06
1.06499e+06
1.0883e+06
1.07656e+06
3.38386e+06
2.49538e+06
1.74152e+06
1.39819e+06
1.99242e+06
2.96855e+06
3.1587e+06
2.66954e+06
1.14711e+06
291862
314221
374167
453439
550550
694315
891035
1.07463e+06
1.21105e+06
1.22502e+06
1.18827e+06
2.93386e+06
2.47491e+06
2.33504e+06
1.90116e+06
245496
323379
347277
375957
413863
467071
545241
675781
898848
1.15514e+06
1.31802e+06
1.31945e+06
2.8797e+06
2.79536e+06
2.90108e+06
2.89996e+06
432843
456186
449692
450037
454415
465647
488801
535193
622598
806471
1.09197e+06
1.28702e+06
2.74733e+06
2.78913e+06
2.90412e+06
3.0664e+06
491698
463506
455205
448142
440395
440534
444523
456706
488474
560914
715709
1.03258e+06
2.35308e+06
2.28911e+06
2.29851e+06
2.60382e+06
402214
298862
313579
324530
332971
343274
353775
367310
389495
427482
496574
732873
1.85356e+06
1.51197e+06
1.22898e+06
1.13402e+06
242619
432871
486506
387543
49464.5
75539.4
119799
162639
199913
227286
250544
272194
293738
321634
358982
498669
1.47033e+06
967967
642489
291438
325510
455486
457148
295535
82933.2
32572.3
43588.3
70384
104073
136809
166606
195663
223509
247559
273255
364762
1.18789e+06
708039
497561
312346
346519
446398
447772
311851
128047
46504.4
26862.6
30505.9
44823.5
71494
104691
135945
164850
191194
211718
279202
996091
608112
523682
368600
371831
444623
440978
323489
170022
75963.6
32416.5
23634.2
26960
40719.4
63530.6
89293.1
115735
143798
165541
219932
920283
629366
561575
442258
406007
447851
434661
332022
205057
110681
49128.6
27926.6
28784.1
32936.9
42058.1
58892
81213.1
110488
134437
180275
919499
677897
626133
533442
455734
457545
435080
342129
231331
143049
77366
43642.1
33738.3
34536.8
39007.3
47469.1
63206.4
88296.1
110038
148984
930676
743722
730607
664426
529672
479271
439128
352313
254151
173057
111207
67823.1
44143.5
39272.2
41858.7
48666.5
58177.5
74190
90552.2
123780
952196
802327
859204
840920
651157
524065
451030
365062
275779
203162
142782
94286.3
62032.6
48444.9
49002.9
51899.4
56596.3
65577.5
77906.6
107864
985081
860099
954880
1.01338e+06
855956
608241
482902
386820
297427
230579
171381
120948
85119.5
65646.4
59530.2
57039.3
58617.1
65875.1
78260.8
108451
1.01946e+06
907303
1.01067e+06
1.14657e+06
1.09787e+06
783312
554802
425229
325834
253659
196684
148769
115334
93097.1
77636.8
66634.7
66286.1
72014.7
84473.9
113057
1.04422e+06
937174
1.03657e+06
1.17389e+06
1.26734e+06
1.0635e+06
707790
495850
364364
279104
216709
170271
139559
115039
94792.5
79420.7
78918.5
84659.9
95310.7
118585
1.04512e+06
936941
1.02619e+06
1.14361e+06
1.27413e+06
1.24925e+06
1.01592e+06
734137
507584
372845
286368
226084
185917
153726
127904
110163
110068
114749
120265
132288
4.57851e+06
4.63603e+06
4.53529e+06
3.38641e+06
2.97123e+06
2.96338e+06
2.81538e+06
2.40821e+06
1.88544e+06
1.49505e+06
1.21293e+06
1.02287e+06
951196
959122
977340
1.00777e+06
1.04695e+06
1.08599e+06
1.11342e+06
1.11391e+06
4.66775e+06
4.72112e+06
3.76347e+06
2.51594e+06
2.56985e+06
2.90329e+06
2.87212e+06
2.34556e+06
1.5343e+06
975364
716814
625578
650523
706959
782984
849706
913226
964842
996969
996456
4.54357e+06
3.97679e+06
2.18068e+06
1.76357e+06
2.46336e+06
2.9961e+06
2.9838e+06
2.35086e+06
1.24384e+06
640175
503160
533948
576529
649847
769492
913406
1.01592e+06
1.07238e+06
1.09477e+06
1.08181e+06
3.38479e+06
2.48383e+06
1.73073e+06
1.37726e+06
2.06778e+06
2.95279e+06
3.15592e+06
2.6767e+06
1.14071e+06
291235
313528
373878
452189
547248
689276
888124
1.075e+06
1.21336e+06
1.22986e+06
1.19309e+06
2.93666e+06
2.46568e+06
2.31615e+06
1.82077e+06
233719
320538
343475
371369
409142
461815
539069
668231
890718
1.14903e+06
1.31661e+06
1.32088e+06
2.88193e+06
2.7928e+06
2.89925e+06
2.90677e+06
428768
453032
445434
445268
448986
459613
482384
528568
615408
798613
1.08776e+06
1.28541e+06
2.74862e+06
2.78765e+06
2.90449e+06
3.07882e+06
486276
460639
451707
444413
436335
436064
439561
451212
482369
553738
707327
1.02569e+06
2.34988e+06
2.28472e+06
2.29617e+06
2.60947e+06
396514
297919
312119
322489
330527
340442
350991
364607
386542
423985
491871
726910
1.85069e+06
1.51009e+06
1.23175e+06
1.16393e+06
232210
431134
485406
388544
50397.6
77253.9
120667
162777
199346
226772
249220
270495
292113
320018
357083
495673
1.47062e+06
967704
643525
289647
320737
452670
456154
294222
80968.8
32308.7
43555.6
70573
104503
136765
166141
194689
221690
245956
271509
362070
1.18892e+06
707800
499655
311319
343865
445510
448179
310712
125453
46094.6
26835.3
30494.9
45141.8
71821
103963
134288
162938
189137
209251
276644
998289
610332
526233
368984
371221
445659
441948
322044
167412
74986.9
32095.1
23757.2
27004.7
40095.6
62490.8
88028.5
114250
142196
163532
216776
924283
632744
564925
444526
407986
449885
435990
330820
202818
109134
48748
27743.1
28359.2
32269.2
41316.2
58144.4
80422.8
109256
132357
177382
922807
681924
630725
537735
460379
461032
436894
341235
229652
141732
76749.9
42557.9
32967.2
33839.4
38511.9
46981.6
62439.2
87237.8
108435
147204
932800
747104
736753
673705
536526
484066
441634
352260
253232
172213
110044
66788.6
43468.5
38883.6
41502.2
48183
57662.6
73584.5
89720.3
122628
953382
804989
864511
855076
660937
530162
454315
366361
275962
202210
142185
93789.4
61816.2
48116.7
48536.5
51390.4
56250.1
65114.4
77299
106890
985642
861444
958167
1.02505e+06
869296
615688
487102
389104
298685
230122
171728
121348
85397.4
65246.6
59093
56777.3
58320
65430.3
77658
107573
1.01967e+06
907259
1.01161e+06
1.14982e+06
1.10849e+06
792618
561005
428334
327960
254454
197658
149928
115523
92612.7
77434.7
66513.8
66117.7
71741
83975.1
112272
1.04288e+06
935220
1.03408e+06
1.1707e+06
1.27219e+06
1.06291e+06
709989
498393
366674
280520
218186
171362
140005
115561
95315.1
79645.3
79016.7
84550.2
94960.3
117926
1.0432e+06
934605
1.02379e+06
1.1403e+06
1.2745e+06
1.25101e+06
1.01266e+06
731080
507693
374212
287479
227335
187679
155728
129512
111099
110381
114848
120188
132047
4.57538e+06
4.6158e+06
4.54297e+06
3.45628e+06
3.02257e+06
2.99349e+06
2.83838e+06
2.43013e+06
1.90811e+06
1.52009e+06
1.23438e+06
1.0446e+06
975040
973850
987542
1.01472e+06
1.05323e+06
1.09409e+06
1.12141e+06
1.12133e+06
4.65032e+06
4.68888e+06
3.9046e+06
2.59306e+06
2.59775e+06
2.9211e+06
2.88263e+06
2.35622e+06
1.54644e+06
992269
730964
636924
662824
717234
788376
851401
913467
966410
1.00012e+06
999525
4.53876e+06
4.152e+06
2.28348e+06
1.80673e+06
2.47962e+06
3.00563e+06
2.98904e+06
2.35294e+06
1.24815e+06
653370
513344
540456
582029
656004
773780
911983
1.00868e+06
1.06607e+06
1.09144e+06
1.082e+06
3.45758e+06
2.54907e+06
1.76295e+06
1.38957e+06
2.08451e+06
2.95067e+06
3.14916e+06
2.66973e+06
1.14037e+06
294282
319595
382203
459634
556120
698342
889670
1.07129e+06
1.20442e+06
1.21891e+06
1.18477e+06
2.97544e+06
2.47408e+06
2.31043e+06
1.82278e+06
236889
317579
340611
369705
410040
465444
545403
678655
904120
1.15293e+06
1.30802e+06
1.30722e+06
2.89219e+06
2.78933e+06
2.89206e+06
2.90091e+06
425762
449025
440364
440022
444290
456271
481417
530566
625945
827455
1.10505e+06
1.27969e+06
2.75268e+06
2.77517e+06
2.89408e+06
3.07072e+06
483887
456515
446443
438518
431155
431908
436874
451418
487311
570130
742415
1.0512e+06
2.35194e+06
2.27651e+06
2.28501e+06
2.60066e+06
394885
297968
311487
320024
328019
338819
350862
366653
391148
433421
513159
765352
1.85449e+06
1.50385e+06
1.22272e+06
1.12723e+06
232405
426700
482002
388408
48053.3
79060.5
123769
165466
200661
226114
248764
271109
294512
325028
367466
522356
1.47769e+06
969771
644920
295940
321170
451746
455611
294392
80157
33580
44990.6
72528
105591
137781
167515
195985
222748
247199
275274
377482
1.19589e+06
709374
503360
318861
343918
442450
446451
310134
124959
46074.7
27416.4
31093.4
47097.6
74484.1
105993
136618
163896
188604
211157
286631
1.00978e+06
617264
527731
377412
372300
442546
438792
319519
166698
74231.1
32003.1
26973.6
30226.7
43121
65255.2
89920.5
116162
144093
164998
223453
942529
642722
565923
452498
411111
447502
432748
327583
201680
107780
49247.7
30710.4
31600.4
35556.6
44451
61003.5
83371.5
111259
134228
181381
941682
697081
638560
547036
465845
460448
434254
338408
227929
140966
77819.2
44926.1
35948.5
36605
40854.1
49098.3
64523.8
89188.5
110336
149045
950958
766734
756208
687710
544815
486881
440283
350357
251947
172378
110903
68558.4
45997.8
41090
43391.1
49940.7
59341.6
75208.1
91252
124755
970867
824024
887890
874828
676817
537173
456041
366409
275456
203586
143839
95267.5
64127.5
50369.6
50389.2
53452.1
58991.4
68137.8
80326.8
109756
1.00205e+06
877739
975575
1.04574e+06
897561
633210
494118
392316
300172
231935
173563
123891
88835.7
68012.7
61216.9
59693.2
61489.5
69246.7
80963.5
107892
1.0352e+06
921715
1.02705e+06
1.16557e+06
1.13608e+06
832444
580397
437698
332574
257648
199882
153866
119194
95475.5
79985.3
70573.1
70792.3
76182.9
85943.7
110705
1.05618e+06
947172
1.04659e+06
1.17646e+06
1.2807e+06
1.10091e+06
753543
522712
378179
287411
223408
176322
144104
119137
98946.1
84857
84062.1
87600.9
94821.5
115402
1.05572e+06
945167
1.0346e+06
1.14268e+06
1.27456e+06
1.25876e+06
1.04868e+06
776143
538466
394988
303288
239260
196247
162426
136502
118169
113525
115378
118773
129847
4.55689e+06
4.57106e+06
4.56226e+06
3.57714e+06
3.13488e+06
3.05562e+06
2.88112e+06
2.46698e+06
1.94727e+06
1.55619e+06
1.26316e+06
1.07264e+06
1.00343e+06
993862
1.00289e+06
1.02514e+06
1.06036e+06
1.09788e+06
1.12726e+06
1.13232e+06
4.60784e+06
4.61407e+06
4.1775e+06
2.74356e+06
2.67416e+06
2.96586e+06
2.90878e+06
2.38448e+06
1.57277e+06
1.02439e+06
754643
656908
681624
735324
803605
860975
917077
964911
998452
1.00162e+06
4.52893e+06
4.43119e+06
2.52007e+06
1.92405e+06
2.52197e+06
3.05011e+06
3.0253e+06
2.38305e+06
1.27283e+06
683575
531891
552674
591411
670241
793208
921164
1.00448e+06
1.05992e+06
1.08691e+06
1.07973e+06
3.56611e+06
2.68399e+06
1.84912e+06
1.43786e+06
2.1085e+06
2.99668e+06
3.19168e+06
2.7038e+06
1.17534e+06
313306
341970
402775
476347
572551
716011
900211
1.07118e+06
1.19553e+06
1.20531e+06
1.17623e+06
3.07109e+06
2.52599e+06
2.32877e+06
1.83404e+06
239100
327447
353334
386624
430617
488752
572913
717062
951134
1.17122e+06
1.29981e+06
1.29217e+06
2.93105e+06
2.80357e+06
2.89899e+06
2.90905e+06
427377
461834
453464
454130
460085
474727
504246
560324
676475
901146
1.13856e+06
1.27326e+06
2.776e+06
2.77345e+06
2.90236e+06
3.08138e+06
487274
471189
461501
453395
446385
447895
454967
474174
520238
628216
824832
1.09428e+06
2.37115e+06
2.28248e+06
2.29205e+06
2.61192e+06
397617
309438
323529
332201
342324
354444
367322
385784
415320
469636
574181
841202
1.87272e+06
1.51052e+06
1.23165e+06
1.17833e+06
235419
437215
492130
394649
52901.3
83365.4
130784
175011
209800
235538
260094
283500
309883
346488
401328
582128
1.49335e+06
980281
656563
307569
332696
470549
473892
308836
87046.7
37058.4
48999.1
77457.3
110730
143242
174730
205160
230635
258970
295371
420945
1.20569e+06
711705
508887
332942
358540
459837
463771
324835
135406
50270.3
30738.9
34193.2
50930.4
79892.7
112114
142418
169642
195640
224107
317036
1.02598e+06
624232
527983
390860
390081
460027
455162
333480
179527
80574
35160.6
33073.7
36948.6
50350.4
70852.3
95676
122797
150209
173432
243248
969653
655236
566697
463634
431133
465267
449322
342552
214501
115772
53807.6
37512.1
38871.3
42218.6
50808.7
67113
90617.5
118983
140550
193496
969575
718209
651191
557283
486486
479374
451524
353951
240811
150185
85096.1
52547.5
42657.3
43166.3
46450.7
54505.9
71170.1
95925.8
116289
158095
978624
794063
786883
702632
566748
508590
459406
366764
265884
183556
119901
75644.3
52939.4
47019.9
48848.4
55431.6
65241.6
81686.2
97614.1
132413
1.00017e+06
851892
924097
896297
707825
564484
479460
385949
289802
215550
152863
103118
71684.2
56845.5
56381.9
59550
65869
75854.9
87167.8
117259
1.03385e+06
906600
1.00594e+06
1.07159e+06
944786
679551
527100
417306
317142
241988
181836
132671
97946.1
76376.6
68289.9
66964.1
69371.4
77106.2
87971.5
114934
1.06758e+06
950080
1.05396e+06
1.19099e+06
1.17438e+06
901752
637356
474813
355550
271383
208751
162179
129034
104208
87913.2
78885.7
79095.4
83867.3
93013.1
116982
1.08697e+06
972177
1.06833e+06
1.19301e+06
1.29431e+06
1.13934e+06
834317
584301
413674
309625
238377
187068
152755
127006
106522
92296.1
91761.2
95086.4
101721
120935
1.08636e+06
969054
1.05425e+06
1.15737e+06
1.27937e+06
1.26416e+06
1.09395e+06
850081
598012
438965
334900
261197
210679
173292
145643
127026
122555
122699
124938
134486
4.59329e+06
4.54854e+06
4.60608e+06
3.74468e+06
3.31207e+06
3.17092e+06
2.96735e+06
2.54129e+06
2.01478e+06
1.61289e+06
1.30851e+06
1.11798e+06
1.0505e+06
1.03217e+06
1.03292e+06
1.05243e+06
1.08767e+06
1.125e+06
1.15396e+06
1.15938e+06
4.57259e+06
4.50723e+06
4.43202e+06
2.94947e+06
2.81588e+06
3.06245e+06
2.9802e+06
2.44716e+06
1.62862e+06
1.07278e+06
783918
686747
713951
770978
834764
885199
937399
982565
1.01365e+06
1.01688e+06
4.55875e+06
4.60239e+06
2.86204e+06
2.0999e+06
2.61923e+06
3.14566e+06
3.10471e+06
2.44575e+06
1.32578e+06
725622
554475
568795
612034
704261
839723
950379
1.02184e+06
1.07413e+06
1.0992e+06
1.09202e+06
3.71556e+06
2.87316e+06
2.0055e+06
1.53756e+06
2.15583e+06
3.10117e+06
3.27225e+06
2.76509e+06
1.26536e+06
339980
368429
426204
499073
599996
753710
936649
1.10831e+06
1.20808e+06
1.2097e+06
1.1801e+06
3.23058e+06
2.64549e+06
2.40647e+06
1.86862e+06
253102
351512
379999
415773
460981
521293
614465
780729
1.02125e+06
1.21584e+06
1.30713e+06
1.29519e+06
3.02919e+06
2.87497e+06
2.95822e+06
2.96486e+06
453846
494841
484629
484362
490263
507208
543312
613698
757859
993005
1.1992e+06
1.28392e+06
2.84039e+06
2.81777e+06
2.94732e+06
3.13019e+06
521570
508233
496017
484141
475219
477281
487228
514654
578044
714956
926320
1.1499e+06
2.42457e+06
2.3184e+06
2.32257e+06
2.65104e+06
427012
337997
350869
359807
370180
381186
395005
417378
455957
529116
662238
932075
1.9176e+06
1.53755e+06
1.25512e+06
1.17957e+06
241901
465177
527420
423954
58194.2
94168.3
146281
192498
226752
254206
279884
304952
336243
382646
455332
661748
1.53443e+06
1.00995e+06
686171
332805
356104
501850
507985
336882
98551.9
42527.3
54892
84898.7
120147
155005
189403
220894
248357
284092
331151
480559
1.24016e+06
727571
527597
361991
387869
489635
496472
352594
152869
56787.5
36356.7
40785.2
59540.7
89677.3
122359
154602
183452
212669
248344
361249
1.06734e+06
651635
540897
420360
424727
489171
485385
361284
200319
89672.1
41727.1
41476
46096.1
58646.7
79701.3
106247
134884
163358
190741
275142
1.01645e+06
686349
584839
493736
468086
494667
478507
370691
234973
127811
63056.9
46790.7
47503.4
50376.9
58659.7
75964.8
101793
130179
152948
215392
1.01214e+06
758317
685422
589698
523702
510605
481035
381184
262140
164959
96762
61767.7
51036.8
51007.3
54399.8
63506.1
81223.2
106215
126654
173478
1.01924e+06
836044
838560
742774
608181
544890
491385
395009
287336
201038
132680
85910.4
61713.4
55243.5
57012.4
63924
74145.9
91006.9
107164
146361
1.04107e+06
890193
968982
938858
763855
611529
518125
417885
312498
232982
166680
114749
81765.7
67040.6
64981.9
67775.2
74641.3
85186
97235.8
130510
1.07594e+06
943439
1.04284e+06
1.11671e+06
1.00872e+06
747918
579572
456705
343733
260559
196196
145103
110018
87628.3
77715.9
75961.4
78604.2
86546.3
97863.6
125858
1.10952e+06
984955
1.08498e+06
1.21726e+06
1.2229e+06
979447
712223
529347
390004
296275
225811
175607
140329
114549
97221.8
88229.4
88586
93418.6
101275
125141
1.12721e+06
1.00311e+06
1.09426e+06
1.21419e+06
1.31107e+06
1.19276e+06
920575
661431
462689
343537
261923
204278
165062
136775
114968
102225
101330
103311
108796
128236
1.12542e+06
998396
1.07809e+06
1.1747e+06
1.29229e+06
1.28103e+06
1.14394e+06
927506
667169
492088
375555
290905
230984
186912
157307
139327
133026
130547
132288
142244
4.78775e+06
4.7396e+06
4.85641e+06
4.01594e+06
3.56552e+06
3.37206e+06
3.14032e+06