/*--------------------------------*- C++ -*----------------------------------*\
  =========                 |
  \\      /  F ield         | OpenFOAM: The Open Source CFD Toolbox
   \\    /   O peration     | Website:  https://openfoam.org
    \\  /    A nd           | Version:  9
     \\/     M anipulation  |
\*---------------------------------------------------------------------------*/
FoamFile
{
    format      ascii;
    class       surfaceScalarField;
    location    "0.0055";
    object      phi;
}
// * * * * * * * * * * * * * * * * * * * * * * * * * * * * * * * * * * * * * //

dimensions      [0 3 -1 0 0 0 0];

internalField   nonuniform List<scalar> 
28500
(
-170.319
-170.295
-5.70883
-135.842
-179.305
-4.27617
-121.321
-184.487
-5.95275
-98.7682
-229.489
-9.25673
-52.7382
-286.772
-12.9899
7.71813
-293.754
-11.9771
72.8559
-289.975
-13.5235
147.212
-293.52
-11.2783
219.213
-282.103
-14.2218
272.609
-240.755
-11.687
311.963
-190.977
-10.1883
337.53
-153.512
-11.794
354.298
-127.356
-13.444
367.526
-108.985
-10.1629
380.003
-96.5874
-9.62961
391.317
-90.3558
-10.9115
404.138
-82.1216
-11.895
419.219
-76.594
-11.6946
435.852
-70.0854
-12.1294
-64.0458
-14.7865
-178.784
-136.328
-3.61695
-142.192
-141.372
-0.963355
-156.277
-178.169
-2.19756
-135.593
-223.744
-9.26193
-70.5266
-288.72
-14.5103
1.12816
-289.985
-12.0416
74.9238
-286.404
-12.7152
170.687
-289.015
-11.3555
269.375
-264.669
-11.2311
332.485
-197.004
-8.65903
366.201
-138.156
-8.62743
382.395
-107.52
-10.5972
386.125
-90.5909
-13.1474
388.239
-73.0879
-8.50075
394.176
-60.1079
-7.80276
402.738
-52.8894
-9.04006
413.326
-54.535
-10.261
426.994
-52.7672
-10.8362
442.482
-48.3577
-10.9582
-43.0193
-13.3275
-183.132
-119.925
-3.3721
-179.017
-153.653
-0.410436
-211.379
-208.812
-1.39206
-162.142
-58.6618
-11.1501
-63.4745
-59.9513
-64.8893
-74.7593
-68.7652
-13.2028
-71.2757
-70.1377
-72.026
2.02966
-70.6174
-11.678
-69.9089
-71.4943
-70.7541
78.9314
-69.7679
-10.9878
-69.7135
-70.4627
-70.4901
186.186
-69.6594
-11.357
-69.6593
-70.3895
-70.5435
296.068
-61.9676
-8.74625
-48.1548
-63.1431
-49.1392
353.841
-162.907
-4.61003
378.487
-131.028
-8.72874
396.109
-110.165
-12.7822
406.775
-90.9452
-14.3007
404.28
-70.4348
-10.7839
401.834
-53.8309
-8.56352
404.262
-42.6321
-8.75657
412.391
-32.4378
-8.5086
424.378
-32.0322
-8.98236
439.348
-31.3414
-8.01495
-27.3145
-8.71579
-229.891
-96.1508
-4.43845
-226.177
-134.074
-3.95759
-60.517
-160.933
-6.39063
-64.8118
-60.6835
-65.0642
-58.8376
-57.6365
-2.47956
-31.4764
-4.0682
50.1951
-17.2576
-16.7354
-16.7635
-17.2175
19.783
-8.26175
-3.27446
-17.3957
-17.6912
-17.7141
-17.3833
-1.17653
10.5329
-3.40884
-17.4652
-17.1964
-17.2183
-17.4476
-21.6042
32.731
-3.10304
-17.6221
-17.2631
-17.311
-17.577
-55.7729
69.849
-57.3523
-3.74494
454.435
-123.404
-17.1356
-92.4966
-110.1
-92.595
-111.334
471.008
-115.956
-13.6941
474.8
-104.932
-13.6788
474.031
-92.453
-17.0705
466.025
-76.3552
-18.1052
447.108
-55.8744
-14.7554
428.332
-35.5671
-12.1465
423.645
-17.8729
-13.9752
427.842
-11.7981
-15.1328
438.917
-6.49017
-17.4163
-2.48434
-19.2782
-285.609
-51.2153
-11.8301
-288.682
-70.1553
-12.9054
-69.5321
-74.7399
-11.8132
-71.2558
-70.247
-71.8268
-31.4656
-2.89814
51.1345
-17.5534
-17.5726
-17.7511
-17.506
5.39692
28.7032
-6.92496
-1.41077
557.453
-73.8835
-19.9839
-134.498
-140.014
-136.761
-142.588
555.595
-70.5782
-21.2964
551.715
-64.998
-20.8573
544.972
-57.5848
-22.2228
535.89
-50.2126
-22.5429
519.306
-35.8285
-21.7515
489.411
-18.5339
-23.7479
460.456
-2.87957
-20.9996
451.724
9.36137
-16.2107
453.022
20.7674
-17.4438
23.9636
-19.0732
-293.773
8.58701
-12.3797
-289.58
1.51904
-12.7383
-70.514
1.76037
-12.1276
-69.9486
-71.2269
-70.6915
19.7613
-8.14894
-3.38977
-17.4228
-17.7248
-17.7397
-17.4075
4.04179
35.4105
-3.04805
-1.51902
579.57
-4.99975
-21.8643
-142.558
-143.933
-145.211
-146.625
580.027
-5.53922
-22.7912
580.311
-5.13205
-23.2758
579.526
-2.72608
-23.9521
576.793
0.260246
-23.9489
571.351
4.66371
-22.5669
557.534
15.1694
-23.7298
527.85
31.826
-23.8979
495.393
42.0483
-15.2867
487.006
54.009
-16.4994
56.5153
-19.1895
-290.15
73.555
-14.8689
-287.384
75.7678
-14.3847
-69.8559
79.689
-11.974
-69.771
-70.552
-70.4721
-1.35294
10.6638
-3.62807
-17.4977
-17.2268
-17.2517
-17.4792
0.162922
36.0521
0.811929
-1.49815
594.539
75.3115
-22.1591
-146.185
-147.649
-148.833
-150.355
596.496
73.2481
-22.6897
598.467
71.0407
-22.9445
599.221
69.8566
-23.5724
598.377
69.2152
-24.1832
595.682
68.8852
-23.6414
589.904
69.7848
-22.5396
575.822
75.6735
-24.6515
548.624
85.2629
-21.5435
513.444
99.056
-13.8749
98.5976
-18.1781
-293.938
147.831
-12.6745
-289.879
171.653
-13.2756
-69.5301
187.313
-12.9189
-69.5627
-70.4602
-70.4135
-21.8043
33.105
-3.56669
-17.5143
-17.3477
-17.368
-17.3854
-4.27604
36.9049
5.84958
-1.49458
607.874
203.914
-19.7754
-149.116
-150.094
-151.787
-152.691
612.008
191.292
-22.2929
616.404
180.428
-25.5577
617.453
169.886
-24.3706
618.039
160.77
-21.3307
617.856
149.863
-21.3939
614.65
140.946
-21.4627
607.954
135.918
-21.8576
595.272
135.007
-21.6289
568.698
145.065
-15.5716
143.79
-13.8086
-281.415
219.999
-16.4182
-263.636
270.729
-15.1902
-61.1922
297.448
-14.1347
-47.6018
-63.2373
-49.6974
-55.4426
-57.3443
71.3909
-4.8802
8.43476
-6.62055
31.733
-2.53248
4.08712
-3.04808
34.7245
-1.54408
0.101653
0.90927
35.3159
-1.50008
-4.394
5.92781
36.2512
-1.42926
-10.6435
-13.1921
125.226
131.675
-7.38001
-17.1452
-9.77107
-16.2608
-18.3585
-15.2456
-19.1344
577.209
374.824
-28.2732
-137.895
-123.313
-139.826
-124.56
584.437
331.547
-31.7124
594.364
295.027
-20.7941
605.257
271.153
-19.0775
613.324
254.081
-23.5587
618.674
237.339
-25.7404
623.115
221.998
-25.7862
621.579
209.378
-23.3071
615.174
198.536
-21.3618
601.003
199.137
-17.501
198.533
-14.6585
-239.346
273.122
-14.5924
-195.026
333.147
-14.3232
-163.128
353.94
-11.991
-128.742
452.838
-22.1597
-92.8563
-111.325
-93.1538
-111.48
-76.5234
547.903
-22.2583
-133.185
-137.392
-135
-139.417
-3.56729
567.224
-22.2212
-139.58
-140.828
-141.76
-143.11
78.2289
582.87
-21.8642
-143.113
-144.658
-145.58
-147.351
209.404
596.293
-18.8797
-147.047
-148.349
-150.042
-151.695
358.643
572.535
-23.6695
-139.818
-128.231
-142.85
-131.012
496.473
503.306
-31.4978
542.43
431.901
-6.78973
552.909
384.778
-12.3571
570.026
354.393
-24.0915
588.336
330.946
-28.9623
599.204
309.03
-29.4541
609.73
289.207
-23.0484
620.203
274.362
-21.9398
621.199
257.17
-21.6994
615.828
248.258
-19.6672
243.415
-16.3084
-190.694
312.342
-12.9815
-137.134
366.61
-13.2549
-131.938
378.429
-14.385
-119.176
467.514
-17.9529
-72.5704
546.281
-22.7312
-4.03098
567.794
-23.3417
75.2899
584.859
-22.7662
191.939
599.285
-20.3551
317.585
579.415
-27.8168
417.435
533.567
-14.5432
503.742
502.644
-5.1239
539.304
458.871
-27.8317
546.507
422.956
-29.8715
554.173
389.822
-27.1004
567.065
367.45
-27.7149
582.872
351.019
-20.2459
598.016
332.725
-16.0853
611.708
314.982
-22.354
614.319
296.362
-20.1642
285.646
-15.1962
-153.708
337.767
-15.131
-107.93
382.777
-15.4762
-111.74
396.059
-17.2403
-106.814
471.198
-17.0417
-66.3319
542.765
-22.2431
-3.79338
568.033
-23.8185
71.7894
587.063
-22.8775
180.527
603.568
-23.5824
285.486
589.711
-17.3004
364.898
545.705
-17.7481
441.727
526.196
-30.435
502.326
501.225
-36.3985
516.682
458.516
-24.4545
526.857
426.409
-16.599
543.625
409.198
-14.9751
565.244
399.966
-12.2758
581.827
385.772
-11.9355
596.112
362.854
-17.5989
604.652
346.141
-22.1726
326.967
-16.4639
-127.58
354.215
-16.7496
-93.0455
385.71
-17.0059
-93.1445
407.422
-17.4306
-94.0334
470.694
-19.1528
-58.9744
536.589
-23.2971
-1.76928
567.315
-24.5006
69.6856
588.315
-23.7533
168.637
604.468
-22.8693
265.627
599.359
-13.824
340.947
565.604
-20.597
402.962
534.717
-30.5917
449.668
506.863
-28.2091
479.656
478.271
-21.7416
505.15
458.752
-10.8602
523.647
441.358
-2.41403
540.936
428.121
-6.43135
554.626
416.02
-10.31
567.855
396.172
-14.8767
583.546
387.14
-20.8678
366.376
-15.5422
-108.792
367.194
-13.4424
-75.0275
387.074
-12.0656
-73.2649
404.878
-13.2078
-78.1104
463.624
-19.4646
-51.1325
528.445
-22.742
1.3302
564.913
-24.4139
68.6106
587.973
-24.505
158.551
605.022
-20.9091
249.247
605.616
-17.7529
321.82
584.166
-21.7807
374.88
546.476
-25.467
412.766
515.909
-18.2174
449.43
499.415
-13.0764
487.738
489.318
-1.49138
506.78
468.427
-6.95702
519.591
447.176
-19.9737
527.632
434.542
-20.8122
541.477
419.767
-16.4962
564.373
420.819
-14.2118
402.75
-10.9824
-96.2639
379.482
-12.7311
-62.7026
392.789
-11.47
-56.6132
401.122
-11.6717
-57.836
445.715
-15.1458
-36.6399
512.937
-21.5687
5.65128
559.967
-23.0703
68.0315
585.719
-23.8857
147.787
604.936
-21.5012
232.58
609.634
-20.8138
302.228
594.749
-22.4893
358.581
561.441
-22.7001
400.812
534.888
-11.8963
431.643
515.857
-3.03249
462.017
503.777
-7.41768
481.86
483.859
-23.7016
494.281
460.206
-26.6804
508.412
449.583
-15.6275
527.152
439.194
-1.82326
548.793
444.398
1.80349
430.913
-4.18204
-90.2915
390.653
-14.2382
-53.8372
401.514
-13.1147
-44.8873
403.004
-13.352
-38.6797
427.08
-11.4452
-19.6824
484.574
-21.6008
15.8183
546.882
-23.801
68.7339
580.261
-22.7336
138.797
601.854
-21.2819
217.041
613.36
-22.2593
283.56
604.522
-17.045
344.609
578.227
-12.9008
393.678
559.339
-6.96749
421.136
535.162
-5.77772
441.182
515.695
-19.7758
456
494.202
-26.5129
472.669
475.076
-18.849
490.595
467.352
-11.4541
512.744
457.219
2.17023
532.709
457.169
1.53916
447.362
-6.32905
-82.2259
403.412
-15.4293
-55.3489
412.251
-14.7008
-34.5857
411.096
-13.6017
-20.9982
422.016
-15.3863
-5.27229
456.126
-17.6442
30.5734
518.675
-22.2004
74.2405
566.528
-24.3293
133.832
595.437
-21.4367
204.231
611.52
-21.3806
268.512
613.744
-16.348
326.743
592.846
-9.42925
379.76
577.113
-7.48256
410.755
550.666
-9.0442
431.01
523.984
-20.3527
446.555
506.541
-15.5947
464.128
491.16
-11.0346
482.969
484.569
-8.62038
501.033
473.951
4.30991
515.939
465.785
0.936281
458.775
-6.44137
-76.6142
418.426
-15.2563
-53.6716
426.019
-15.2856
-33.8917
423.333
-13.9848
-14.4167
426.152
-17.5331
6.90835
447.823
-15.0448
39.8255
488.556
-13.6307
83.1993
540.037
-19.5507
133.326
583.271
-20.3194
194.02
605.253
-19.8037
251.788
613.96
-16.9701
309.496
606.261
-16.8615
357.164
592.292
-14.1752
391.399
564.769
-13.0632
417.592
538.074
-15.3969
438.582
525.071
-1.53597
455.905
511.916
1.43262
472.524
501.647
3.33826
485.152
486.622
7.68156
499.72
474.966
-1.83687
469.885
-6.40032
-70.1484
434.898
-15.6561
-49.3022
441.426
-15.3268
-32.8983
438.416
-12.8192
-8.86076
437.211
-20.2152
18.2317
449.799
-18.0674
51.5721
481.252
-16.5677
96.5667
506.78
-12.5094
142.566
557.925
-13.6253
194.974
591.192
-15.6609
243.626
608.051
-16.1319
291.736
608.657
-16.2306
341.294
600.701
-17.1774
382.537
580.004
-16.4463
418.233
561.065
-9.97957
444.026
547.438
3.36024
458.439
532.756
1.37942
467.686
517.189
-0.13232
475.571
501.775
-2.93485
485.581
485.365
-2.46855
483.644
0.783652
-64.1535
-17.9709
-44.007
-17.2608
-28.7286
-13.0473
-4.43129
-22.0025
21.5679
-20.4555
53.9198
-19.7214
96.0145
-18.1697
140.536
-13.0472
193.695
-13.5141
238.21
-13.7722
280.528
-12.1063
321.749
-12.2565
361.464
-11.4385
399.013
-6.77849
429.126
-2.34482
447.691
-5.29619
460.493
-5.96502
471.44
-6.37568
486.325
1.23986
5.03668
-169.877
-170.403
-0.417088
-136.218
-180.048
2.44611
-123.47
-184.992
4.26
-101.609
-235.925
2.38586
-54.5137
-295.821
-2.44125
6.99554
-299.673
-3.53685
72.5418
-295.512
-5.06859
147.759
-298.97
-3.6113
220.303
-286.804
-5.79479
274.166
-245.105
-3.18578
313.557
-194.863
-0.769651
338.786
-156.414
-2.00165
355.61
-129.618
-3.93308
368.885
-110.969
-1.57984
381.274
-97.6877
-0.858436
392.208
-91.1189
-1.68397
404.57
-82.8555
-3.38349
419.372
-77.2186
-3.89787
436.018
-70.8875
-5.00092
-65.1212
-7.55746
-178.582
-137.245
2.21277
-146.164
-145.66
6.48977
-162.053
-187.073
10.5503
-137.95
-235.328
2.81252
-70.4281
-298.227
-3.41685
1.40653
-297.226
-3.79076
74.9197
-292.843
-4.59654
171.496
-295.936
-3.87528
270.661
-270.501
-2.64143
334.926
-202.705
-0.483301
368.922
-142.969
1.32527
384.987
-109.573
0.447628
388.987
-92.9119
-3.06452
390.513
-74.5993
0.177715
395.862
-62.273
1.26332
403.946
-52.6319
0.288994
413.839
-54.0963
-1.85513
427.033
-53.0612
-3.12371
442.496
-48.8161
-4.26574
-44.0634
-6.78635
-182.325
-121.985
4.027
-185.879
-159.565
7.98261
-216.353
-214.997
13.1929
-166.032
-61.8935
-0.344348
-67.6198
-62.5317
-68.2556
-74.0611
-72.3944
-2.52041
-73.5808
-73.1377
-73.9902
3.24612
-73.1386
-4.16106
-72.5258
-73.7558
-73.0519
80.4683
-72.0256
-3.72347
-72.0272
-72.5491
-72.5916
186.618
-72.0454
-4.21995
-72.1705
-72.6169
-72.7246
297.975
-64.6098
1.37598
-50.6781
-64.5479
-50.3527
357.738
-167.932
3.58819
382.109
-134.89
0.371106
398.656
-112.001
-1.37218
410.151
-92.1982
-4.21786
408.693
-71.4007
-0.832307
404.669
-54.8129
1.24028
405.737
-42.8599
-0.405113
412.813
-32.9493
-1.20117
424.273
-31.2958
-1.85615
439.136
-31.313
-1.398
-28.0394
-2.6326
-234.145
-98.5666
3.86833
-234.479
-137.238
3.38746
-62.0049
-164.755
-2.00326
-66.9546
-63.4069
-67.3529
1.11662
-59.9014
-59.3948
-0.812594
2.81886
-30.9315
-1.33305
51.4023
-18.7138
-18.5633
-18.5389
-18.6731
2.13037
19.6505
-8.23045
-1.3903
-18.0613
-18.3693
-18.017
-18.3916
2.34569
-1.17631
10.5519
-1.6655
-18.1024
-17.8188
-18.0704
-17.8538
1.89847
-21.7687
32.7042
-1.20993
-18.2743
-17.9345
-18.2623
-18.0026
-56.055
1.25325
70.1386
-59.8647
-0.592467
465.304
-127.063
-2.92899
-93.8845
-112.749
-94.2007
-114.674
480.497
-118.688
-0.993971
483.183
-106.551
0.339836
481.553
-93.6349
-3.10062
473.802
-77.9036
-5.98146
455.573
-57.2791
-3.04093
434.286
-36.9634
0.527026
427.593
-18.591
-4.31006
429.27
-11.5939
-7.95712
439.081
-6.65261
-10.4625
-3.08435
-12.8733
-293.181
-52.9116
-3.27286
-296.358
-70.8906
-5.71092
-71.5161
-75.5814
-6.18767
-73.3791
-72.0877
-73.9773
1.65734
-31.865
-1.35562
50.2846
-17.8191
-17.299
-17.8905
-17.3688
0.653353
5.54807
28.8741
-7.09383
-0.480474
572.08
-74.8707
-11.9558
-139.361
-144.933
-140.075
-145.303
569.274
-71.6564
-11.7751
564.125
-66.0977
-9.88028
556.226
-58.8546
-10.2665
546.619
-51.4342
-10.2744
530.783
-37.5857
-9.81492
501.785
-20.2099
-10.8912
469.257
-4.32554
-7.65833
455.801
9.90428
-4.8723
455.806
21.3145
-10.2217
24.3692
-12.7857
-299.498
7.52916
-4.15549
-296.547
1.47574
-5.02375
-72.5359
2.69464
-5.89133
-72.2251
-73.0643
-72.624
2.1654
19.9594
-8.23606
-1.4479
-17.9837
-18.2362
-17.9681
-18.2634
1.05132
4.01594
36.7996
-3.03575
-0.939216
594.292
-4.99332
-11.5237
-147.6
-149.098
-148.046
-149.558
593.904
-5.61986
-11.0023
593.634
-5.34296
-10.5875
592.523
-3.1977
-10.671
589.447
-0.268612
-10.4211
583.741
3.77122
-8.61021
570.841
13.3457
-9.70548
542.959
29.8007
-10.4924
505.86
42.3538
1.20784
492.947
54.6333
-2.49836
58.1608
-10.7595
-295.393
72.826
-6.58962
-293.572
75.2301
-6.48763
-72.0403
80.4331
-4.97035
-71.8724
-72.5484
-72.5271
2.60394
-1.26603
10.6381
-1.96821
-18.1042
-17.8222
-18.0767
-17.8508
1.01546
0.21166
37.4725
0.750238
-0.902097
610.41
75.2884
-11.3002
-151.35
-152.879
-152.013
-153.697
611.538
72.9069
-10.7456
612.686
70.8557
-10.2924
613.164
69.7908
-10.4105
612.419
68.9129
-11.0124
609.899
68.3596
-10.9228
604.704
68.8772
-9.26103
592.286
74.1963
-10.4778
566.829
83.0769
-7.89344
529.074
97.5018
4.59565
100.452
-4.03191
-299.519
148.188
-5.00304
-296.723
171.885
-5.75706
-72.0031
186.929
-6.14544
-71.951
-72.528
-72.5861
2.29825
-21.8003
32.7356
-1.57523
-18.1505
-18.0545
-18.0944
-18.0779
1.03135
-4.13744
38.2591
5.67482
-0.915252
624.75
204.628
-9.35991
-154.437
-155.115
-155.46
-156.513
628.159
191.694
-9.37622
631.773
180.758
-11.1819
632.39
170.109
-10.2942
632.079
161.429
-7.32707
631.816
151.04
-7.74327
629.005
141.577
-8.03785
623.132
135.872
-7.67295
611.976
134.296
-7.49966
586.903
142.591
0.965005
144.355
2.58617
-286.845
220.904
-8.16374
-270.123
271.57
-6.73984
-63.6952
298.504
-4.75491
-49.7976
-64.3811
-50.249
-55.2043
2.05486
-59.5101
70.898
-1.83238
0.723956
8.08525
-6.87234
32.0569
-1.03672
1.09653
4.09559
-3.06256
36.0985
-0.97135
1.07102
0.156522
0.839604
36.8017
-0.955296
0.99238
-4.24169
5.75423
37.902
-0.867762
-9.74436
-14.3129
5.29275
127.937
137.031
-2.83802
-16.2603
-9.71228
-16.2035
-19.2483
-14.5508
-19.4636
596.508
380.616
-13.8375
-141.674
-125.747
-143.356
-127.704
603.872
332.518
-20.4007
611.689
298.002
-6.48891
621.02
272.331
-0.168518
628.754
255.561
-5.1031
633.319
239.428
-10.2913
637.255
223.8
-11.6961
636.344
210.664
-9.60992
630.292
198.866
-7.41516
617.594
197.462
-2.34736
198.02
1.82398
-244.81
274.72
-6.59381
-201.903
335.591
-6.26681
-167.103
358.013
-3.92317
-131.278
464.689
-9.45267
-93.8979
-114.115
-94.0782
-114.944
-77.7461
566.211
-12.7136
-138.4
-142.769
-139.593
-144.229
-3.7569
586.93
-11.4797
-145.309
-146.777
-146.992
-148.503
78.3403
604.61
-10.8065
-149.402
-151.36
-151.19
-153.17
212.098
619.796
-8.86921
-154.084
-155.779
-156.137
-157.985
360.193
598.111
-11.9147
-146.827
-133.776
-148.694
-134.833
503.998
519.624
-22.7141
554.913
438.264
9.31002
568.377
387.771
4.91363
586.834
356.837
-10.8399
604.868
334.312
-15.2557
614.462
312.335
-12.8977
623.407
290.75
-5.09756
632.886
275.812
-4.61868
635.818
259.061
-9.03024
632.096
248.23
-6.19013
243.244
-1.19597
-195.694
314.181
-4.84885
-144.134
370.085
-4.93882
-136.348
383.201
-4.89812
-122.233
479.567
-6.2193
-73.9714
563.539
-11.2468
-4.43763
585.903
-11.4274
74.8736
604.933
-10.307
193.359
620.908
-9.08946
321.597
602.205
-17.2712
422.186
553.435
4.92951
505.773
511.023
16.4952
553.207
463.106
-22.8499
565.221
428.3
-27.2952
572.432
396.111
-8.27514
581.378
370.005
2.38335
593.881
350.729
-0.682116
608.259
334.253
-1.81321
623.954
317.027
-12.5781
628.925
299.195
-9.96707
286.598
-0.69064
-157.489
339.163
-5.76129
-112.863
386.032
-3.98302
-115.053
400.367
-5.05962
-109.697
482.388
-3.9397
-68.1497
558.654
-9.23574
-4.3377
585.141
-11.1742
71.5278
605.618
-10.0868
181.29
623.482
-10.9949
290.184
609.506
-4.99286
371.478
563.948
1.86763
445.044
544.244
-22.7764
514.672
517.671
-42.2897
533.979
473.393
-11.6582
538.243
433.246
17.7013
550.712
411.301
7.58072
572.49
400.545
-5.13614
593.849
389.192
-6.51989
609.934
367.587
-6.6936
618.611
349.348
-6.74162
327.67
-0.794402
-130.328
355.282
-7.17331
-96.8824
388.263
-6.7071
-96.0544
411.702
-5.98774
-96.8092
480.556
-4.63877
-60.9106
550.954
-9.53576
-2.44617
583.707
-11.1848
69.7353
605.915
-10.3076
169.476
623.474
-10.1868
267.694
617.963
0.38616
345.335
582.468
-9.42722
411.453
553.197
-25.5591
464.084
525.024
-12.1267
492.785
490.907
13.0669
513.861
462.627
8.05831
533.94
446.807
3.24193
553.355
436.157
-0.992512
567.842
422.919
1.54246
579.618
399.946
7.65417
594.527
387.979
-1.3316
366.172
-1.64097
-110.447
368.187
-4.67961
-76.9644
388.629
-3.41115
-75.7798
409.197
-2.77884
-81.7156
472.71
-5.16605
-53.6298
541.627
-8.94489
0.239106
580.618
-10.6749
68.4489
605.234
-10.773
159.948
622.72
-7.76149
250.892
624.225
-4.34057
326.253
600.793
-12.4079
382.16
563.196
-8.52092
420.618
528.233
13.6136
454.838
507.517
6.59425
496.67
498.68
0.807313
522.649
483.042
-0.732817
533.047
459.626
-5.9802
539.636
440.913
3.34705
550.608
421.158
6.63781
569.503
419.573
-2.74675
403.331
-2.88954
-97.1362
380.516
-3.68895
-64.7034
393.992
-1.66576
-58.3773
403.793
-0.277899
-61.1232
453.97
-1.76508
-39.875
525.996
-8.03992
4.05911
575.131
-8.89551
67.5968
602.696
-10.2839
149.211
622.3
-8.4295
234.795
627.317
-9.11313
305.448
610.514
-10.7867
360.972
575.551
1.79933
402.117
542.253
7.78946
436.177
524.228
3.71258
475.806
518.474
-1.39515
497.623
498.684
-2.10823
506.275
470.651
0.548921
516.961
453.273
8.41444
530.733
438.946
13.3752
553.711
446.136
8.46704
433.793
3.84921
-91.0981
391.53
-4.09144
-54.2505
402.536
-1.88004
-45.7228
404.511
-1.19224
-41.0532
432.507
2.48704
-22.521
497.094
-8.05451
13.1573
562.516
-9.52313
67.8408
597.168
-8.37565
139.409
619.332
-8.32058
218.472
630.319
-10.5624
285.267
618.991
-3.18043
344.854
589.767
2.58183
395.171
566.735
-0.210942
429.01
545.939
0.647011
452.984
527.314
-6.65427
466.937
504.341
-0.311359
479.644
481.008
6.20276
495.243
469.71
5.20548
515.416
459.833
10.5995
538.667
462.537
9.69836
450.695
6.72595
-83.1565
403.951
-5.2132
-55.5939
412.784
-3.44238
-36.1732
411.497
-1.72894
-22.6426
425.729
-2.78906
-7.20123
464.441
-3.9332
28.3155
534.649
-8.24644
72.7028
584.215
-9.13205
133.466
613.2
-7.57318
205.046
628.617
-8.80209
270.101
627.809
-1.83647
328.851
604.09
3.25264
384.068
588.738
-1.07669
417.665
562.503
3.85833
436.734
534.385
4.0787
449.981
513.528
8.52572
466.528
494.758
5.83803
486.083
487.18
0.730709
506.977
479.964
11.0067
523.392
471.439
15.6944
460.524
11.8093
-77.5331
418.722
-5.54748
-54.7121
426.193
-4.57432
-34.2719
423.304
-2.63044
-15.0759
428.08
-8.09448
7.01666
451.681
-2.10986
40.0168
498.96
3.32006
81.0537
557.935
-4.96691
132.055
601.622
-6.49587
193.907
622.24
-6.60568
253.294
629.603
-5.19311
311.521
619.308
-7.37206
361.993
605.092
-2.75545
395.41
575.21
10.0464
418.728
546.213
10.028
437.818
526.991
15.1818
458.088
513.021
10.7243
478.269
506.069
10.218
492.185
492.895
22.2
506.232
478.646
23.1297
470.51
14.6184
-71.2872
435.197
-6.58949
-50.5839
441.605
-5.79198
-33.902
438.303
-2.83764
-9.79567
437.879
-10.9545
17.8609
452.459
-8.89559
51.6297
487.566
-1.4853
95.1647
521.126
6.90649
140.013
576.11
2.96039
193.158
608.796
-0.90336
243.176
624.994
-2.65646
293.938
623.642
-5.31744
344.234
613.711
-1.28863
383.255
589.731
3.51977
416.76
565.045
3.87676
445.299
550.216
11.3175
463.568
536.505
9.9534
473.316
523.023
14.6763
479.729
507.229
22.3643
488.398
487.708
21.2894
483.522
17.5943
-65.5581
-8.95868
-45.7582
-8.22526
-30.2565
-4.19391
-5.73521
-13.3342
21.1353
-12.1622
54.7279
-10.1757
97.3592
-3.39213
140.945
3.56478
193.23
2.93798
237.952
1.607
281.263
2.85603
322.268
4.33587
361.187
3.77492
399.388
3.82442
431.886
7.4462
451.349
9.35561
462.532
14.2913
472.268
16.1466
486.392
19.0935
19.3248
-172.806
-171.333
1.52478
-140.191
-182.287
3.70625
-129.236
-189.904
5.36057
-106.674
-245.671
3.6493
-56.279
-305.533
0.119393
6.3021
-306.061
-0.861061
72.7063
-302.364
-1.76035
149.247
-306.41
-0.682389
222.16
-293.061
-2.49165
276.371
-249.777
-0.315279
316.354
-198.735
2.33734
342.066
-160.233
1.96079
359.073
-134.079
0.480422
371.886
-116.14
1.90586
384.203
-101.558
2.38479
395.289
-94.4279
1.85811
407.406
-86.3415
0.255823
421.783
-81.0396
-0.529178
438.089
-75.217
-2.00631
-69.8257
-4.52037
-183.366
-139.33
3.84668
-155.058
-151.671
6.80416
-173.984
-201.483
11.0971
-142.675
-249.666
3.16015
-70.5767
-305.378
-0.705971
1.31331
-302.701
-1.30221
75.5273
-298.78
-1.52142
173.24
-302.505
-1.17449
272.707
-275.026
-0.922764
337.17
-204.744
0.513861
371.881
-143.571
3.18562
389.19
-110.116
4.20169
394.639
-95.8765
1.56901
395.314
-78.1338
3.49637
399.824
-65.6185
4.27046
407.482
-54.8029
3.38314
417.07
-55.5535
1.34535
429.837
-55.5731
0.0558628
444.882
-52.4784
-1.29099
-48.7483
-3.80388
-186.943
-127.29
5.51948
-202.748
-169.764
8.84072
-222.023
-221.976
9.82122
-170.736
-64.5846
0.195127
-69.8454
-64.9705
-69.7453
-74.2145
-74.2717
0.203451
-75.0077
-74.4851
-75.4202
4.21104
-74.5688
-1.27807
-73.9517
-74.7127
-74.0292
82.0382
-73.5864
-0.618965
-73.5643
-73.8346
-73.6324
187.409
-73.5995
-1.70172
-73.7229
-73.6986
-73.6466
299.521
-66.0654
0.913158
-51.2454
-65.381
-50.4382
360.066
-171.059
3.29456
385.112
-138.57
1.25658
400.688
-113.087
2.96894
413.602
-92.4189
1.04798
414.682
-70.9353
3.14147
410.273
-53.9862
4.56157
410.032
-43.1114
2.55374
416.319
-34.9586
1.31063
427.566
-30.9364
0.696153
441.579
-32.4717
1.36437
-31.0522
0.215612
-242.532
-104.458
4.43645
-246.776
-141.577
2.58998
-64.6239
-169.608
-1.67706
-68.5574
-65.1814
-68.6958
0.348725
-61.4352
-61.1425
0.071074
0.633484
-30.9628
-0.00854326
51.6695
-18.8503
-19.1466
-18.893
-19.2034
0.813779
19.8119
-8.31542
-0.421014
-18.4248
-18.709
-18.3944
-18.7383
1.10817
-1.1912
10.6268
-0.681531
-18.495
-18.2007
-18.4508
-18.2431
0.650267
-21.9469
32.9257
-0.181785
-18.6862
-18.2687
-18.6291
-18.331
-56.7056
0.109571
71.0088
-61.5911
0.794947
476.09
-131.165
-2.98553
-94.7463
-113.683
-94.7896
-116.815
493.046
-121.95
-1.52524
494.738
-108.462
1.64198
492.332
-95.044
0.187034
485.37
-79.8625
-1.63401
468.825
-59.4775
1.29416
447.459
-39.2509
5.20686
436.58
-20.8525
1.30922
436.227
-11.7932
-4.14864
443.534
-6.13218
-6.23572
-4.41507
-9.08257
-304.192
-56.4802
-1.03936
-304.905
-71.5859
-2.83568
-73.0748
-75.4566
-2.70103
-74.8901
-73.5927
-75.0825
1.06559
-32.0472
-1.13154
50.9819
-18.3495
-17.7011
-18.2381
-17.7525
0.42554
5.37486
29.4841
-7.02465
-0.324678
587.226
-76.6852
-7.18518
-141.427
-146.713
-144.452
-149.754
586.093
-73.3013
-7.67121
581.659
-68.4692
-6.40224
573.743
-62.5025
-6.87073
563.664
-55.6035
-6.8526
549.537
-42.9996
-5.86757
523.344
-25.2161
-6.12621
490.106
-8.19354
-4.28352
471.014
8.44924
-0.625896
468.085
21.3789
-6.1792
23.4421
-8.52237
-305.931
5.64378
-1.14964
-302.6
0.639758
-1.97407
-74.0725
3.67624
-2.73439
-73.5561
-74.4816
-73.8707
0.983206
20.157
-8.37388
-0.653344
-18.3818
-18.6116
-18.32
-18.6501
0.62735
4.04388
37.0781
-3.05171
-0.536373
610.148
-6.16193
-6.54041
-149.625
-151.455
-152.594
-154.435
611.208
-7.21913
-6.95887
612.011
-7.25663
-7.22676
611.918
-5.40809
-7.57125
609.925
-2.05593
-7.95197
605.1
2.11181
-6.48272
594.639
9.34677
-6.11785
571.084
25.1671
-8.65263
533.119
41.1048
0.927219
512.437
53.2953
4.07874
57.3141
-6.35959
-302.215
71.6386
-2.92109
-298.797
74.1478
-2.78828
-73.5504
80.7627
-1.83558
-73.5657
-73.7702
-73.7853
1.38776
-1.19331
10.6634
-0.900699
-18.4837
-18.1831
-18.4399
-18.2199
0.594941
0.207389
37.9685
0.753764
-0.51683
629.743
74.535
-6.4568
-154.282
-156.311
-157.373
-159.509
631.633
72.0179
-6.46271
633.629
68.843
-6.95756
635.291
67.8219
-7.54619
635.634
66.8468
-8.20632
634.293
66.7734
-8.60836
630.664
66.9193
-7.07765
621.627
70.434
-6.2961
601.166
78.5983
-6.67219
564.765
94.3196
5.6038
100.892
1.52336
-306.159
148.359
-1.71197
-302.364
172.151
-2.18842
-73.5293
186.854
-2.62069
-73.7058
-73.8291
-74.0787
1.06759
-21.8864
32.7669
-0.61045
-18.6897
-18.2746
-18.6084
-18.323
0.546697
-4.09579
38.9937
5.62205
-0.444709
645.671
205.308
-4.6097
-158.34
-159.1
-161.586
-162.587
648.976
191.482
-5.28232
652.615
181.123
-6.90895
654.999
169.291
-8.18345
655.699
160.46
-6.61769
656.341
151.585
-6.5162
654.93
141.966
-7.00519
650.786
135.467
-5.66996
642.488
132.401
-5.51778
623.313
139.086
0.820723
144.46
4.91555
-293.705
221.816
-4.06993
-276.224
271.761
-1.84864
-66.0913
297.621
0.444082
-51.5928
-66.5755
-51.6962
-56.3581
1.95624
-61.5191
70.4768
-0.48174
0.835409
5.50488
-7.28886
29.6164
-0.669286
0.624489
4.09614
-3.06239
36.9444
-0.524218
0.600009
0.146477
0.841179
37.7898
-0.493213
0.505071
-4.20869
5.7195
39.0107
-0.407979
-12.3997
-10.8094
1.83182
137.599
134.568
-2.16003
-17.419
-12.2242
-17.4199
-17.7949
-11.1225
-17.9014
620.586
374.915
-5.14398
-148.485
-132.927
-149.739
-132.907
629.341
327.738
-12.592
635.774
301.284
-1.93142
643.462
273.252
5.34832
652.194
255.671
0.453544
657.353
240.395
-6.6871
661.466
224.618
-8.21046
662.481
211.39
-7.11018
658.457
199.365
-5.38321
649.682
194.741
-1.05645
196.404
3.48098
-251.437
277.005
-3.09941
-207.519
337.74
-2.17306
-174.14
360.115
0.459304
-132.283
472.405
-2.602
-94.1539
-113.265
-94.2329
-114.039
-76.492
581.115
-5.20833
-140.156
-145.367
-141.548
-147.179
-4.09868
603.975
-4.43802
-148.662
-150.477
-150.601
-152.536
77.3946
623.303
-4.3475
-153.281
-155.29
-155.402
-157.528
212.258
640.436
-3.13046
-158.068
-160.201
-160.191
-161.752
371.638
614.362
-7.30171
-147.802
-131.795
-151.118
-136.639
516.384
522.062
-20.7459
575.395
437.066
11.1286
591.584
390.026
12.5711
606.931
358.5
-3.05964
622.789
333.812
-10.6206
634.918
313.155
-9.28659
645.847
293.367
-2.31138
655.748
277.897
2.03046
661.401
262.501
-3.9817
660.893
248.183
-3.79743
241.959
0.19817
-201.89
317.14
-1.35471
-149.707
373.22
-1.38225
-145.654
386.357
-1.44818
-126.477
491.747
-1.40996
-72.9091
581.258
-4.38171
-4.80364
604.632
-4.66324
74.7813
624.787
-4.08973
194.844
642.401
-3.55919
328.369
621.627
-13.0438
432.557
570.089
9.37821
513.12
515.838
22.0504
567.938
462.781
-16.258
577.905
428.703
-28.307
589.655
398.619
-9.77741
603.247
376.164
7.26297
615.854
355.579
6.57983
629.301
338.267
3.94568
644.337
319.979
-7.49135
652.27
302.787
-9.79876
287.042
0.415904
-162.652
342.287
-1.83914
-115.026
389.703
0.80622
-122.551
401.831
-0.326125
-113.818
494.414
0.248386
-67.9541
577.812
-2.94526
-5.21662
605.133
-4.69696
70.8876
626.797
-4.52224
182.895
645.123
-4.61631
296.978
631.382
-3.30403
383.816
584.661
8.15465
454.985
560.109
-15.1865
525.353
526.255
-46.2705
553.811
487.67
-19.164
559.528
445.319
21.0216
570.099
420.92
18.0188
591.062
404.384
-1.80547
610.62
392.599
-8.7614
628.413
372.042
-6.49097
641.624
356.494
-3.42284
330.62
2.44783
-135.54
358.442
-3.41563
-102.948
393.362
-2.48036
-102.433
415.399
-1.31143
-100.418
492.583
-0.0521409
-61.809
570.463
-3.89718
-3.8356
605.071
-4.79448
68.7777
628.711
-4.8267
171.096
646.602
-5.26587
272.222
641.322
2.64192
353.514
603.616
-5.65086
418.937
568.292
-27.6248
480.45
543.44
-17.2477
518.703
514.952
20.3225
537.373
479.924
19.4266
551.333
457.266
0.813369
566.776
439.92
-5.63592
586.135
430.893
-3.06011
600.938
408.042
8.63699
616.191
394.919
6.57854
369.925
2.8229
-116.497
370.874
-1.9903
-82.208
392.917
-1.21955
-80.2423
416.534
-0.696271
-86.0916
486.357
-0.579807
-56.0121
560.99
-4.30027
-0.908717
603.349
-4.90812
67.7871
629.213
-5.20327
161.58
646.724
-3.71849
254.881
650.22
-0.821146
330.09
621.248
-11.1854
390.033
582.284
-10.2704
435.753
547.351
17.2897
476.383
526.868
17.8531
515.132
512.858
-6.76513
539.756
495.953
-7.92836
551.256
471.342
-6.00283
560.696
453.742
4.41009
570.487
431.095
13.6311
586.484
424.867
3.27415
406.983
-1.46194
-101.305
383.092
-1.1384
-69.7164
397.393
0.251072
-61.6657
410.322
0.6715
-65.6433
469.785
1.13775
-44.5754
547.96
-3.6141
2.58554
599.308
-3.71455
67.6594
628.018
-5.26653
152.123
647.581
-3.73167
238.971
653.577
-6.40661
309.389