/*--------------------------------*- C++ -*----------------------------------*\
  =========                 |
  \\      /  F ield         | OpenFOAM: The Open Source CFD Toolbox
   \\    /   O peration     | Website:  https://openfoam.org
    \\  /    A nd           | Version:  9
     \\/     M anipulation  |
\*---------------------------------------------------------------------------*/
FoamFile
{
    format      ascii;
    class       volScalarField;
    location    "0.0055";
    object      rho;
}
// * * * * * * * * * * * * * * * * * * * * * * * * * * * * * * * * * * * * * //

dimensions      [1 -3 0 0 0 0 0];

internalField   nonuniform List<scalar> 
9720
(
10.1219
10.0492
10.2049
8.82611
8.0828
7.72551
7.31125
6.45933
5.38723
4.49199
3.76467
3.28331
3.10309
3.04382
3.04668
3.09112
3.16857
3.24231
3.2945
3.29466
10.0507
9.90752
10.1178
7.35015
7.02866
7.45268
7.26339
6.20836
4.52172
3.22244
2.47736
2.22606
2.29548
2.4392
2.59255
2.71644
2.83639
2.93065
2.98397
2.97786
10.1477
10.1758
7.48781
5.61233
6.49985
7.48908
7.45312
6.16499
3.80416
2.30803
1.83026
1.87021
2.00182
2.26321
2.6284
2.88396
3.02662
3.13089
3.16996
3.13831
8.80871
7.32094
5.59847
4.66281
5.43339
7.5913
7.90608
6.90698
3.74228
1.25258
1.33795
1.50697
1.72283
1.99878
2.40533
2.84916
3.23781
3.43242
3.42243
3.33146
7.99948
6.86983
6.29498
5.33078
1.02137
1.33425
1.43705
1.55154
1.67858
1.84133
2.09087
2.52749
3.09239
3.52923
3.64491
3.59181
7.56323
7.24184
7.26532
7.38629
1.71941
1.76257
1.75607
1.76288
1.78782
1.84355
1.95048
2.15264
2.53754
3.08676
3.51912
3.60675
7.14053
7.05066
7.22745
7.70504
1.93834
1.81085
1.79031
1.76589
1.7527
1.76351
1.79682
1.88309
2.0792
2.45075
2.97802
3.40513
6.31008
6.0195
5.951
6.6984
1.65783
1.30786
1.36473
1.40499
1.44301
1.47852
1.52341
1.59418
1.71651
1.94221
2.32592
2.95998
5.25328
4.3617
3.62652
3.42718
0.947246
1.69118
1.87323
1.58423
0.261857
0.410126
0.629682
0.821247
0.963719
1.07276
1.16159
1.24136
1.34053
1.48905
1.72597
2.29509
4.37651
3.11735
2.23321
1.23582
1.31523
1.72162
1.74327
1.27758
0.445293
0.199833
0.256148
0.388528
0.546367
0.69906
0.837745
0.950223
1.04616
1.17013
1.3359
1.79112
3.6653
2.40152
1.80821
1.33348
1.42516
1.70893
1.72437
1.33858
0.668558
0.272152
0.188993
0.210244
0.291918
0.425254
0.569929
0.696338
0.806584
0.916736
1.05176
1.42609
3.20435
2.17648
1.84911
1.51012
1.5451
1.71816
1.70209
1.37384
0.856001
0.423226
0.216673
0.215469
0.235633
0.291029
0.381353
0.48993
0.60639
0.725
0.837135
1.13673
3.04422
2.25329
1.97204
1.72333
1.67393
1.74738
1.70477
1.41201
0.990407
0.590127
0.314356
0.241024
0.244255
0.252844
0.286204
0.360119
0.468897
0.590137
0.684648
0.914319
3.0004
2.40665
2.22408
1.9898
1.83301
1.80468
1.72189
1.45079
1.0927
0.743167
0.463061
0.309754
0.256915
0.2557
0.271791
0.313222
0.391706
0.489057
0.564342
0.744989
3.00366
2.56974
2.58561
2.37533
2.07059
1.91366
1.76411
1.50008
1.17748
0.878073
0.613743
0.411044
0.300204
0.274889
0.283813
0.313754
0.352812
0.412148
0.475091
0.629971
3.04735
2.69081
2.85391
2.8034
2.48078
2.11562
1.86002
1.57688
1.2564
0.986344
0.738331
0.524227
0.383778
0.325291
0.316759
0.325912
0.349821
0.386738
0.436145
0.568431
3.12157
2.80617
2.99478
3.18076
3.025
2.49524
2.06116
1.70498
1.35716
1.08075
0.846742
0.643362
0.499199
0.414146
0.367255
0.354407
0.362715
0.391964
0.438216
0.548157
3.18931
2.89446
3.09353
3.37413
3.45172
3.02944
2.43231
1.93569
1.50954
1.20499
0.955816
0.764061
0.624887
0.518978
0.436362
0.398529
0.399782
0.417964
0.452091
0.538012
3.2327
2.93864
3.12277
3.36733
3.58022
3.44904
2.93604
2.31648
1.74934
1.37253
1.09197
0.879184
0.724052
0.598722
0.503413
0.452467
0.451452
0.459529
0.480559
0.542391
3.22979
2.92981
3.08966
3.28212
3.53295
3.54154
3.34558
2.92559
2.30385
1.82196
1.46523
1.18173
0.959939
0.786349
0.664742
0.595365
0.572067
0.557497
0.556925
0.579355
9.77394
9.71163
9.76262
8.31336
7.59863
7.34597
6.98696
6.18091
5.14407
4.27501
3.56592
3.08829
2.90454
2.86072
2.85951
2.90139
2.97989
3.05948
3.12002
3.1211
9.73342
9.61789
9.53077
6.84469
6.64241
7.12523
6.98875
5.98647
4.33565
3.06312
2.34104
2.07044
2.13163
2.26672
2.41939
2.53929
2.66164
2.76306
2.83055
2.82825
9.73972
9.72679
6.75234
5.1932
6.26423
7.2744
7.2101
5.97116
3.6337
2.16807
1.70995
1.74615
1.85789
2.08502
2.41742
2.68911
2.8429
2.95781
3.01521
2.99294
8.36292
6.85735
5.17007
4.31298
5.44145
7.33362
7.64031
6.67323
3.60384
1.15935
1.23806
1.39558
1.59296
1.84424
2.20649
2.62374
2.99812
3.24026
3.24966
3.18501
7.55812
6.49675
6.00854
4.99092
0.967557
1.24519
1.32881
1.42703
1.54224
1.69045
1.91126
2.28692
2.8214
3.25607
3.4573
3.42988
7.18806
6.90804
7.03972
7.12994
1.60486
1.64874
1.62297
1.62249
1.63669
1.67987
1.76944
1.93834
2.26683
2.78277
3.22865
3.41453
6.81758
6.77439
7.00102
7.45047
1.80175
1.68765
1.6577
1.62747
1.60325
1.60906
1.63445
1.70273
1.85824
2.17746
2.65663
3.14366
6.02193
5.80535
5.78875
6.49131
1.54481
1.21739
1.26021
1.28813
1.31634
1.34552
1.38181
1.44013
1.53949
1.72304
2.04695
2.66338
5.00065
4.1854
3.49856
3.38069
0.934429
1.58942
1.75265
1.47457
0.239005
0.370322
0.571188
0.74363
0.867786
0.962004
1.04433
1.11825
1.2048
1.32984
1.52203
2.02867
4.14883
2.95248
2.09867
1.15239
1.23704
1.61954
1.63067
1.18532
0.40033
0.172449
0.2253
0.34555
0.485764
0.619354
0.742242
0.847267
0.93482
1.04256
1.17964
1.57359
3.45835
2.24791
1.66546
1.23364
1.32429
1.59137
1.60472
1.23621
0.602705
0.236484
0.157633
0.174949
0.247395
0.361989
0.487536
0.609784
0.716134
0.816508
0.929729
1.24976
3.00324
2.00566
1.69912
1.38948
1.42076
1.59186
1.58003
1.26393
0.770707
0.370063
0.180928
0.176304
0.191606
0.238918
0.322667
0.427389
0.536622
0.64095
0.735018
0.994736
2.84665
2.08012
1.80591
1.57768
1.52983
1.607
1.56652
1.2913
0.891516
0.521006
0.266335
0.195246
0.198452
0.210858
0.243801
0.310317
0.406102
0.509958
0.594579
0.803838
2.82024
2.23638
2.0391
1.8128
1.66796
1.64865
1.57449
1.31974
0.984095
0.660785
0.395772
0.253719
0.213705
0.214396
0.226311
0.258736
0.323306
0.415472
0.494558
0.662651
2.82125
2.40257
2.3805
2.1644
1.87551
1.73597
1.60301
1.3565
1.06373
0.786228
0.531789
0.35017
0.256147
0.229506
0.234854
0.259148
0.296548
0.358586
0.420966
0.561107
2.85844
2.51552
2.66036
2.58694
2.23965
1.90263
1.67472
1.41767
1.13513
0.888388
0.656391
0.461684
0.332263
0.270894
0.262515
0.272691
0.298972
0.338365
0.382894
0.498915
2.92722
2.62515
2.80653
2.95413
2.77077
2.23275
1.83399
1.52151
1.22011
0.972066
0.759585
0.573628
0.434946
0.345189
0.30842
0.304331
0.314442
0.342985
0.383258
0.477322
2.99663
2.71635
2.91066
3.18883
3.20382
2.74478
2.16045
1.71316
1.34637
1.07773
0.857024
0.680119
0.543879
0.443916
0.38041
0.349784
0.350728
0.365817
0.392193
0.469471
3.04477
2.77066
2.9534
3.19463
3.39977
3.17763
2.62728
2.04368
1.54339
1.21558
0.970529
0.777309
0.634353
0.52849
0.448365
0.400402
0.394338
0.398842
0.415502
0.476328
3.0426
2.76497
2.92776
3.12769
3.36925
3.35707
3.09517
2.64391
2.04611
1.60944
1.29303
1.04239
0.851623
0.704552
0.595761
0.525807
0.497981
0.485845
0.488961
0.516936
9.68357
9.72496
9.70554
8.0623
7.31583
7.15031
6.83557
6.0503
5.03161
4.17195
3.4739
2.98907
2.79566
2.76818
2.78149
2.82379
2.89781
2.97748
3.04182
3.0455
9.75392
9.77703
9.08339
6.52065
6.41339
6.95862
6.85465
5.86746
4.24797
2.98301
2.28982
2.0023
2.05398
2.17726
2.3353
2.46455
2.58894
2.69407
2.77039
2.77193
9.59844
9.38647
6.122
4.90748
6.08614
7.11658
7.0601
5.83992
3.54079
2.09452
1.67453
1.71795
1.81173
2.00104
2.29515
2.58955
2.76548
2.88648
2.95427
2.93816
8.01488
6.4493
4.80704
4.01965
5.31455
7.13368
7.45225
6.50367
3.40548
1.09592
1.17844
1.34754
1.54614
1.78951
2.13014
2.54322
2.90458
3.17572
3.19924
3.14225
7.22335
6.22886
5.84156
4.85322
0.885101
1.17513
1.24487
1.33572
1.45547
1.61087
1.82492
2.16877
2.68887
3.144
3.40835
3.39401
6.97746
6.7451
6.8953
6.96618
1.51861
1.56604
1.53865
1.53873
1.55297
1.592
1.67072
1.81635
2.10189
2.60999
3.10362
3.37583
6.67287
6.66672
6.88693
7.26823
1.70185
1.5961
1.56677
1.54289
1.52404
1.52977
1.55148
1.60597
1.72959
2.0029
2.46309
3.03333
5.89696
5.72209
5.72386
6.34975
1.45194
1.14907
1.19258
1.21819
1.2459
1.2785
1.31335
1.36351
1.44369
1.58962
1.86238
2.48296
4.89291
4.13126
3.47716
3.34714
0.874933
1.50568
1.65173
1.38881
0.213167
0.344975
0.531441
0.696002
0.822113
0.912611
0.992995
1.06422
1.14082
1.24489
1.39972
1.86045
4.03803
2.8661
2.01527
1.06655
1.16691
1.53846
1.54501
1.1034
0.349037
0.149864
0.201434
0.318478
0.454094
0.584073
0.701099
0.805557
0.889059
0.978827
1.09102
1.43768
3.35577
2.17627
1.59153
1.13504
1.23352
1.51091
1.52057
1.15462
0.535414
0.206261
0.132138
0.147124
0.215784
0.329347
0.453847
0.570615
0.674111
0.768451
0.86391
1.13973
2.89502
1.91844
1.64103
1.29204
1.31607
1.51148
1.49924
1.18376
0.69697
0.326707
0.151169
0.142146
0.155691
0.205247
0.286685
0.387178
0.493981
0.597388
0.682965
0.9087
2.72739
1.9883
1.73748
1.48414
1.42336
1.52561
1.48783
1.21067
0.818744
0.465638
0.227276
0.158211
0.162487
0.175405
0.20891
0.271592
0.36114
0.468138
0.551476
0.738144
2.71432
2.13273
1.9409
1.71561
1.56455
1.56405
1.49635
1.24181
0.908656
0.598969
0.348447
0.215797
0.177823
0.180299
0.192671
0.221873
0.283165
0.374967
0.455205
0.610317
2.72862
2.31105
2.2571
2.04947
1.76277
1.63989
1.52016
1.2762
0.990939
0.722092
0.481751
0.307409
0.219411
0.19521
0.201015
0.22401
0.260125
0.321074
0.383271
0.512072
2.76973
2.44111
2.57855
2.48969
2.09169
1.78076
1.57524
1.3288
1.06433
0.831402
0.60659
0.416661
0.291922
0.232515
0.227908
0.23845
0.262383
0.299818
0.34225
0.450694
2.83991
2.55937
2.75766
2.86803
2.62251
2.06261
1.69986
1.41528
1.14355
0.916177
0.712164
0.529318
0.390314
0.305442
0.272145
0.266738
0.275933
0.303707
0.342956
0.435686
2.91218
2.65661
2.8717
3.14887
3.11195
2.56913
1.97635
1.57087
1.25192
1.00626
0.805002
0.636285
0.503914
0.406562
0.343114
0.30928
0.309828
0.325296
0.356512
0.437008
2.96576
2.71742
2.91691
3.17177
3.37602
3.06461
2.43326
1.85371
1.4126
1.12036
0.901567
0.724644
0.592332
0.490893
0.410647
0.356501
0.353326
0.362281
0.383331
0.445626
2.96583
2.71253
2.88925
3.10618
3.35235
3.32888
2.991
2.46941
1.87618
1.4719
1.18398
0.95821
0.787242
0.652441
0.546601
0.474504
0.453792
0.450593
0.455596
0.483873
9.69076
9.75704
9.61972
7.84618
7.12968
7.0543
6.76966
5.98998
4.95239
4.0945
3.41369
2.93896
2.74658
2.73434
2.75398
2.80308
2.87746
2.95576
3.01526
3.01371
9.80702
9.86063
8.55134
6.25968
6.27182
6.88945
6.82562
5.82798
4.18253
2.8974
2.22123
1.95736
2.01737
2.14834
2.31193
2.44968
2.57968
2.68689
2.75947
2.75686
9.56965
8.9525
5.66342
4.69687
5.9695
7.04445
7.01865
5.79655
3.48203
2.01072
1.61345
1.67311
1.78187
1.97485
2.26709
2.58038
2.77022
2.88939
2.95303
2.9324
7.77225
6.16487
4.61436
3.87534
5.05673
7.01648
7.3539
6.40841
3.21721
1.0304
1.10361
1.27912
1.48846
1.73726
2.09187
2.53705
2.90778
3.17821
3.20889
3.14333
7.00131
6.09403
5.80606
4.96622
0.857097
1.14406
1.20837
1.28709
1.39485
1.54324
1.75167
2.0842
2.59911
3.10428
3.41195
3.41089
6.87395
6.68767
6.85835
6.86348
1.46722
1.52867
1.50425
1.50067
1.51104
1.54309
1.61065
1.74045
1.98408
2.45396
3.02939
3.38041
6.60851
6.6519
6.85104
7.16501
1.63375
1.55204
1.52417
1.50082
1.47925
1.48213
1.49711
1.53894
1.63878
1.85934
2.27926
2.94415
5.85199
5.70288
5.69694
6.2734
1.39321
1.10268
1.14539
1.17337
1.198
1.22848
1.26027
1.30275
1.3707
1.48927
1.70854
2.31439
4.85078
4.11196
3.4459
3.23665
0.88574
1.44854
1.59407
1.33856
0.190142
0.311979
0.490245
0.653763
0.784638
0.875937
0.95396
1.02518
1.09615
1.18575
1.30944
1.71778
3.9975
2.83217
1.97194
1.02216
1.14194
1.50651
1.51468
1.07773
0.331987
0.133013
0.180695
0.291716
0.425866
0.555316
0.6704
0.776865
0.86965
0.950693
1.04007
1.33312
3.32299
2.15557
1.55686
1.08626
1.20629
1.48348
1.49216
1.1272
0.511624
0.189125
0.114856
0.130542
0.195372
0.30511
0.428148
0.549625
0.658698
0.753449
0.832386
1.06673
2.84956
1.88653
1.61718
1.24716
1.28299
1.48368
1.47286
1.15814
0.670427
0.307175
0.136019
0.116316
0.129072
0.178091
0.263658
0.365472
0.47225
0.58093
0.663024
0.861231
2.65303
1.94127
1.71503
1.44724
1.38286
1.49546
1.45965
1.18378
0.793497
0.442744
0.208135
0.132228
0.134804
0.149063
0.182983
0.247321
0.335653
0.444499
0.534616
0.706761
2.63977
2.06559
1.89255
1.68176
1.51964
1.52836
1.46563
1.21568
0.881751
0.571355
0.323432
0.189726
0.152098
0.154435
0.17046
0.201
0.259773
0.351368
0.435067
0.583149
2.65936
2.23403
2.17066
2.00449
1.71211
1.59472
1.48401
1.24936
0.958273
0.689102
0.453828
0.283253
0.193002
0.172133
0.180021
0.20315
0.237037
0.295882
0.359586
0.48673
2.70362
2.37103
2.49098
2.42888
2.0146
1.7192
1.52691
1.29342
1.03078
0.800037
0.579093
0.39021
0.264043
0.208485
0.204915
0.214699
0.2359
0.270931
0.316055
0.424027
2.7739
2.49762
2.69489
2.80764
2.50307
1.95003
1.62573
1.36433
1.10486
0.892821
0.688267
0.499517
0.357948
0.276122
0.244976
0.238036
0.245704
0.273989
0.315867
0.410022
2.84869
2.60129
2.81441
3.09596
3.02508
2.40436
1.84269
1.48702
1.19932
0.972238
0.778595
0.608066
0.47085
0.374212
0.312321
0.27722
0.277601
0.295095
0.328817
0.413403
2.90783
2.67401
2.87769
3.15037
3.35889
2.98231
2.25652
1.71067
1.32823
1.06185
0.856531
0.68978
0.561362
0.460468
0.380876
0.326334
0.321876
0.33206
0.356115
0.424104
2.90674
2.6704
2.85657
3.08582
3.35863
3.33265
2.91138
2.31507
1.74148
1.36124
1.09735
0.892913
0.738309
0.612262
0.511108
0.438684
0.418655
0.42112
0.43061
0.46401
9.69125
9.78884
9.58051
7.67912
7.00387
6.99552
6.72334
5.94225
4.89459
4.03143
3.36501
2.89149
2.69038
2.69976
2.729
2.78573
2.86456
2.9473
3.01355
3.01219
9.83797
9.92116
8.29694
6.09627
6.23014
6.86983
6.81378
5.81403
4.14193
2.83581
2.17491
1.92197
1.98162
2.11833
2.29246
2.43736
2.57226
2.68471
2.76567
2.76421
9.5736
8.64689
5.45914
4.60258
5.99711
7.03808
7.01867
5.81203
3.44847
1.9486
1.56246
1.63443
1.74982
1.9474
2.24142
2.56624
2.77431
2.89453
2.95787
2.93529
7.64901
6.03207
4.53229
3.80347
5.08645
6.98775
7.34088
6.41259
3.22552
1.00525
1.07308
1.24413
1.45993
1.70959
2.05936
2.51618
2.90676
3.19437
3.23167
3.16163
6.91636
6.04952
5.77485
4.89937
0.874543
1.14001
1.20916
1.28862
1.38985
1.52841
1.72609
2.04181
2.54926
3.08652
3.42575
3.4359
6.83196
6.66783
6.86263
6.86018
1.45272
1.51422
1.49762
1.49822
1.50905
1.53876
1.59946
1.71823
1.93393
2.36156
2.97157
3.38293
6.58782
6.65715
6.86847
7.17
1.61133
1.53676
1.51659
1.49932
1.4794
1.48083
1.49186
1.52447
1.60813
1.79353
2.16698
2.86729
5.83176
5.7021
5.70857
6.2866
1.37424
1.08349
1.13179
1.16762
1.19367
1.22357
1.25289
1.2898
1.3502
1.45283
1.6362
2.20274
4.82537
4.09274
3.4162
3.19443
0.865534
1.45175
1.59563
1.33216
0.185764
0.299566
0.474441
0.638774
0.774612
0.870832
0.948521
1.01766
1.08319
1.16419
1.27062
1.63526
3.97616
2.81464
1.95029
1.00598
1.14687
1.51203
1.51837
1.07828
0.33112
0.126899
0.174351
0.283548
0.418245
0.547195
0.66175
0.768132
0.863706
0.941091
1.01989
1.27798
3.30517
2.14784
1.54805
1.06979
1.20788
1.48857
1.49515
1.12881
0.51026
0.184889
0.110611
0.127379
0.18685
0.294439
0.424635
0.545846
0.654638
0.750036
0.821073
1.02916
2.82598
1.87384
1.61049
1.2312
1.27782
1.48269
1.47844
1.1652
0.670682
0.305534
0.134432
0.102376
0.116319
0.170685
0.260434
0.363027
0.467146
0.574405
0.656121
0.837696
2.61849
1.92376
1.71179
1.43296
1.36911
1.49082
1.46257
1.19086
0.796875
0.444795
0.203644
0.120011
0.123313
0.138703
0.174129
0.239657
0.327146
0.438999
0.530571
0.693552
2.60907
2.04148
1.88032
1.66945
1.49909
1.51657
1.46485
1.2201
0.886796
0.572657
0.317641
0.181939
0.141793
0.144495
0.161215
0.192762
0.252979
0.346309
0.430416
0.574513
2.62777
2.19909
2.14039
1.99143
1.6873
1.5738
1.47623
1.24863
0.960925
0.686836
0.450305
0.277548
0.182556
0.162305
0.171429
0.195917
0.230911
0.289269
0.351546
0.474766
2.66978
2.33502
2.44734
2.40645
1.984
1.68908
1.50823
1.28344
1.0285
0.79458
0.572244
0.383389
0.252471
0.196705
0.197184
0.206964
0.224618
0.257087
0.302027
0.40933
2.73834
2.46327
2.6557
2.77886
2.45498
1.89814
1.59225
1.34255
1.0935
0.887035
0.679459
0.488528
0.342917
0.262441
0.235822
0.226155
0.232091
0.258072
0.301839
0.404997
2.81169
2.56742
2.77536
3.05787
2.96843
2.30852
1.77646
1.44609
1.17554
0.960401
0.770796
0.594487
0.457854
0.363485
0.301436
0.260686
0.25949
0.278788
0.320424
0.413686
2.87243
2.64206
2.84581
3.12726
3.32312
2.91148
2.14664
1.63327
1.285
1.03786
0.839489
0.674534
0.549876
0.448534
0.36672
0.307265
0.304146
0.321104
0.354645
0.428157
2.87251
2.64093
2.82564
3.06806
3.34473
3.30662
2.83059
2.20491
1.65758
1.30032
1.05168
0.858648
0.713014
0.591579
0.489535
0.417158
0.410272
0.418993
0.433259
0.468004
9.69162
9.78864
9.5767
7.65787
6.99037
6.99083
6.7189
5.94086
4.89218
4.02809
3.35991
2.88732
2.68507
2.69786
2.7321
2.79496
2.87745
2.95957
3.02496
3.02387
9.84753
9.92603
8.28432
6.07533
6.23669
6.87383
6.8141
5.81346
4.14094
2.83276
2.17055
1.91676
1.97506
2.11052
2.29071
2.44477
2.5854
2.69839
2.7769
2.77482
9.58826
8.62117
5.42998
4.58195
6.02625
7.04045
7.01739
5.81171
3.44705
1.94489
1.5612
1.63491
1.74768
1.93602
2.22934
2.56895
2.78879
2.91074
2.97197
2.94716
7.65173
6.01174
4.51095
3.76179
5.23963
6.95713
7.33504
6.42636
3.20723
1.00356
1.07142
1.24381
1.4568
1.70132
2.04738
2.50981
2.90845
3.19896
3.24218
3.17179
6.92187
6.03189
5.73768
4.735
0.834465
1.13125
1.19767
1.27497
1.37628
1.51393
1.70974
2.02289
2.53048
3.0737
3.42238
3.43867
6.83626
6.6631
6.85926
6.87345
1.44039
1.50567
1.48596
1.48513
1.49432
1.52259
1.58252
1.70106
1.9159
2.34325
2.96212
3.37892
6.59028
6.65426
6.8692
7.1931
1.59668
1.52938
1.50749
1.48963
1.46853
1.46922
1.47881
1.51
1.59223
1.77539
2.14682
2.85174
5.82544
5.69345
5.7039
6.29631
1.3585
1.08241
1.12887
1.16275
1.18747
1.21617
1.24552
1.2826
1.34233
1.44364
1.62416
2.1887
4.81937
4.08867
3.42257
3.26522
0.822363
1.44864
1.59392
1.33565
0.183957
0.306813
0.479409
0.641539
0.774605
0.87029
0.945044
1.01291
1.07865
1.15982
1.26568
1.62804
3.97627
2.81347
1.9523
1.00041
1.13362
1.50566
1.51686
1.07424
0.322099
0.1259
0.174223
0.284829
0.420651
0.548131
0.661203
0.765754
0.858737
0.936918
1.01537
1.27115
3.30734
2.14664
1.55209
1.06647
1.20078
1.4866
1.49722
1.12564
0.499446
0.182948
0.110108
0.127412
0.18823
0.296096
0.422833
0.541135
0.649429
0.744661
0.814381
1.02229
2.83075
1.87871
1.61587
1.23183
1.2766
1.48647
1.48186
1.16145
0.660905
0.301396
0.13305
0.10264
0.116306
0.168456
0.257067
0.359094
0.462607
0.569552
0.649952
0.828631
2.62739
1.93148
1.71929
1.43859
1.37491
1.49675
1.46694
1.18797
0.788983
0.438443
0.201782
0.119085
0.121454
0.136141
0.171339
0.237033
0.324584
0.43495
0.523745
0.684802
2.61655
2.05081
1.89092
1.67991
1.51172
1.52624
1.47001
1.21803
0.881176
0.567155
0.314763
0.177759
0.138761
0.141764
0.159256
0.190882
0.250094
0.342322
0.424832
0.568906
2.6327
2.20697
2.15491
2.01359
1.70513
1.58683
1.48335
1.24884
0.958037
0.683108
0.445469
0.27329
0.179707
0.160553
0.169757
0.193816
0.228723
0.286862
0.348494
0.47113
2.67287
2.34149
2.45978
2.43874
2.00791
1.70521
1.51741
1.28734
1.02915
0.790986
0.569303
0.380814
0.251178
0.195145
0.195135
0.204764
0.223073
0.255302
0.299896
0.406204
2.74039
2.46704
2.66308
2.80363
2.48533
1.91702
1.60371
1.34913
1.09732
0.885442
0.679729
0.488931
0.34327
0.260612
0.233892
0.224869
0.23075
0.256376
0.299787
0.40239
2.81336
2.56863
2.77909
3.06645
2.99087
2.33017
1.79267
1.4548
1.1818
0.962768
0.773213
0.59739
0.457711
0.361429
0.30037
0.259955
0.25867
0.277746
0.318804
0.411555
2.87023
2.63838
2.84083
3.12038
3.33358
2.91064
2.15245
1.64031
1.29167
1.04204
0.843586
0.677153
0.550546
0.449618
0.367993
0.307704
0.304265
0.320707
0.353663
0.426485
2.86884
2.63611
2.8208
3.06104
3.34522
3.31047
2.82397
2.19849
1.6585
1.30436
1.05477
0.861819
0.717631
0.597107
0.494197
0.419856
0.41103
0.419376
0.433222
0.467436
9.69239
9.75775
9.6012
7.78816
7.08686
7.04812
6.76348
5.98506
4.93894
4.0827
3.40868
2.93668
2.74233
2.73216
2.75721
2.81265
2.89329
2.97919
3.04391
3.04111
9.82334
9.88049
8.52181
6.22635
6.29012
6.90751
6.83491
5.83517
4.1676
2.87287
2.20744
1.94838
2.00867
2.13829
2.30572
2.4505
2.58823
2.70441
2.78593
2.78318
9.59285
8.92167
5.63212
4.67105
6.05875
7.05952
7.02817
5.81562
3.45839
1.97812
1.59101
1.65712
1.7675
1.95602
2.24294
2.56771
2.77593
2.89997
2.96866
2.95057
7.78603
6.13366
4.57776
3.78871
5.2735
6.95384
7.32304
6.41304
3.20887
1.01587
1.09219
1.26991
1.4792
1.72631
2.07209
2.51622
2.90284
3.18447
3.22338
3.15823
6.99459
6.04827
5.72671
4.73946
0.848748
1.12354
1.18935
1.26975
1.37854
1.52382
1.72644
2.04894
2.56181
3.08471
3.4099
3.41478
6.85619
6.65713
6.84636
6.86323
1.43332
1.49607
1.47281
1.47131
1.48213
1.51422
1.58047
1.70649
1.94214
2.40976
3.00088
3.37123
6.59886
6.63109
6.85047
7.17888
1.59157
1.51967
1.49453
1.47473
1.45569
1.45822
1.47195
1.51087
1.60542
1.81687
2.22965
2.90997
5.83003
5.67758
5.68256
6.28059
1.35506
1.08457
1.12873
1.157
1.18142
1.21228
1.24549
1.28847
1.35514
1.46922
1.67955
2.28022
4.82758
4.0756
3.40329
3.17872
0.835177
1.43651
1.58586
1.33615
0.180171
0.316497
0.493398
0.652761
0.780449
0.869789
0.945408
1.01635
1.08673
1.1746
1.29485
1.69614
3.99184
2.81997
1.95853
1.02092
1.13391
1.50229
1.51558
1.07405
0.319778
0.132062
0.181184
0.293885
0.427043
0.554572
0.668872
0.772583
0.863518
0.941295
1.02713
1.31354
3.32435
2.15411
1.56638
1.09029
1.19927
1.47754
1.4928
1.1237
0.497556
0.184827
0.114795
0.131067
0.196799
0.306934
0.431193
0.550686
0.654674
0.745045
0.822205
1.05191
2.85814
1.89875
1.6257
1.25768
1.27794
1.47726
1.47348
1.15426
0.657621
0.300133
0.13435
0.115314
0.128473
0.179231
0.267344
0.366797
0.470495
0.57735
0.655947
0.849591
2.66907
1.95861
1.72817
1.46238
1.38243
1.4897
1.45814
1.17894
0.784501
0.434984
0.204803
0.130354
0.133407
0.148558
0.183489
0.248423
0.336216
0.443245
0.531285
0.698741
2.6604
2.08936
1.9148
1.70601
1.52593
1.52425
1.46282
1.21013
0.875509
0.565692
0.319223
0.186239
0.15007
0.152461
0.168292
0.199245
0.258443
0.350449
0.432739
0.576581
2.67505
2.25483
2.20359
2.05021
1.72676
1.59387
1.47949
1.24325
0.954411
0.68483
0.448949
0.279909
0.189483
0.169121
0.177091
0.200938
0.235784
0.293971
0.355499
0.479925
2.71387
2.38686
2.51453
2.48637
2.04741
1.72291
1.52164
1.28696
1.0281
0.796142
0.575545
0.386393
0.260272
0.204023
0.202577
0.212936
0.233851
0.267146
0.311831
0.417756
2.77915
2.50586
2.70325
2.85026
2.55039
1.96009
1.62175
1.35741
1.10184
0.890884
0.686213
0.497866
0.355926
0.27116
0.242474
0.236159
0.242892
0.270601
0.312398
0.405541
2.85013
2.60354
2.8164
3.10525
3.05198
2.4217
1.84127
1.47963
1.19472
0.971731
0.780259
0.610528
0.470623
0.372545
0.310551
0.275067
0.275536
0.293715
0.327317
0.410112
2.90086
2.66635
2.87008
3.13484
3.35602
2.99375
2.25533
1.70317
1.32337
1.06192
0.859482
0.693031
0.564433
0.462749
0.381838
0.32659
0.322246
0.332604
0.35601
0.422239
2.89715
2.6605
2.84555
3.06843
3.34879
3.33082
2.9056
2.30544
1.73647
1.36057
1.09931
0.897245
0.744582
0.619242
0.518161
0.444543
0.422623
0.424347
0.432393
0.464019
9.6737
9.69469
9.65961
8.01601
7.29875
7.168
6.84779
6.05952
5.02043
4.16342
3.47644
3.00194
2.81173
2.78155
2.7967
2.83992
2.91316
2.99178
3.06006
3.06669
9.76339
9.76722
8.98498
6.51018
6.43906
6.99606
6.88868
5.89368
4.22655
2.9517
2.27173
2.0046
2.06139
2.18766
2.34617
2.47613
2.60032
2.70489
2.78551
2.79007
9.59759
9.40939
6.08258
4.91019
6.14361
7.14712
7.10028
5.87794
3.51846
2.05754
1.64777
1.69944
1.80133
1.99891
2.29445
2.59253
2.77133
2.89208
2.96454
2.95011
7.99082
6.38658
4.7548
3.89496
5.32369
7.04263
7.40478
6.48048
3.29017
1.0757
1.16068
1.3311
1.52849
1.77312
2.12011
2.54558
2.90671
3.17478
3.20373
3.14877
7.17491
6.15116
5.76443
4.76437
0.858203
1.15194
1.22425
1.31549
1.43363
1.58537
1.79734
2.14302
2.6693
3.1295
3.40396
3.39356
6.9322
6.68768
6.8625
6.8807
1.43891
1.53051
1.50753
1.50878
1.52398
1.56284
1.63985
1.7821
2.06542
2.57759
3.07805
3.36675
6.64635
6.63035
6.86949
7.20111
1.60184
1.55924
1.53512
1.51471
1.49632
1.50067
1.5197
1.5705
1.69029
1.96088
2.42068
3.00771
5.87018
5.69142
5.69937
6.30362
1.36378
1.11722
1.16317
1.19148
1.2215
1.25541
1.29041
1.34036
1.42012
1.56475
1.83368
2.45665
4.867
4.09181
3.42668
3.30175
0.835408
1.46313
1.61125
1.35266
0.200003
0.333261
0.517796
0.68334
0.809098
0.89935
0.980767
1.05376
1.13111
1.23444
1.38679
1.84485
4.02747
2.84801
1.99213
1.05634
1.16599
1.55158
1.56308
1.1158
0.3473
0.146903
0.198228
0.314436
0.448567
0.577547
0.696561
0.803614
0.887919
0.976042
1.08575
1.42995
3.3502
2.16627
1.58847
1.13252
1.23939
1.52318
1.53814
1.16577
0.53454
0.203305
0.130509
0.145411
0.213859
0.328532
0.455042
0.572965
0.675653
0.768395
0.863186
1.13866
2.89618
1.92088
1.6361
1.29782
1.3264
1.52324
1.51655
1.19368
0.699178
0.325744
0.149108
0.140437
0.154954
0.206888
0.289779
0.389606
0.49626
0.600766
0.686002
0.910202
2.73279
1.99381
1.7388
1.49666
1.43642
1.53641
1.50184
1.22078
0.824497
0.46644
0.22469
0.157148
0.162076
0.175288
0.209451
0.273877
0.36519
0.473101
0.555424
0.739232
2.72531
2.14405
1.95237
1.73777
1.58101
1.57371
1.50826
1.25297
0.915245
0.600633
0.347787
0.215657
0.177057
0.179082
0.191569
0.222033
0.285211
0.377654
0.456883
0.609804
2.73975
2.32232
2.28024
2.09196
1.78434
1.65002
1.52957
1.28791
0.996925
0.724146
0.482668
0.30778
0.217456
0.193579
0.199983
0.224178
0.260328
0.320546
0.381681
0.509126
2.78243
2.45376
2.59934
2.54009
2.12518
1.79225
1.58257
1.3397
1.07048
0.834722
0.608214
0.416308
0.290779
0.230426
0.227427
0.238276
0.261951
0.298095
0.339986
0.447256
2.85318
2.57421
2.77374
2.9114
2.6601
2.07361
1.70635
1.4242
1.15008
0.92106
0.714978
0.530243
0.391113
0.30383
0.270921
0.265502
0.274279
0.302004
0.341179
0.433595
2.92516
2.67113
2.88214
3.16929
3.14176
2.58118
1.9824
1.57712
1.25818
1.01157
0.808888
0.640181
0.507022
0.406365
0.342095
0.308053
0.308492
0.324628
0.356312
0.436089
2.9714
2.72542
2.92223
3.17811
3.39572
3.08362
2.44338
1.85834
1.41905
1.12577
0.90567
0.729177
0.595657
0.493236
0.412487
0.357083
0.35368
0.363114
0.384381
0.446012
2.96667
2.71666
2.89298
3.10739
3.36802
3.3502
3.00873
2.47782
1.88421
1.47735
1.18796
0.962765
0.791555
0.658459
0.552584
0.478963
0.457755
0.453808
0.458363
0.48535
9.7565
9.67867
9.76617
8.33086
7.63022
7.38813
7.0156
6.20912
5.16217
4.28979
3.58321
3.10767
2.92403
2.87535
2.86893
2.90577
2.97905
3.05673
3.12305
3.12963
9.72291
9.5889
9.4319
6.89609
6.71463
7.18479
7.03091
6.02191
4.35001
3.07006
2.35216
2.08516
2.1469
2.27885
2.42411
2.53656
2.65163
2.75037
2.82487
2.82891
9.67984
9.72832
6.71364
5.26216
6.33677
7.33435
7.25672
6.00675
3.64275
2.16905
1.71654
1.75229
1.86288
2.08812
2.40884
2.66344
2.81593
2.93318
2.99997
2.9846
8.27545
6.74649
5.07151
4.11467
5.42407
7.24561
7.56195
6.60357
3.50091
1.15649
1.23905
1.39949
1.59338
1.84724
2.21629
2.63314
2.99251
3.21622
3.22568
3.16776
7.47435
6.3881
5.92276
4.8398
0.894549
1.2195
1.29776
1.39463
1.5148
1.67093
1.90348
2.29639
2.82811
3.23566
3.43442
3.41242
7.12112
6.83026
6.98271
6.99307
1.50962
1.61658
1.58888
1.58773
1.6027
1.64696
1.73963
1.91519
2.25957
2.7831
3.2163
3.40074
6.77202
6.72397
6.96164
7.29938
1.69074
1.65479
1.6242
1.59421
1.57086
1.57655
1.60274
1.67414
1.83596
2.17003
2.65095
3.13294
5.97999
5.76815
5.76553
6.38644
1.44289
1.19756
1.23888
1.26662
1.2962
1.32634
1.36355
1.42367
1.52661
1.71755
2.04868
2.66366
4.96329
4.15435
3.48593
3.30517
0.858458
1.54
1.70355
1.43235
0.220597
0.372677
0.569422
0.739217
0.862487
0.956863
1.03936
1.11416
1.20305
1.33184
1.52907
2.03865
4.11948
2.92342
2.07495
1.13393
1.23375
1.63525
1.65331
1.19641
0.391224
0.170462
0.224911
0.346799
0.487429
0.621332
0.744998
0.851109
0.939158
1.04782
1.18671
1.58499
3.43454
2.21725
1.64923
1.21928
1.32186
1.60287
1.62466
1.24464
0.595256
0.233144
0.15673
0.174695
0.249226
0.366951
0.493911
0.615979
0.721464
0.82177
0.936631
1.26063
2.99354
1.99642
1.6832
1.38331
1.42222
1.60127
1.59664
1.27139
0.76758
0.36588
0.178504
0.176222
0.19249
0.241794
0.326142
0.431204
0.541414
0.64683
0.742757
1.00416
2.84499
2.07724
1.79654
1.5816
1.53695
1.61523
1.57918
1.29825
0.890372
0.5161
0.263539
0.195654
0.199038
0.210803
0.244053
0.312068
0.410342
0.516383
0.601427
0.809936
2.82729
2.24623
2.04417
1.82556
1.68055
1.65678
1.58618
1.32698
0.982238
0.656112
0.394599
0.254352
0.213373
0.214115
0.226835
0.260598
0.327048
0.420204
0.498873
0.665494
2.83708
2.42556
2.40663
2.19427
1.89202
1.74486
1.61349
1.36414
1.06193
0.783315
0.531839
0.350003
0.255749
0.229993
0.236146
0.261262
0.298496
0.360334
0.422014
0.56131
2.87977
2.54621
2.70437
2.64147
2.26312
1.91189
1.68309
1.42546
1.13612
0.889237
0.657885
0.462615
0.333772
0.273604
0.26466
0.27452
0.299938
0.338149
0.382302
0.498184
2.95231
2.66269
2.86127
3.01623
2.80825
2.23987
1.84019
1.52891
1.22424
0.976333
0.763496
0.577341
0.439925
0.350142
0.310733
0.304242
0.313884
0.342369
0.382798
0.477176
3.02324
2.75579
2.96158
3.24085
3.2588
2.75957
2.16519
1.71865
1.3521
1.08359
0.863078
0.687436
0.551468
0.449466
0.381981
0.348302
0.349126
0.365282
0.392518
0.471001
3.06488
2.8007
2.98855
3.23832
3.44733
3.20888
2.64201
2.04838
1.54878
1.22173
0.97744
0.78573
0.64164
0.533542
0.449426
0.399272
0.394141
0.399229
0.416562
0.478302
3.05728
2.78813
2.95467
3.15742
3.40931
3.3984
3.12389
2.65665
2.05348
1.61576
1.30028
1.05036
0.857394
0.708476
0.597833
0.52728
0.500277
0.487896
0.491012
0.519159
10.0999
10.0141
10.2016
8.81698
8.0935
7.76135
7.34067
6.49469
5.41582
4.51124
3.77995
3.29093
3.10544
3.04265
3.04147
3.08352
3.15929
3.23335
3.29185
3.29732
10.0342
9.88675
10.012
7.38046
7.09394
7.50831
7.30002
6.2465
4.55266
3.24629
2.50436
2.23522
2.29868
2.43239
2.58124
2.70066
2.81667
2.9102
2.97121
2.97081
10.1021
10.191
7.4461
5.66993
6.59916
7.56985
7.49335
6.19576
3.82257
2.32701
1.85356
1.89326
2.01358
2.25472
2.59765
2.841
2.9873
3.09891
3.14875
3.12367
8.74712
7.21947
5.47495
4.41454
5.56886
7.48714
7.78366
6.79217
3.65517
1.26384
1.35493
1.5301
1.74218
2.01908
2.418
2.84456
3.20881
3.39052
3.38482
3.30539
7.92515
6.75248
6.17233
5.00396
0.973581
1.30945
1.4127
1.53266
1.67033
1.84532
2.1096
2.55802
3.09853
3.49502
3.6113
3.5651
7.48322
7.1466
7.19091
7.19191
1.59757
1.72992
1.72321
1.73032
1.75806
1.81738
1.93252
2.14971
2.55623
3.09903
3.50569
3.58582
7.07847