/*--------------------------------*- C++ -*----------------------------------*\
  =========                 |
  \\      /  F ield         | OpenFOAM: The Open Source CFD Toolbox
   \\    /   O peration     | Website:  https://openfoam.org
    \\  /    A nd           | Version:  9
     \\/     M anipulation  |
\*---------------------------------------------------------------------------*/
FoamFile
{
    format      ascii;
    class       volScalarField;
    location    "0.0055";
    object      rho.Air;
}
// * * * * * * * * * * * * * * * * * * * * * * * * * * * * * * * * * * * * * //

dimensions      [1 -3 0 0 0 0 0];

internalField   nonuniform List<scalar> 
9720
(
0.00897103
0.00938039
0.00951385
0.00813139
0.00736021
0.00699244
0.00658771
0.00584694
0.00494181
0.00423332
0.00364561
0.00325186
0.00315349
0.00314146
0.00318176
0.0032525
0.0033358
0.00337875
0.00337961
0.00327837
0.00935298
0.00953106
0.00957122
0.00670821
0.00633709
0.0067532
0.00662702
0.00567296
0.00420982
0.00302269
0.00226345
0.00190416
0.00196306
0.00211376
0.00229896
0.00247231
0.00265913
0.00281011
0.00292732
0.00290746
0.00942664
0.00959661
0.00674211
0.00506344
0.00589937
0.0067871
0.00681176
0.00565157
0.00361728
0.00196218
0.00123145
0.0010105
0.00104499
0.0011851
0.0014404
0.0017357
0.00199107
0.0022481
0.00255597
0.00275836
0.00810388
0.00668091
0.00504405
0.00414645
0.00476747
0.00669892
0.00694941
0.00603468
0.00328951
0.000406947
0.000252548
0.000257718
0.000283759
0.000348027
0.000481137
0.000706637
0.00101915
0.00135749
0.00168632
0.00216934
0.0072919
0.00619837
0.00571915
0.0046741
0.000321279
6.08792e-05
6.4056e-05
7.11663e-05
8.29225e-05
0.000101973
0.000136535
0.000208071
0.000343494
0.000540757
0.000774869
0.00129153
0.00685388
0.00656703
0.00659164
0.00651328
0.000116748
4.45477e-05
4.45649e-05
4.57246e-05
4.87378e-05
5.40588e-05
6.32398e-05
7.99071e-05
0.000114246
0.000184227
0.000286011
0.000579688
0.00644482
0.00643185
0.00660631
0.00676337
8.56065e-05
3.52771e-05
3.40305e-05
3.42563e-05
3.52651e-05
3.73506e-05
4.08823e-05
4.69661e-05
5.80635e-05
8.03941e-05
0.000117972
0.000242144
0.00570674
0.00549721
0.00546165
0.00582835
5.60048e-05
2.23243e-05
2.26687e-05
2.32883e-05
2.44534e-05
2.62096e-05
2.87492e-05
3.25419e-05
3.83945e-05
4.8708e-05
6.55763e-05
0.000122394
0.00481245
0.00406139
0.0034622
0.00300906
0.000285504
0.000136348
0.000103768
6.7725e-05
6.43143e-06
6.68817e-06
9.62525e-06
1.25029e-05
1.50133e-05
1.73536e-05
1.98018e-05
2.26352e-05
2.65017e-05
3.2543e-05
4.15128e-05
7.12392e-05
0.00413847
0.00293476
0.00191147
0.000388829
6.45221e-05
5.03893e-05
3.8904e-05
2.4436e-05
7.43023e-06
3.02279e-06
3.73015e-06
5.47476e-06
7.78682e-06
1.03771e-05
1.31815e-05
1.61011e-05
1.93007e-05
2.38714e-05
2.98816e-05
5.00644e-05
0.00358232
0.00221837
0.00124204
0.000249861
6.73269e-05
4.84206e-05
3.62274e-05
2.45496e-05
1.07354e-05
3.90115e-06
2.92254e-06
3.22297e-06
4.22804e-06
6.07071e-06
8.49335e-06
1.12091e-05
1.4207e-05
1.78943e-05
2.25279e-05
3.86255e-05
0.00321396
0.00187121
0.000996249
0.000254082
7.42255e-05
4.93793e-05
3.63417e-05
2.48865e-05
1.38271e-05
5.92886e-06
3.25799e-06
3.32041e-06
3.80071e-06
4.61999e-06
5.86061e-06
7.62246e-06
1.00522e-05
1.33277e-05
1.69785e-05
3.00722e-05
0.00313058
0.00193404
0.00101751
0.000276882
8.57236e-05
5.21889e-05
3.73556e-05
2.59578e-05
1.64736e-05
8.54758e-06
4.38881e-06
3.80006e-06
4.00234e-06
4.41731e-06
5.14088e-06
6.30911e-06
7.99724e-06
1.04216e-05
1.28796e-05
2.264e-05
0.00311926
0.00209281
0.00114202
0.000334544
0.000104361
5.75718e-05
3.97137e-05
2.78487e-05
1.89737e-05
1.13996e-05
6.42626e-06
4.67831e-06
4.43241e-06
4.5796e-06
5.1827e-06
6.32664e-06
7.97061e-06
9.94238e-06
1.15901e-05
1.79476e-05
0.00314697
0.00228532
0.00138869
0.000458403
0.000138402
6.74236e-05
4.38538e-05
3.06943e-05
2.16062e-05
1.44553e-05
9.06814e-06
5.96132e-06
5.19056e-06
5.21917e-06
5.61056e-06
6.599e-06
8.08031e-06
1.00167e-05
1.17524e-05
1.77377e-05
0.00319581
0.00244751
0.00168973
0.000676953
0.000209087
8.55998e-05
5.09717e-05
3.49976e-05
2.47057e-05
1.76713e-05
1.20235e-05
7.73683e-06
6.35559e-06
6.38667e-06
6.65647e-06
7.32028e-06
8.46813e-06
1.02934e-05
1.22857e-05
1.84182e-05
0.00325838
0.00261556
0.00194372
0.000986963
0.000345351
0.000123177
6.37885e-05
4.17286e-05
2.90375e-05
2.12401e-05
1.53285e-05
1.02323e-05
7.98138e-06
8.01143e-06
8.18731e-06
8.57732e-06
9.40822e-06
1.11226e-05
1.33239e-05
1.99003e-05
0.00328352
0.00274353
0.00218615
0.00131995
0.000546151
0.000199676
8.99817e-05
5.38067e-05
3.59759e-05
2.63603e-05
1.9387e-05
1.36665e-05
1.03044e-05
9.9245e-06
1.00648e-05
1.04351e-05
1.12448e-05
1.29497e-05
1.51765e-05
2.21694e-05
0.00328037
0.00284107
0.00246659
0.00163593
0.000783185
0.000308304
0.000133509
7.37343e-05
4.6347e-05
3.30596e-05
2.44187e-05
1.75737e-05
1.27998e-05
1.15007e-05
1.16935e-05
1.23025e-05
1.34015e-05
1.52445e-05
1.75514e-05
2.46959e-05
0.00317271
0.0028192
0.00266824
0.00211836
0.00130745
0.000622781
0.000278946
0.000143724
8.27644e-05
5.67745e-05
4.26239e-05
3.2054e-05
2.3266e-05
1.78742e-05
1.74812e-05
1.81322e-05
1.96369e-05
2.20194e-05
2.45272e-05
3.26669e-05
0.00857063
0.00924295
0.00938082
0.00783994
0.00709411
0.00674112
0.00633759
0.0056639
0.00481657
0.00414262
0.00351312
0.00308216
0.00294279
0.00292082
0.00293539
0.00297301
0.00303237
0.00306302
0.00306149
0.00294185
0.00925993
0.0100295
0.0101042
0.00663687
0.00616586
0.00663723
0.00659134
0.00567049
0.00423353
0.00273997
0.00185474
0.00149954
0.00156693
0.00174585
0.00196977
0.00216071
0.00235433
0.00250656
0.00261985
0.00258774
0.00937019
0.0102166
0.00726731
0.00571454
0.00586559
0.00672764
0.00691418
0.00588971
0.00364373
0.00115687
0.000573578
0.000512767
0.000554827
0.000685876
0.000921977
0.0012212
0.00150697
0.00178211
0.00210133
0.00234772
0.00792181
0.00665716
0.00569064
0.00394385
0.00976009
0.0144239
0.0166922
0.0166897
0.00353056
4.89001e-05
5.67589e-05
7.24959e-05
9.51885e-05
0.000132914
0.000206845
0.000343117
0.000554489
0.000821842
0.00110995
0.00157689
0.00709715
0.00604799
0.00567317
0.00872523
5.07246e-05
7.25485e-06
1.23639e-05
1.82363e-05
2.53398e-05
3.48772e-05
5.04466e-05
8.14936e-05
0.000146901
0.000259122
0.00040332
0.000750675
0.00661669
0.00645974
0.00652421
0.0145759
5.54591e-06
9.08081e-06
1.2376e-05
1.5512e-05
1.88154e-05
2.26273e-05
2.77445e-05
3.54099e-05
5.01207e-05
8.38202e-05
0.000135787
0.000290778
0.0061777
0.00641525
0.00672874
0.0174424
9.23084e-06
1.19152e-05
1.37403e-05
1.55804e-05
1.74761e-05
1.95653e-05
2.20895e-05
2.55625e-05
3.09917e-05
4.1795e-05
6.09188e-05
0.000122721
0.00550352
0.00550456
0.00571768
0.0175988
1.12049e-05
1.0239e-05
1.14501e-05
1.28003e-05
1.42908e-05
1.59178e-05
1.78042e-05
2.03141e-05
2.39106e-05
2.99044e-05
3.97314e-05
7.19867e-05
0.00467988
0.0040928
0.00344573
0.00316436
5.605e-05
4.08514e-06
6.49885e-06
7.72742e-06
1.93197e-06
3.59308e-06
5.81274e-06
7.99717e-06
9.93013e-06
1.1761e-05
1.36805e-05
1.58394e-05
1.86544e-05
2.28644e-05
2.88244e-05
4.81382e-05
0.00403718
0.00263233
0.00105003
3.91024e-05
6.03382e-06
7.40096e-06
9.45706e-06
8.19373e-06
3.33015e-06
1.91182e-06
2.43376e-06
3.83079e-06
5.70391e-06
7.76744e-06
9.99898e-06
1.2394e-05
1.49612e-05
1.84618e-05
2.28705e-05
3.73639e-05
0.00343961
0.0017615
0.000519518
4.69829e-05
1.06031e-05
1.05268e-05
1.13623e-05
9.55497e-06
5.2262e-06
2.3654e-06
2.19958e-06
2.45816e-06
3.33194e-06
4.8395e-06
6.82353e-06
9.23926e-06
1.18948e-05
1.50256e-05
1.86649e-05
3.08294e-05
0.00303682
0.00143759
0.000460188
6.14998e-05
1.60759e-05
1.36737e-05
1.33385e-05
1.09716e-05
7.19124e-06
3.62066e-06
2.46032e-06
2.55214e-06
2.9848e-06
3.72664e-06
4.99455e-06
6.80698e-06
9.09541e-06
1.1921e-05
1.49318e-05
2.53859e-05
0.00292234
0.00151956
0.000499227
8.19829e-05
2.27919e-05
1.70275e-05
1.53984e-05
1.25127e-05
9.05684e-06
5.39771e-06
3.28741e-06
2.97614e-06
3.16271e-06
3.68286e-06
4.45857e-06
5.62912e-06
7.2777e-06
9.39829e-06
1.16553e-05
2.02514e-05
0.00290215
0.00172611
0.000627187
0.000116008
3.19162e-05
2.09071e-05
1.76618e-05
1.42206e-05
1.08726e-05
7.42747e-06
4.73428e-06
3.69625e-06
3.67662e-06
3.8653e-06
4.46902e-06
5.57344e-06
7.07787e-06
9.10555e-06
1.08807e-05
1.67358e-05
0.00290395
0.00196856
0.000862567
0.000185255
4.70998e-05
2.61794e-05
2.04024e-05
1.6209e-05
1.27852e-05
9.62583e-06
6.66812e-06
4.87369e-06
4.46715e-06
4.48234e-06
4.82554e-06
5.75552e-06
7.20223e-06
9.24984e-06
1.10208e-05
1.65145e-05
0.00291819
0.00214471
0.00116464
0.000317808
7.82972e-05
3.42735e-05
2.41787e-05
1.88686e-05
1.49661e-05
1.19675e-05
9.01671e-06
6.49857e-06
5.56578e-06
5.58503e-06
5.78521e-06
6.43881e-06
7.65169e-06
9.5534e-06
1.14602e-05
1.70572e-05
0.00294279
0.00230733
0.00144628
0.000523868
0.000145417
5.05649e-05
3.01416e-05
2.27071e-05
1.7847e-05
1.45168e-05
1.15823e-05
8.59106e-06
7.03878e-06
7.03661e-06
7.2323e-06
7.72465e-06
8.66307e-06
1.03352e-05
1.23299e-05
1.82686e-05
0.0029516
0.00242876
0.00170569
0.00078476
0.000259677
8.77478e-05
4.25922e-05
2.92838e-05
2.22554e-05
1.80485e-05
1.46232e-05
1.12823e-05
8.96066e-06
8.91664e-06
9.17341e-06
9.63834e-06
1.04488e-05
1.1969e-05
1.3829e-05
2.01799e-05
0.00294428
0.00251901
0.00199912
0.00106048
0.000403454
0.000143374
6.46591e-05
4.03682e-05
2.8637e-05
2.25393e-05
1.82256e-05
1.42472e-05
1.11027e-05
1.05902e-05
1.08158e-05
1.14136e-05
1.23988e-05
1.38958e-05
1.58867e-05
2.26208e-05
0.00281789
0.00248489
0.0022459
0.00152375
0.000752642
0.000308492
0.000136167
7.83171e-05
5.06632e-05
3.82348e-05
3.09595e-05
2.49725e-05
1.9613e-05
1.61937e-05
1.60039e-05
1.65844e-05
1.79106e-05
1.99847e-05
2.24256e-05
3.00641e-05
0.00737229
0.00872323
0.00897222
0.00732028
0.00648994
0.006014
0.00559205
0.00507052
0.00443937
0.00379157
0.00310239
0.00264525
0.00246499
0.00243304
0.00242125
0.00242103
0.00244109
0.00246433
0.00246819
0.0023634
0.0087643
0.0114907
0.0118163
0.00737392
0.00637888
0.00720751
0.00723265
0.00639531
0.00478158
0.00208306
0.000999997
0.000722391
0.000799816
0.000996205
0.00126375
0.00148819
0.00167966
0.00183053
0.00196846
0.00195119
0.00898482
0.0119867
0.00838732
0.00807985
0.00818131
0.00909908
0.00990673
0.0080592
0.00270633
0.000207972
6.26646e-05
7.10549e-05
9.2412e-05
0.000144406
0.000252438
0.000426804
0.000640332
0.000869577
0.00114149
0.00142979
0.00745417
0.00736127
0.00770776
0.0198471
0.0104381
0.0111915
0.024276
0.000826645
1.35156e-05
2.42493e-06
4.26332e-06
7.31288e-06
1.13819e-05
1.78772e-05
3.15463e-05
6.25935e-05
0.000121992
0.000218208
0.000343733
0.000614815
0.00650633
0.00630447
0.00743246
0.000449117
1.57426e-06
5.17611e-06
5.88244e-06
6.83715e-06
8.23753e-06
1.02745e-05
1.34035e-05
1.89179e-05
3.07332e-05
5.45256e-05
9.05232e-05
0.000196399
0.0058481
0.00713475
0.00976926
0.0262247
6.29064e-06
9.85133e-06
1.05316e-05
1.12629e-05
1.21476e-05
1.32563e-05
1.48094e-05
1.69732e-05
2.05196e-05
2.81268e-05
3.93305e-05
7.28129e-05
0.00537717
0.00723643
0.0102336
0.0270835
1.06981e-05
1.42707e-05
1.44523e-05
1.47564e-05
1.51739e-05
1.57648e-05
1.65521e-05
1.76912e-05
1.96685e-05
2.366e-05
3.02968e-05
4.62076e-05
0.00485506
0.00641484
0.0082723
0.000608068
1.32635e-05
1.25512e-05
1.27645e-05
1.30929e-05
1.36325e-05
1.43518e-05
1.52337e-05
1.64983e-05
1.84221e-05
2.17344e-05
2.70781e-05
4.19034e-05
0.00425845
0.00476202
0.00349415
9.50404e-06
1.42235e-06
5.41339e-06
9.04643e-06
1.10499e-05
2.3909e-06
4.44734e-06
6.74463e-06
8.72245e-06
1.03086e-05
1.1615e-05
1.29531e-05
1.44633e-05
1.64498e-05
1.94367e-05
2.36116e-05
3.63958e-05
0.00362196
0.00197278
0.000191671
1.8761e-06
4.22179e-06
8.13052e-06
1.1706e-05
1.03564e-05
4.02996e-06
2.14774e-06
2.78618e-06
4.35973e-06
6.31335e-06
8.31821e-06
1.02906e-05
1.23342e-05
1.44159e-05
1.71088e-05
2.05563e-05
3.18225e-05
0.00294481
0.000853251
4.89374e-05
3.15928e-06
4.70564e-06
8.60893e-06
1.18268e-05
1.05306e-05
5.88887e-06
2.6739e-06
2.24649e-06
2.52097e-06
3.58738e-06
5.33343e-06
7.40509e-06
9.67851e-06
1.20927e-05
1.48324e-05
1.78582e-05
2.78097e-05
0.00253991
0.000646099
5.63013e-05
5.41363e-06
5.39144e-06
9.16078e-06
1.20634e-05
1.07944e-05
7.50381e-06
3.97465e-06
2.50472e-06
2.57869e-06
2.99163e-06
3.88074e-06
5.27136e-06
7.23209e-06
9.62897e-06
1.24194e-05
1.51251e-05
2.399e-05
0.0024081
0.000737719
7.44953e-05
8.56809e-06
6.47228e-06
9.87341e-06
1.24199e-05
1.11993e-05
8.78441e-06
5.62146e-06
3.45513e-06
2.9903e-06
3.17465e-06
3.69423e-06
4.58452e-06
5.90192e-06
7.7127e-06
1.01384e-05
1.24595e-05
2.02217e-05
0.00238633
0.000964458
0.000120495
1.38935e-05
8.14338e-06
1.07947e-05
1.29368e-05
1.1772e-05
9.8455e-06
7.35038e-06
4.99611e-06
3.83129e-06
3.69581e-06
3.92887e-06
4.59961e-06
5.74222e-06
7.35608e-06
9.518e-06
1.14474e-05
1.71643e-05
0.0023713
0.00125941
0.000220909
2.5779e-05
1.08165e-05
1.21209e-05
1.36285e-05
1.25168e-05
1.09918e-05
9.10134e-06
6.86323e-06
5.07796e-06
4.59243e-06
4.61557e-06
4.98189e-06
5.94878e-06
7.46404e-06
9.63604e-06
1.15695e-05
1.69236e-05
0.00234613
0.00147623
0.000390917
5.45765e-05
1.58837e-05
1.40738e-05
1.46543e-05
1.36608e-05
1.23456e-05
1.09267e-05
8.93048e-06
6.80028e-06
5.81888e-06
5.80343e-06
6.00167e-06
6.67304e-06
7.87576e-06
9.8891e-06
1.19215e-05
1.74434e-05
0.00235197
0.0016458
0.000600974
0.000111215
2.7693e-05
1.74592e-05
1.64994e-05
1.54932e-05
1.4185e-05
1.28086e-05
1.10716e-05
8.91654e-06
7.41936e-06
7.41101e-06
7.56417e-06
7.97782e-06
8.88199e-06
1.06331e-05
1.2745e-05
1.87413e-05
0.00235859
0.00177681
0.000821597
0.000204208
5.22753e-05
2.51281e-05
2.03847e-05
1.87239e-05
1.70086e-05
1.52737e-05
1.34946e-05
1.14395e-05
9.5487e-06
9.46099e-06
9.66059e-06
1.00171e-05
1.07713e-05
1.23055e-05
1.44069e-05
2.08082e-05
0.0023581
0.00189882
0.00108093
0.000324891
8.91778e-05
3.69528e-05
2.69041e-05
2.39443e-05
2.09742e-05
1.8471e-05
1.62664e-05
1.39455e-05
1.16682e-05
1.12113e-05
1.14129e-05
1.19368e-05
1.28769e-05
1.45148e-05
1.66395e-05
2.32915e-05
0.00225697
0.00188042
0.00137402
0.00059364
0.000197872
7.33096e-05
4.39722e-05
3.8825e-05
3.33048e-05
2.91644e-05
2.56863e-05
2.23306e-05
1.88981e-05
1.63937e-05
1.63364e-05
1.69788e-05
1.84518e-05
2.06651e-05
2.31315e-05
3.03867e-05
0.004699
0.005886
0.00601858
0.00364363
0.00284246
0.00249783
0.00224753
0.00203157
0.00181198
0.00173162
0.00153402
0.00154545
0.00153376
0.00155093
0.00160995
0.00167193
0.0017229
0.00177794
0.0018487
0.00181827
0.0059393
0.0137861
0.0152424
0.0105186
0.00856592
0.00821617
0.00720717
0.00564606
0.00431709
0.00158561
0.000390169
0.000189097
0.000195931
0.000259461
0.000426576
0.000644075
0.000842865
0.000994364
0.00115078
0.00122785
0.00608996
0.0156657
0.0146962
0.00871542
0.00850247
0.0093056
0.00973235
0.00673845
0.00164966
4.51453e-05
6.43604e-06
7.3738e-06
9.55924e-06
1.51971e-05
3.01587e-05
6.3889e-05
0.000122422
0.000206963
0.00032017
0.000495842
0.00381526
0.0112411
0.00919901
0.000358173
0.000893196
0.00248188
0.0281522
0.000365909
2.11094e-06
2.89831e-06
3.71744e-06
4.76487e-06
6.05195e-06
7.7211e-06
1.01249e-05
1.41013e-05
2.06797e-05
3.22779e-05
5.09693e-05
0.000110082
0.00283095
0.00899325
0.00931122
0.000721407
3.18776e-06
7.39845e-06
7.98985e-06
8.75018e-06
9.80613e-06
1.12581e-05
1.31098e-05
1.55648e-05
1.89297e-05
2.25167e-05
2.57961e-05
3.76479e-05
0.00237396
0.00812253
0.00976996
0.0132682
9.79027e-06
1.36365e-05
1.40668e-05
1.46133e-05
1.5312e-05
1.61758e-05
1.73251e-05
1.88609e-05
2.09529e-05
2.43373e-05
2.78917e-05
3.3156e-05
0.00209179
0.00690911
0.00960138
0.0292916
1.55519e-05
1.90342e-05
1.89024e-05
1.88392e-05
1.89168e-05
1.9181e-05
1.96951e-05
2.0549e-05
2.20621e-05
2.49206e-05
2.94726e-05
3.66683e-05
0.00187127
0.00528562
0.00664686
0.000486583
1.82836e-05
1.62199e-05
1.63961e-05
1.65437e-05
1.68389e-05
1.7352e-05
1.80419e-05
1.90571e-05
2.06829e-05
2.35022e-05
2.80299e-05
3.98183e-05
0.00164548
0.00404114
0.00201894
1.46435e-06
2.43547e-06
7.7528e-06
1.24592e-05
1.46631e-05
2.89858e-06
5.33646e-06
8.25589e-06
1.07655e-05
1.26781e-05
1.40364e-05
1.53374e-05
1.67727e-05
1.85934e-05
2.13429e-05
2.52298e-05
3.68292e-05
0.00154813
0.00158268
5.37818e-05
2.16643e-06
5.65536e-06
1.06315e-05
1.50027e-05
1.30731e-05
4.92052e-06
2.44664e-06
3.30679e-06
5.32449e-06
7.74649e-06
1.00894e-05
1.22224e-05
1.43585e-05
1.66037e-05
1.92125e-05
2.2404e-05
3.28964e-05
0.00138386
0.00046925
5.83276e-06
2.75673e-06
6.11362e-06
1.09918e-05
1.49372e-05
1.32381e-05
7.21178e-06
3.2e-06
2.41046e-06
2.72746e-06
4.08432e-06
6.29556e-06
8.77135e-06
1.14082e-05
1.40925e-05
1.69603e-05
1.97761e-05
2.91326e-05
0.00143587
0.000225362
6.57521e-06
3.52984e-06
6.71102e-06
1.14612e-05
1.49484e-05
1.33509e-05
9.14381e-06
4.87006e-06
2.70959e-06
2.72078e-06
3.08602e-06
4.18611e-06
6.0565e-06
8.46296e-06
1.12336e-05
1.44177e-05
1.71616e-05
2.55655e-05
0.00147097
0.000212154
8.28652e-06
4.47925e-06
7.54725e-06
1.20691e-05
1.50638e-05
1.35795e-05
1.05746e-05
6.78972e-06
3.85619e-06
3.09085e-06
3.24881e-06
3.84081e-06
4.88696e-06
6.57746e-06
8.8667e-06
1.19308e-05
1.47696e-05
2.23841e-05
0.00150245
0.000274538
1.25926e-05
5.72637e-06
8.69692e-06
1.28054e-05
1.53562e-05
1.40103e-05
1.16486e-05
8.6371e-06
5.69054e-06
4.12701e-06
3.85542e-06
4.09325e-06
4.92002e-06
6.24581e-06
7.99658e-06
1.04627e-05
1.2781e-05
1.88856e-05
0.00154866
0.000430489
2.46169e-05
7.54358e-06
1.01043e-05
1.37504e-05
1.58398e-05
1.46131e-05
1.27162e-05
1.0427e-05
7.82575e-06
5.71724e-06
4.87416e-06
4.90891e-06
5.39337e-06
6.47233e-06
8.0658e-06
1.03843e-05
1.25984e-05
1.81988e-05
0.00159279
0.00062948
5.46063e-05
1.07952e-05
1.19357e-05
1.49822e-05
1.65747e-05
1.55163e-05
1.39799e-05
1.23227e-05
1.00775e-05
7.68531e-06
6.31581e-06
6.25254e-06
6.47772e-06
7.17181e-06
8.37844e-06
1.04859e-05
1.28283e-05
1.86609e-05
0.00163972
0.000818492
0.000110876
1.66435e-05
1.45564e-05
1.65524e-05
1.78542e-05
1.70224e-05
1.56659e-05
1.42988e-05
1.23572e-05
9.9793e-06
8.1574e-06
7.98569e-06
8.10866e-06
8.44443e-06
9.25031e-06
1.11112e-05
1.35292e-05
1.98332e-05
0.00169475
0.000967926
0.000193213
2.74791e-05
1.78054e-05
1.92004e-05
2.02557e-05
1.96522e-05
1.82366e-05
1.65835e-05
1.47622e-05
1.26814e-05
1.06822e-05
1.02029e-05
1.03541e-05
1.05742e-05
1.12057e-05
1.28269e-05
1.51771e-05
2.18772e-05
0.00177344
0.00112528
0.000303312
4.54347e-05
2.13712e-05
2.23942e-05
2.39277e-05
2.37698e-05
2.17925e-05
1.94069e-05
1.7225e-05
1.51073e-05
1.30732e-05
1.21575e-05
1.23206e-05
1.27876e-05
1.36057e-05
1.52482e-05
1.75419e-05
2.43561e-05
0.00175463
0.0012151
0.000489922
0.000105746
3.44611e-05
2.77569e-05
3.04819e-05
3.42734e-05
3.20595e-05
2.88457e-05
2.57416e-05
2.27847e-05
1.98881e-05
1.72744e-05
1.72414e-05
1.79047e-05
1.93168e-05
2.15817e-05
2.41711e-05
3.13245e-05
0.00297328
0.00332401
0.00268695
0.00165692
0.00130287
0.00112645
0.00101198
0.000915825
0.000831773
0.000805222
0.000691637
0.00075246
0.000955859
0.00108725
0.00120578
0.00131508
0.00140471
0.001489
0.00161049
0.00163447
0.00337322
0.00250649
0.00262922
0.00252821
0.0024663
0.00259736
0.00247717
0.00191778
0.00144865
0.000413777
7.75756e-05
5.0841e-05
6.50424e-05
0.000107424
0.000200548
0.000351763
0.000520693
0.000663352
0.000802401
0.000940623
0.00283938
0.00266081
0.00467671
0.00507389
0.00675346
0.00695343
0.00731287
0.00497966
0.000804933
2.08457e-05
5.74251e-06
6.11255e-06
6.70684e-06
7.913e-06
1.07608e-05
1.8252e-05
3.61891e-05
6.97907e-05
0.000115677
0.000205054
0.00175268
0.00240202
0.00488254
0.00148991
0.00224804
2.34747e-09
0.021819
0.000412769
1.59324e-06
3.3111e-06
4.21013e-06
5.33479e-06
6.70597e-06
8.39977e-06
1.05035e-05
1.28524e-05
1.4862e-05
1.65721e-05
1.83394e-05
2.76657e-05
0.00134487
0.00249136
0.00572042
9.59306e-05
3.98456e-06
8.82391e-06
9.55976e-06
1.04496e-05
1.16132e-05
1.31071e-05
1.48663e-05
1.70762e-05
1.98675e-05
2.2122e-05
2.26774e-05
2.45718e-05
0.00113193
0.00265958
0.00704004
0.000316289
1.26486e-05
1.62976e-05
1.68418e-05
1.74937e-05
1.82892e-05
1.9206e-05
2.03735e-05
2.19405e-05
2.37348e-05
2.66124e-05
2.98723e-05
3.1291e-05
0.00100782
0.00248739
0.00744178
0.0241588
1.96983e-05
2.26761e-05
2.25679e-05
2.25143e-05
2.25711e-05
2.27813e-05
2.32279e-05
2.4007e-05
2.54461e-05
2.79767e-05
3.21225e-05
3.85772e-05
0.000908202
0.00188783
0.00499856
0.000303137
2.25982e-05
1.91237e-05
1.93855e-05
1.96417e-05
1.99853e-05
2.05348e-05
2.12337e-05
2.22197e-05
2.38186e-05
2.65271e-05
3.08126e-05
4.23769e-05
0.000819606
0.00149161
0.00106845
1.5057e-06
3.04431e-06
9.71813e-06
1.52019e-05
1.73842e-05
3.31256e-06
6.09583e-06
9.52583e-06
1.25403e-05
1.49205e-05
1.65918e-05
1.80423e-05
1.95603e-05
2.14032e-05
2.41719e-05
2.80115e-05
3.93115e-05
0.000790394
0.000433376
2.60005e-05
2.68812e-06
7.10285e-06
1.29659e-05
1.78314e-05
1.53075e-05
5.60021e-06
2.69045e-06
3.7808e-06
6.22823e-06
9.12525e-06
1.18335e-05
1.42684e-05
1.67064e-05
1.92676e-05
2.19882e-05
2.51388e-05
3.53157e-05
0.000666849
8.81022e-05
6.02625e-06
3.37616e-06
7.65357e-06
1.33846e-05
1.77915e-05
1.55712e-05
8.24293e-06
3.60946e-06
2.63472e-06
3.04345e-06
4.53406e-06
7.1645e-06
1.03101e-05
1.33787e-05
1.64088e-05
1.95424e-05
2.23461e-05
3.14969e-05
0.000718865
5.30697e-05
5.15999e-06
4.23313e-06
8.33345e-06
1.39047e-05
1.78338e-05
1.5821e-05
1.05582e-05
5.59442e-06
2.99214e-06
2.71547e-06
3.14607e-06
4.65618e-06
7.09657e-06
9.94794e-06
1.30115e-05
1.65043e-05
1.95102e-05
2.79475e-05
0.000929404
6.75174e-05
5.50609e-06
5.26551e-06
9.22466e-06
1.45558e-05
1.797e-05
1.61266e-05
1.23524e-05
7.86496e-06
4.18227e-06
3.15029e-06
3.35704e-06
4.05468e-06
5.28644e-06
7.34002e-06
1.00694e-05
1.37993e-05
1.71109e-05
2.50256e-05
0.00106084
0.000109117
6.41341e-06
6.54505e-06
1.03556e-05
1.53141e-05
1.82428e-05
1.65966e-05
1.36544e-05
9.95829e-06
6.26064e-06
4.43981e-06
4.04989e-06
4.31415e-06
5.25786e-06
6.73671e-06
8.8055e-06
1.19429e-05
1.47635e-05
2.13489e-05
0.00116972
0.000198414
8.64531e-06
8.09979e-06
1.16992e-05
1.62573e-05
1.86747e-05
1.71885e-05
1.48247e-05
1.19249e-05
8.79973e-06
6.3448e-06
5.15163e-06
5.16437e-06
5.74299e-06
7.02284e-06
8.82778e-06
1.12862e-05
1.36663e-05
1.97078e-05
0.00126641
0.000343393
1.53001e-05
9.80734e-06
1.3348e-05
1.74431e-05
1.93194e-05
1.80018e-05
1.61024e-05
1.39946e-05
1.13291e-05
8.55383e-06
6.70062e-06
6.57113e-06
6.91079e-06
7.76174e-06
9.01609e-06
1.11677e-05
1.37074e-05
2.00966e-05
0.00134913
0.000508678
3.25391e-05
1.13077e-05
1.53318e-05
1.87766e-05
2.04694e-05
1.93493e-05
1.77022e-05
1.61447e-05
1.38392e-05
1.09909e-05
8.71814e-06
8.42796e-06
8.62244e-06
8.95608e-06
9.68237e-06
1.15238e-05
1.42421e-05
2.13715e-05
0.00142893
0.000649703
6.56632e-05
1.27187e-05
1.69852e-05
2.09618e-05
2.24722e-05
2.16856e-05
2.01337e-05
1.84411e-05
1.64378e-05
1.38547e-05
1.17452e-05
1.09319e-05
1.09937e-05
1.09901e-05
1.13685e-05
1.311e-05
1.61112e-05
2.3801e-05
0.00154669
0.000787055
0.000110902
1.45203e-05
1.76475e-05
2.3468e-05
2.58164e-05
2.53775e-05
2.34722e-05
2.1131e-05
1.8811e-05
1.64228e-05
1.45299e-05
1.30292e-05
1.30314e-05
1.3202e-05
1.38636e-05
1.59356e-05
1.89308e-05
2.64557e-05
0.00157994
0.000933293
0.000205082
2.42759e-05
1.97631e-05
2.49033e-05
3.12475e-05
3.54653e-05
3.32393e-05
2.99569e-05
2.67864e-05
2.38312e-05
2.1247e-05
1.82067e-05
1.79189e-05
1.85247e-05
2.01409e-05
2.30264e-05
2.59915e-05
3.3282e-05
0.0029703
0.00332949
0.00269731
0.00165599
0.00129664
0.00111831
0.0010048
0.000909921
0.000827127
0.000798208
0.000687137
0.000750821
0.000963559
0.00109859
0.0012172
0.00132664
0.00141611
0.00149912
0.00161934
0.00164162
0.00337501
0.00248203
0.00263004
0.00257377
0.00243966
0.00255216
0.00244446
0.00191052
0.00141984
0.000403883
7.69984e-05
5.48622e-05
6.96804e-05
0.000113546
0.000208839
0.000362346
0.000532452
0.000673762
0.000810297
0.000944343
0.00284071
0.00265282
0.00468763
0.00506213
0.00695526
0.00691528
0.00720646
0.00495081
0.000687781
1.99994e-05
5.78297e-06
6.17809e-06
6.79469e-06
8.00226e-06
1.09167e-05
1.86526e-05
3.71882e-05
7.15873e-05
0.000117796
0.000206013
0.00175675
0.00240818
0.00493912
0.0015804
0.00615338
0.000144909
0.0170858
0.000217638
1.45475e-06
3.32217e-06
4.24568e-06
5.39815e-06
6.81249e-06
8.55282e-06
1.06923e-05
1.3102e-05
1.5174e-05
1.68804e-05
1.8644e-05
2.79613e-05
0.00135273
0.00256725
0.00581063
1.50447e-06
4.07298e-06
8.9676e-06
9.71557e-06
1.06251e-05
1.18242e-05
1.33691e-05
1.51807e-05
1.74485e-05
2.03174e-05
2.26174e-05
2.31366e-05
2.49541e-05
0.00113959
0.00272367
0.00717797
0.00302006
1.34735e-05
1.67434e-05
1.73265e-05
1.8008e-05
1.88227e-05
1.97523e-05
2.09282e-05
2.25232e-05
2.43787e-05
2.73864e-05
3.08674e-05
3.2011e-05
0.00101295
0.00251427
0.00750021
0.0272448
2.13542e-05
2.35161e-05
2.34086e-05
2.33623e-05
2.34186e-05
2.36132e-05
2.40222e-05
2.47607e-05
2.61986e-05
2.87915e-05
3.31453e-05
3.98343e-05
0.000911472
0.00191227
0.00503341
0.000737823
2.47384e-05
1.99975e-05
2.02177e-05
2.04566e-05
2.07876e-05
2.13253e-05
2.2031e-05
2.30462e-05
2.47056e-05
2.75325e-05
3.20016e-05
4.40447e-05
0.000824718
0.00150957
0.0011029
1.70543e-06
3.37758e-06
1.13405e-05
1.74586e-05
1.96939e-05
3.79307e-06
6.59933e-06
1.0114e-05
1.32023e-05
1.56182e-05
1.73442e-05
1.87955e-05
2.03613e-05
2.23081e-05
2.52146e-05
2.91899e-05
4.08802e-05
0.000791714
0.00041716
2.47317e-05
2.90029e-06
7.58818e-06
1.3835e-05
1.89743e-05
1.61975e-05
5.76273e-06
2.821e-06
3.98862e-06
6.58623e-06
9.63757e-06
1.24287e-05
1.49473e-05
1.74681e-05
2.00854e-05
2.29166e-05
2.61565e-05
3.66468e-05
0.000658086
7.52412e-05
5.53055e-06
3.64354e-06
8.17923e-06
1.42529e-05
1.89028e-05
1.64468e-05
8.48475e-06
3.7569e-06
2.75498e-06
3.19705e-06
4.78992e-06
7.56733e-06
1.08056e-05
1.39457e-05
1.70778e-05
2.0305e-05
2.31581e-05
3.26533e-05
0.000714382
4.29195e-05
5.25237e-06
4.56386e-06
8.89495e-06
1.47829e-05
1.89227e-05
1.66707e-05
1.09279e-05
5.77936e-06
3.09624e-06
2.85573e-06
3.30391e-06
4.84904e-06
7.40547e-06
1.03755e-05
1.35318e-05
1.71319e-05
2.02048e-05
2.88704e-05
0.000906649
5.51546e-05
5.62891e-06
5.66895e-06
9.8484e-06
1.54537e-05
1.90206e-05
1.69671e-05
1.2843e-05
8.10512e-06
4.31515e-06
3.27336e-06
3.47294e-06
4.19418e-06
5.48457e-06
7.63219e-06
1.04863e-05
1.4345e-05
1.77091e-05
2.58638e-05
0.00103541
9.3921e-05
6.52497e-06
7.03443e-06
1.10696e-05
1.62386e-05
1.92622e-05
1.74327e-05
1.42343e-05
1.03002e-05
6.45416e-06
4.51122e-06
4.15996e-06
4.44786e-06
5.44682e-06
6.98608e-06
9.12855e-06
1.24276e-05
1.53484e-05
2.22007e-05
0.00115082
0.000181956
8.76886e-06
8.67783e-06
1.25133e-05
1.72284e-05
1.96908e-05
1.80408e-05
1.54752e-05
1.23725e-05
9.05152e-06
6.47368e-06
5.29974e-06
5.33306e-06
5.94853e-06
7.26387e-06
9.16889e-06
1.17988e-05
1.43e-05
2.06049e-05
0.00125508
0.000327001
1.50882e-05
1.0423e-05
1.4269e-05
1.84925e-05
2.03554e-05
1.88961e-05
1.68194e-05
1.45056e-05
1.17066e-05
8.79537e-06
6.90978e-06
6.76658e-06
7.11498e-06
8.00833e-06
9.37316e-06
1.1656e-05
1.43321e-05
2.10163e-05
0.00134019
0.00049147
3.11817e-05
1.18836e-05
1.63192e-05
1.99221e-05
2.15549e-05
2.02788e-05
1.84764e-05
1.67382e-05
1.4362e-05
1.13786e-05
8.98715e-06
8.65506e-06
8.86967e-06
9.2664e-06
1.00642e-05
1.2017e-05
1.48663e-05
2.23064e-05
0.00142052
0.000631361
6.2389e-05
1.31572e-05
1.78051e-05
2.2215e-05
2.37078e-05
2.26663e-05
2.09702e-05
1.91584e-05
1.70818e-05
1.4379e-05
1.20678e-05
1.12314e-05
1.13441e-05
1.13845e-05
1.1811e-05
1.36503e-05
1.67609e-05
2.4792e-05
0.00153668
0.000765272
0.000104791
1.47631e-05
1.82656e-05
2.45118e-05
2.70806e-05
2.64587e-05
2.44214e-05
2.19725e-05
1.95693e-05
1.70214e-05
1.49845e-05
1.34941e-05
1.35255e-05
1.37303e-05
1.44224e-05
1.65466e-05
1.96204e-05
2.74759e-05
0.00156921
0.000910437
0.00019281
2.36541e-05
2.01224e-05
2.56536e-05
3.23173e-05
3.66553e-05
3.44334e-05
3.11207e-05
2.78333e-05
2.47619e-05
2.21535e-05
1.90501e-05
1.86765e-05
1.92768e-05
2.08884e-05
2.37961e-05
2.68212e-05
3.44175e-05
0.00468696
0.00590519
0.00605497
0.00362779
0.0027842
0.00243562
0.00218935
0.00197627
0.00176992
0.00170016
0.00151939
0.00156575
0.00157404
0.00159452
0.00164798
0.00170097
0.00174888
0.00180355
0.00187094
0.00183474
0.00592209
0.013809
0.0155902
0.0106782
0.00833516
0.00784154
0.00694128
0.00548369
0.00409123
0.00152062
0.000391324
0.000216848
0.000222277
0.000292787
0.000468947
0.000686481
0.000880829
0.00102671
0.00117698
0.00124086
0.00606878
0.0152293
0.0145333
0.00884872
0.0098274
0.00935203
0.00950349
0.00661316
0.00127121
4.1408e-05
6.71143e-06
7.69464e-06
9.96799e-06
1.57447e-05
3.11373e-05
6.61114e-05
0.000127086
0.000214055
0.000326672
0.000496694
0.00382855
0.0111781
0.00909985
0.0010825
0.00566722
7.50973e-11
0.0187994
0.000173244
1.41204e-06
3.00079e-06
3.91404e-06
5.05477e-06
6.43994e-06
8.20177e-06
1.06742e-05
1.4711e-05
2.14184e-05
3.31037e-05
5.12429e-05
0.000107648
0.00287652
0.00951592
0.00880151
1.31636e-06
3.86067e-06
8.06236e-06
8.71798e-06
9.54296e-06
1.06695e-05
1.21672e-05
1.40662e-05
1.65692e-05
2.00803e-05
2.3857e-05
2.68704e-05
3.74624e-05
0.00242139
0.00855534
0.0101442
0.00679271
1.293e-05
1.52049e-05
1.57225e-05
1.6291e-05
1.70126e-05
1.78907e-05
1.90288e-05
2.05434e-05
2.25938e-05
2.61224e-05
2.98211e-05
3.48619e-05
0.00213303
0.00715867
0.00981969
0.0309569
2.05209e-05
2.15162e-05
2.14066e-05
2.13774e-05
2.14286e-05
2.16005e-05
2.1998e-05
2.27552e-05
2.42328e-05
2.71472e-05
3.19974e-05
3.95109e-05
0.00190394
0.00548011
0.00667247
0.000192979
2.39869e-05
1.8555e-05
1.87208e-05
1.88806e-05
1.91765e-05
1.96884e-05
2.03696e-05
2.14061e-05
2.31647e-05
2.6257e-05
3.11958e-05
4.3919e-05
0.00168128
0.00407876
0.00150271
1.29477e-06
3.27102e-06
1.07182e-05
1.67736e-05
1.92001e-05
3.67531e-06
6.35017e-06
9.66909e-06
1.24649e-05
1.45982e-05
1.61027e-05
1.75036e-05
1.91031e-05
2.11406e-05
2.41717e-05
2.83947e-05
4.07984e-05
0.00158532
0.00151046
4.71273e-05
2.55255e-06
6.67865e-06
1.25073e-05
1.75612e-05
1.51277e-05
5.44047e-06
2.81455e-06
3.87688e-06
6.2848e-06
9.06333e-06
1.17109e-05
1.41488e-05
1.65534e-05
1.90538e-05
2.1841e-05
2.52196e-05
3.64952e-05
0.00137948
0.000371884
5.75889e-06
3.29442e-06
7.2205e-06
1.28743e-05
1.74526e-05
1.53188e-05
8.02613e-06
3.59311e-06
2.75776e-06
3.14548e-06
4.75124e-06
7.368e-06
1.03021e-05
1.32959e-05
1.62235e-05
1.93005e-05
2.23489e-05
3.25028e-05
0.00140673
0.000172709
6.39836e-06
4.20578e-06
7.91097e-06
1.3363e-05
1.73815e-05
1.54135e-05