/*--------------------------------*- C++ -*----------------------------------*\
  =========                 |
  \\      /  F ield         | OpenFOAM: The Open Source CFD Toolbox
   \\    /   O peration     | Website:  https://openfoam.org
    \\  /    A nd           | Version:  9
     \\/     M anipulation  |
\*---------------------------------------------------------------------------*/
FoamFile
{
    format      ascii;
    class       volScalarField;
    location    "0.0055";
    object      rho.C4;
}
// * * * * * * * * * * * * * * * * * * * * * * * * * * * * * * * * * * * * * //

dimensions      [1 -3 0 0 0 0 0];

internalField   nonuniform List<scalar> 
9720
(
10.1232
10.05
10.2056
8.82662
8.08323
7.72591
7.31163
6.45965
5.38749
4.49221
3.76485
3.28347
3.10326
3.04401
3.0469
3.09137
3.16889
3.24272
3.29501
3.29544
10.0515
9.90807
10.1183
7.35051
7.02899
7.45303
7.26372
6.20863
4.52191
3.22257
2.47747
2.22616
2.29559
2.43932
2.5927
2.71662
2.83661
2.93092
2.9843
2.97836
10.1484
10.1764
7.48818
5.61261
6.50019
7.48946
7.45349
6.16528
3.80432
2.30813
1.83036
1.87032
2.00194
2.26334
2.62855
2.88414
3.02683
3.13115
3.17026
3.13875
8.80922
7.3213
5.59876
4.66323
5.43389
7.59201
7.90678
6.90758
3.74259
1.25275
1.33818
1.50722
1.72311
1.99908
2.40566
2.84951
3.23817
3.4328
3.42283
3.33194
7.99989
6.87015
6.29529
5.33125
1.02161
1.33484
1.43769
1.55221
1.67928
1.84207
2.09165
2.52834
3.0933
3.53013
3.64575
3.59263
7.56359
7.24215
7.26565
7.38691
1.72033
1.76388
1.75739
1.76421
1.78917
1.84492
1.9519
2.15415
2.5392
3.08859
3.52097
3.6084
7.14086
7.05095
7.22776
7.70565
1.93998
1.81296
1.7924
1.76796
1.75476
1.76558
1.79892
1.88526
2.08154
2.45339
2.98102
3.40813
6.31036
6.01973
5.95124
6.6989
1.65991
1.31002
1.36697
1.40729
1.44537
1.48094
1.52591
1.59681
1.71934
1.94539
2.32964
2.96439
5.2535
4.36186
3.62665
3.42743
0.947409
1.6918
1.8743
1.58556
0.262269
0.410932
0.631004
0.822984
0.965755
1.07504
1.16408
1.24406
1.34349
1.49239
1.72984
2.30015
4.37669
3.11747
2.2333
1.23595
1.31565
1.72251
1.74467
1.279
0.445989
0.200223
0.256715
0.389451
0.547726
0.700857
0.839958
0.952797
1.04907
1.17347
1.3398
1.79646
3.66545
2.4016
1.80828
1.33364
1.42561
1.70983
1.72578
1.34008
0.669583
0.272676
0.189419
0.210776
0.292727
0.426515
0.571707
0.698598
0.809293
0.919934
1.05557
1.43156
3.20449
2.17656
1.8492
1.51031
1.54559
1.7191
1.7035
1.3754
0.857298
0.424041
0.217175
0.216047
0.236343
0.291992
0.382711
0.491776
0.608787
0.728021
0.84081
1.14216
3.04436
2.25337
1.97213
1.72354
1.67444
1.74834
1.7062
1.41363
0.991908
0.591268
0.315107
0.241706
0.245049
0.253763
0.287345
0.36167
0.471059
0.593059
0.688258
0.919649
3.00056
2.40675
2.22418
1.99003
1.83355
1.80567
1.72335
1.45248
1.09437
0.74462
0.464196
0.310673
0.257808
0.256712
0.272996
0.314763
0.393823
0.491946
0.567906
0.750218
3.00384
2.56986
2.58573
2.37558
2.07117
1.9147
1.76563
1.50186
1.17931
0.879822
0.615281
0.412308
0.301307
0.276069
0.285218
0.315531
0.355057
0.415044
0.47866
0.635248
3.04757
2.69095
2.85405
2.80366
2.48141
2.11674
1.86161
1.57878
1.2584
0.988355
0.740224
0.525886
0.385255
0.3268
0.318513
0.328032
0.35242
0.389938
0.440023
0.574123
3.12185
2.80634
2.99495
3.18104
3.02568
2.49647
2.0629
1.70708
1.35938
1.08301
0.848972
0.645462
0.501208
0.416204
0.369488
0.35699
0.365779
0.395706
0.442786
0.554749
3.18967
2.89469
3.09374
3.37443
3.45241
3.03083
2.43431
1.93807
1.51208
1.2076
0.958431
0.766666
0.627542
0.521732
0.439222
0.401695
0.403528
0.422501
0.457605
0.545852
3.23316
2.93892
3.12302
3.36765
3.58089
3.45046
2.93832
2.3193
1.75232
1.37561
1.09508
0.882331
0.727292
0.602058
0.506869
0.456253
0.45599
0.465042
0.487245
0.551716
3.2305
2.93025
3.09003
3.28252
3.53362
3.54286
3.34794
2.92901
2.30781
1.82623
1.46971
1.18634
0.964646
0.791132
0.669709
0.600827
0.578513
0.565258
0.566209
0.591876
9.77475
9.71209
9.76298
8.31361
7.59883
7.34615
6.98713
6.18106
5.14419
4.27511
3.56601
3.08837
2.90463
2.86083
2.85963
2.90154
2.98008
3.05974
3.12034
3.12161
9.73389
9.61815
9.53097
6.8448
6.6425
7.12534
6.98885
5.98655
4.33571
3.06317
2.34109
2.07048
2.13168
2.26678
2.41948
2.53939
2.66177
2.76323
2.83076
2.82857
9.7401
9.72699
6.75243
5.19324
6.26428
7.27446
7.21016
5.97121
3.63373
2.16811
1.71001
1.74622
1.85798
2.08511
2.41753
2.68923
2.84304
2.95798
3.0154
2.99322
8.36318
6.85746
5.17011
4.31299
5.44146
7.33364
7.64033
6.67324
3.60386
1.15953
1.2383
1.39585
1.59327
1.84457
2.20683
2.62409
2.99847
3.2406
3.24999
3.18537
7.55831
6.49684
6.00859
4.99092
0.967846
1.24592
1.32958
1.42783
1.54308
1.69132
1.91218
2.2879
2.82244
3.25708
3.4582
3.43068
7.18822
6.90813
7.03977
7.12996
1.60607
1.65032
1.62453
1.62405
1.63827
1.68148
1.7711
1.94009
2.26874
2.78487
3.23079
3.41639
6.81773
6.77448
7.00107
7.45048
1.8039
1.69013
1.66014
1.62987
1.60562
1.61144
1.63685
1.70522
1.86089
2.18044
2.66001
3.14711
6.02205
5.80541
5.78878
6.49132
1.54751
1.21989
1.26277
1.29074
1.319
1.34824
1.38461
1.44307
1.54263
1.72654
2.05102
2.66829
5.00075
4.18544
3.49858
3.38071
0.934664
1.59034
1.75428
1.47661
0.239544
0.371275
0.572681
0.745558
0.870017
0.964483
1.04705
1.12122
1.20805
1.33349
1.5262
2.03411
4.14891
2.95252
2.0987
1.15255
1.23766
1.62085
1.63272
1.18739
0.401269
0.172918
0.225942
0.346568
0.487246
0.621304
0.744637
0.850055
0.937956
1.04615
1.18381
1.57924
3.45842
2.24794
1.66551
1.23385
1.32494
1.59267
1.60671
1.23832
0.60409
0.237124
0.158103
0.175523
0.248269
0.363324
0.489391
0.612169
0.719018
0.819921
0.933767
1.25546
3.00331
2.0057
1.69917
1.38971
1.42143
1.59315
1.58198
1.26607
0.772427
0.371066
0.181505
0.176944
0.192355
0.2399
0.324059
0.429323
0.53916
0.644132
0.738846
1.00031
2.84672
2.08016
1.80597
1.57794
1.53053
1.6083
1.56844
1.29346
0.893441
0.522421
0.267222
0.195992
0.19928
0.211806
0.244977
0.31192
0.408331
0.512935
0.598254
0.809288
2.82032
2.23643
2.03917
1.81308
1.66868
1.64996
1.57642
1.32194
0.986213
0.662588
0.397099
0.25471
0.214648
0.215446
0.22753
0.260264
0.325374
0.418337
0.498182
0.668014
2.82135
2.40264
2.38058
2.16468
1.87625
1.73732
1.60496
1.35876
1.06603
0.788389
0.53358
0.351568
0.257336
0.230726
0.236269
0.260898
0.298756
0.361491
0.424592
0.566466
2.85857
2.51561
2.66046
2.58722
2.24044
1.90404
1.67673
1.42004
1.13762
0.890849
0.658618
0.46357
0.333878
0.272451
0.264273
0.274784
0.301546
0.341565
0.386756
0.50454
2.92739
2.62525
2.80663
2.9544
2.77161
2.23429
1.83615
1.52407
1.22283
0.974794
0.762204
0.576035
0.43715
0.3473
0.310668
0.30693
0.317508
0.346703
0.387745
0.483696
2.99685
2.71648
2.91079
3.1891
3.20464
2.74648
2.16287
1.71602
1.34943
1.08083
0.860077
0.683086
0.546763
0.446785
0.38337
0.35302
0.354494
0.370281
0.397496
0.476963
3.04505
2.77083
2.95356
3.19489
3.40051
3.17936
2.63002
2.04702
1.54689
1.21916
0.974122
0.780846
0.637873
0.532059
0.45201
0.404295
0.398858
0.404184
0.421856
0.485209
3.04305
2.76524
2.92799
3.12798
3.36991
3.35862
3.098
2.64794
2.05069
1.6143
1.29806
1.04747
0.856743
0.709712
0.60102
0.531396
0.504349
0.49336
0.497874
0.528946
9.68385
9.72508
9.70563
8.06234
7.31586
7.15034
6.83559
6.05033
5.03163
4.17196
3.47392
2.98908
2.79568
2.76821
2.78152
2.82384
2.89788
2.97757
3.04195
3.04573
9.75405
9.77707
9.0834
6.52065
6.41339
6.95863
6.85466
5.86747
4.24797
2.98302
2.28983
2.00231
2.054
2.17727
2.33532
2.46459
2.58898
2.69413
2.77047
2.77206
9.59853
9.38649
6.12201
4.90748
6.08614
7.11658
7.06011
5.83992
3.54079
2.09456
1.67459
1.71803
1.81181
2.00113
2.29524
2.58963
2.76556
2.88656
2.95435
2.93827
8.01493
6.44931
4.80704
4.01965
5.31455
7.13368
7.45225
6.50367
3.4055
1.09615
1.17878
1.34794
1.54658
1.78998
2.13063
2.54369
2.905
3.17608
3.19953
3.14253
7.22338
6.22886
5.84156
4.85322
0.88542
1.1761
1.2459
1.33682
1.45664
1.61211
1.82623
2.17017
2.69036
3.14542
3.4096
3.39497
6.97748
6.7451
6.8953
6.96618
1.51998
1.56811
1.54072
1.54083
1.55511
1.59418
1.67298
1.81874
2.1045
2.6129
3.10664
3.37846
6.67289
6.66673
6.88693
7.26823
1.70431
1.5993
1.56994
1.54603
1.52716
1.53291
1.55467
1.60926
1.73308
2.0068
2.46759
3.03814
5.89698
5.72209
5.72386
6.34975
1.45503
1.15223
1.19584
1.22153
1.24932
1.28201
1.31698
1.36731
1.44774
1.59406
1.86749
2.48935
4.89292
4.13127
3.47716
3.34715
0.875238
1.50693
1.65392
1.39151
0.213803
0.346148
0.533272
0.698384
0.824908
0.915725
0.996428
1.06797
1.14491
1.24943
1.40487
1.86719
4.03804
2.86611
2.0153
1.06675
1.16775
1.54024
1.54775
1.10608
0.350142
0.150411
0.202199
0.319718
0.455917
0.586485
0.704055
0.809008
0.892934
0.983202
1.09604
1.44446
3.35578
2.17628
1.59158
1.13533
1.2344
1.51268
1.52326
1.1574
0.537102
0.207019
0.132668
0.147767
0.216796
0.330938
0.456074
0.573473
0.677582
0.772564
0.86872
1.14639
2.89504
1.91845
1.6411
1.29237
1.317
1.51325
1.50189
1.18659
0.69914
0.327918
0.151818
0.142841
0.1565
0.206343
0.288266
0.389409
0.49696
0.601159
0.687453
0.915075
2.72741
1.98831
1.73755
1.48451
1.42432
1.5274
1.49046
1.21355
0.821239
0.467386
0.228306
0.159024
0.163377
0.176422
0.2102
0.273382
0.363656
0.471562
0.555694
0.744279
2.71434
2.13274
1.94098
1.716
1.56556
1.56587
1.49899
1.24477
0.911419
0.601246
0.350047
0.216924
0.178848
0.181441
0.194003
0.223534
0.285423
0.378138
0.459264
0.616302
2.72865
2.31106
2.25717
2.04986
1.76383
1.64176
1.52283
1.27924
0.993969
0.72486
0.48397
0.30905
0.220751
0.196559
0.202556
0.22589
0.262485
0.324208
0.387245
0.517946
2.76977
2.44114
2.57862
2.49008
2.09281
1.78273
1.57799
1.33198
1.06763
0.834613
0.609411
0.418957
0.293811
0.234255
0.229828
0.240686
0.265093
0.303202
0.346372
0.456723
2.83996
2.55941
2.75772
2.86838
2.62372
2.06475
1.70277
1.41868
1.14714
0.919755
0.715537
0.532337
0.392956
0.307861
0.274622
0.269505
0.279152
0.307625
0.347707
0.442466
2.91226
2.65666
2.87177
3.14918
3.11312
2.57154
1.97961
1.57463
1.25592
1.01028
0.80894
0.640052
0.507459
0.409939
0.346452
0.312784
0.31384
0.330006
0.362139
0.444962
2.96588
2.71749
2.91698
3.17202
3.37706
3.06713
2.43703
1.85807
1.41713
1.12494
0.906139
0.729086
0.596655
0.495147
0.41485
0.360788
0.358233
0.368008
0.390088
0.45496
2.96604
2.71264
2.88934
3.10641
3.35316
3.3311
2.99504
2.47488
1.88211
1.47807
1.19025
0.964427
0.793405
0.658565
0.552696
0.480753
0.46079
0.458738
0.465067
0.496376
9.69084
9.75706
9.61973
7.84618
7.12969
7.0543
6.76966
5.98998
4.9524
4.0945
3.4137
2.93896
2.74658
2.73435
2.75399
2.8031
2.87748
2.95581
3.01532
3.01384
9.80704
9.86063
8.55134
6.25968
6.27182
6.88945
6.82562
5.82798
4.18253
2.8974
2.22124
1.95736
2.01737
2.14835
2.31194
2.44969
2.57969
2.68691
2.7595
2.75693
9.56966
8.9525
5.66342
4.69687
5.9695
7.04445
7.01865
5.79655
3.48203
2.01077
1.61354
1.67322
1.78199
1.97497
2.2672
2.58048
2.7703
2.88946
2.95309
2.93246
7.77225
6.16487
4.61436
3.87534
5.05673
7.01648
7.3539
6.40841
3.21725
1.03074
1.1041
1.2797
1.48911
1.73795
2.09258
2.53773
2.90837
3.17869
3.20925
3.14362
7.00131
6.09403
5.80606
4.96622
0.857638
1.14546
1.20983
1.28862
1.39646
1.54494
1.75347
2.08612
2.60116
3.10627
3.4137
3.41218
6.87396
6.68767
6.85835
6.86348
1.46932
1.53155
1.5071
1.50354
1.51392
1.54602
1.61366
1.74361
1.9875
2.4578
3.03355
3.38409
6.60851
6.6519
6.85104
7.165
1.63731
1.55632
1.52839
1.50498
1.48337
1.48625
1.50127
1.54319
1.64324
1.86425
2.28496
2.95059
5.85199
5.70288
5.69694
6.2734
1.39748
1.10674
1.14959
1.17767
1.20239
1.23298
1.2649
1.30754
1.37577
1.49476
1.71477
2.32238
4.85079
4.11196
3.4459
3.23668
0.886188
1.45023
1.59698
1.34205
0.190887
0.313336
0.49243
0.656673
0.788125
0.879842
0.958257
1.02987
1.10122
1.19131
1.31567
1.72589
3.99751
2.83217
1.97198
1.02241
1.14302
1.50877
1.51809
1.081
0.333309
0.133627
0.181574
0.293173
0.428052
0.55824
0.674002
0.781105
0.87447
0.956073
1.04611
1.34108
3.32299
2.15557
1.55693
1.08663
1.20743
1.48573
1.49552
1.13059
0.513638
0.190002
0.11544
0.131258
0.196513
0.306956
0.430788
0.553082
0.662947
0.758474
0.838132
1.07446
2.84956
1.88653
1.61727
1.2476
1.28419
1.48595
1.47618
1.16161
0.673032
0.308604
0.136745
0.117011
0.129897
0.179271
0.265464
0.368078
0.475763
0.585439
0.668356
0.868589
2.65303
1.94127
1.71513
1.44773
1.38411
1.49775
1.46295
1.18733
0.796532
0.444815
0.20929
0.133058
0.135712
0.150125
0.184365
0.249308
0.338501
0.448449
0.539553
0.713781
2.63978
2.06559
1.89264
1.68229
1.52096
1.5307
1.46895
1.21933
0.88512
0.574054
0.325266
0.190949
0.153173
0.15562
0.171877
0.202805
0.262258
0.354916
0.439666
0.589859
2.65937
2.23403
2.17074
2.00502
1.71351
1.59713
1.48737
1.25313
0.96195
0.692389
0.456426
0.285124
0.194441
0.173562
0.181664
0.20517
0.239571
0.299262
0.363927
0.493192
2.70363
2.37104
2.49106
2.42941
2.01609
1.72173
1.53035
1.29735
1.03478
0.803889
0.582448
0.392867
0.266127
0.210358
0.206964
0.21706
0.238722
0.274441
0.320417
0.430513
2.77393
2.49763
2.69495
2.80811
2.50467
1.95276
1.62935
1.36851
1.1092
0.897171
0.692323
0.503028
0.360906
0.278758
0.24762
0.240908
0.248978
0.277995
0.320829
0.417233
2.84873
2.60131
2.81446
3.09634
3.02667
2.40743
1.84669
1.49158
1.2041
0.977062
0.783302
0.612487
0.474897
0.377963
0.315919
0.280861
0.281699
0.29993
0.33467
0.421791
2.90788
2.67404
2.87774
3.15067
3.36032
2.98568
2.26118
1.71587
1.33361
1.06725
0.861865
0.694948
0.566341
0.46526
0.385486
0.330898
0.327007
0.33802
0.363165
0.43388
2.90686
2.67046
2.85662
3.08605
3.35969
3.33567
2.91669
2.32179
1.7485
1.36835
1.10449
0.899956
0.745256
0.619083
0.517803
0.445403
0.426079
0.429731
0.440565
0.477023
9.6913
9.78886
9.58051
7.67912
7.00387
6.99552
6.72334
5.94226
4.8946
4.03143
3.36501
2.89149
2.69038
2.69976
2.72901
2.78575
2.86458
2.94734
3.0136
3.01231
9.83799
9.92116
8.29694
6.09627
6.23014
6.86983
6.81378
5.81403
4.14193
2.83581
2.17491
1.92197
1.98162
2.11834
2.29247
2.43737
2.57227
2.68473
2.7657
2.76427
9.57361
8.64689
5.45914
4.60258
5.99711
7.03808
7.01867
5.81203
3.44847
1.94866
1.56257
1.63457
1.74996
1.94754
2.24154
2.56634
2.77439
2.89459
2.95793
2.93535
7.64901
6.03207
4.53229
3.80347
5.08645
6.98775
7.34088
6.41259
3.22556
1.00564
1.07364
1.24479
1.46069
1.71039
2.06018
2.51698
2.90746
3.19493
3.2321
3.16194
6.91636
6.04952
5.77485
4.89937
0.875246
1.14166
1.2109
1.29044
1.39175
1.5304
1.72819
2.04404
2.55164
3.08887
3.42783
3.43742
6.83196
6.66783
6.86263
6.86018
1.45537
1.51767
1.50104
1.50164
1.51249
1.54224
1.60302
1.72194
1.93788
2.36595
2.97642
3.3873
6.58782
6.65715
6.86847
7.17
1.61578
1.54191
1.52166
1.50433
1.48433
1.48575
1.49679
1.52946
1.61331
1.79913
2.1734
2.87474
5.83176
5.7021
5.70857
6.2866
1.37953
1.08833
1.13682
1.17277
1.19892
1.22893
1.25835
1.29542
1.35608
1.45913
1.64321
2.21171
4.82537
4.09274
3.4162
3.19446
0.866052
1.45376
1.59904
1.33619
0.186648
0.301127
0.476959
0.642164
0.778725
0.875466
0.953592
1.02314
1.08907
1.17058
1.27767
1.64427
3.97617
2.81464
1.95034
1.0063
1.14819
1.51475
1.52239
1.08206
0.332663
0.127585
0.175354
0.285229
0.42078
0.550579
0.665916
0.773042
0.869311
0.947302
1.02675
1.28679
3.30518
2.14785
1.54813
1.07025
1.20927
1.49127
1.49911
1.13273
0.512576
0.185886
0.111271
0.128192
0.188102
0.29649
0.427682
0.549859
0.659563
0.755828
0.827586
1.03769
2.82598
1.87384
1.61061
1.23174
1.27927
1.4854
1.48235
1.16923
0.673667
0.307176
0.135256
0.103065
0.117157
0.171981
0.2625
0.366022
0.471144
0.579509
0.662144
0.84583
2.61849
1.92376
1.71191
1.43357
1.37063
1.49355
1.46644
1.19497
0.800376
0.447177
0.204918
0.120853
0.12425
0.139828
0.175629
0.241845
0.330295
0.443435
0.536137
0.701319
2.60907
2.04149
1.88043
1.67009
1.50068
1.51933
1.46873
1.22431
0.890665
0.575727
0.319663
0.183257
0.142923
0.145741
0.162713
0.194697
0.255697
0.350254
0.435536
0.581877
2.62778
2.1991
2.1405
1.99209
1.68897
1.57663
1.48013
1.25296
0.965123
0.690532
0.453208
0.279615
0.18408
0.163797
0.173154
0.198074
0.23366
0.292954
0.356258
0.481702
2.66979
2.33503
2.44742
2.4071
1.98578
1.69204
1.5122
1.28791
1.03302
0.798886
0.575974
0.386314
0.254678
0.198644
0.199347
0.209469
0.227574
0.260736
0.306582
0.41615
2.73836
2.46328
2.65577
2.77943
2.45689
1.90129
1.59639
1.34725
1.09834
0.891889
0.683946
0.492343
0.346041
0.265189
0.238611
0.229131
0.235441
0.262136
0.306953
0.412695
2.81172
2.56744
2.77541
3.05834
2.97032
2.31204
1.78096
1.45115
1.18082
0.965734
0.775979
0.599256
0.462183
0.367482
0.305227
0.264383
0.263587
0.283666
0.326537
0.422693
2.87248
2.64209
2.84586
3.12761
3.32482
2.91541
2.15182
1.63895
1.29087
1.04373
0.845259
0.680084
0.555226
0.453633
0.371532
0.311878
0.309316
0.327254
0.362148
0.43866
2.87262
2.64099
2.82569
3.06832
3.34599
3.31018
2.83665
2.21226
1.66513
1.30788
1.0592
0.866053
0.720315
0.598701
0.496414
0.423976
0.418019
0.428105
0.443871
0.481786
9.69167
9.78865
9.57671
7.65787
6.99037
6.99083
6.7189
5.94086
4.89218
4.02809
3.35992
2.88732
2.68507
2.69786
2.73211
2.79498
2.87747
2.9596
3.02501
3.02398
9.84754
9.92603
8.28432
6.07533
6.23669
6.87383
6.8141
5.81346
4.14094
2.83277
2.17055
1.91677
1.97507
2.11053
2.29071
2.44478
2.58542
2.69841
2.77693
2.77487
9.58827
8.62117
5.42998
4.58195
6.02625
7.04045
7.01739
5.81171
3.44706
1.94495
1.56131
1.63505
1.74782
1.93616
2.22946
2.56906
2.78887
2.9108
2.97202
2.94722
7.65173
6.01174
4.51095
3.76179
5.23963
6.95713
7.33504
6.42636
3.20728
1.00397
1.07199
1.24448
1.45756
1.70212
2.0482
2.51062
2.90916
3.19953
3.24262
3.17211
6.92188
6.03189
5.73768
4.735
0.835167
1.13294
1.19944
1.27682
1.37822
1.51596
1.71188
2.02516
2.53291
3.0761
3.42451
3.44024
6.83626
6.6631
6.85926
6.87345
1.44326
1.50922
1.48948
1.48865
1.49785
1.52617
1.58617
1.70487
1.91996
2.34777
2.96713
3.38343
6.59028
6.65426
6.8692
7.1931
1.60157
1.53474
1.51275
1.49482
1.47364
1.47431
1.48391
1.51515
1.59757
1.78115
2.15343
2.85944
5.82544
5.69345
5.7039
6.29631
1.36432
1.08748
1.13413
1.16814
1.19294
1.22176
1.25122
1.28845
1.34844
1.45018
1.63142
2.19799
4.81937
4.08867
3.42257
3.26525
0.822952
1.45107
1.59793
1.34029
0.184925
0.308509
0.48208
0.645115
0.778929
0.875161
0.950356
1.01863
1.08479
1.16649
1.27303
1.63742
3.97627
2.81347
1.95235
1.00076
1.13507
1.50864
1.52122
1.07829
0.323705
0.126621
0.17528
0.286608
0.423333
0.551694
0.665576
0.770895
0.864587
0.943404
1.02253
1.28032
3.30735
2.14664
1.55219
1.06698
1.20231
1.48954
1.50149
1.12982
0.50186
0.183992
0.110801
0.128265
0.189549
0.298255
0.426016
0.545315
0.654562
0.750693
0.821145
1.03114
2.83075
1.87871
1.616
1.23243
1.2782
1.48941
1.48607
1.16572
0.664022
0.303105
0.133906
0.103361
0.117178
0.169792
0.259204
0.362202
0.466758
0.574851
0.656192
0.837028
2.62739
1.93149
1.71942
1.43926
1.37657
1.49969
1.47109
1.19232
0.792645
0.440914
0.2031
0.119952
0.122413
0.137292
0.172879
0.239294
0.32785
0.439545
0.529487
0.692797
2.61655
2.05081
1.89105
1.68063
1.51346
1.52922
1.47415
1.22248
0.885215
0.570334
0.316845
0.179094
0.139907
0.143032
0.160794
0.192875
0.252893
0.34639
0.430103
0.576491
2.6327
2.20698
2.15502
2.01432
1.70696
1.58988
1.48751
1.25339
0.962421
0.68694
0.448446
0.275396
0.181257
0.162077
0.171522
0.196026
0.23155
0.290662
0.353352
0.47827
2.67288
2.3415
2.45987
2.43945
2.00984
1.70838
1.52163
1.29204
1.03387
0.795439
0.573143
0.383813
0.253439
0.197122
0.197335
0.207317
0.226106
0.259053
0.304578
0.413202
2.74041
2.46705
2.66316
2.80425
2.48738
1.9204
1.60811
1.35407
1.10239
0.890464
0.684366
0.492862
0.346477
0.263404
0.236722
0.227904
0.234172
0.260529
0.305017
0.410273
2.81339
2.56865
2.77915
3.06695
2.99289
2.33391
1.79743
1.46013
1.18731
0.968296
0.778572
0.60231
0.462138
0.365485
0.304224
0.26372
0.262842
0.282715
0.325037
0.420764
2.87028
2.63841
2.84088
3.12076
3.33539
2.91477
2.15789
1.64626
1.29778
1.04813
0.849548
0.68286
0.556015
0.454828
0.372911
0.312405
0.309528
0.326964
0.361304
0.437218
2.86895
2.63617
2.82085
3.06132
3.34655
3.31421
2.83028
2.20611
1.6663
1.31215
1.06251
0.869413
0.725122
0.604423
0.501254
0.426817
0.4189
0.428635
0.444022
0.481522
9.69246
9.75777
9.60121
7.78816
7.08686
7.04812
6.76348
5.98506
4.93894
4.0827
3.40868
2.93668
2.74234
2.73217
2.75722
2.81267
2.89332
2.97924
3.04397
3.04124
9.82336
9.88049
8.52181
6.22635
6.29012
6.90751
6.83491
5.83517
4.1676
2.87287
2.20744
1.94838
2.00867
2.13829
2.30573
2.45051
2.58825
2.70444
2.78597
2.78325
9.59286
8.92167
5.63212
4.67105
6.05875
7.05952
7.02817
5.81562
3.4584
1.97817
1.5911
1.65724
1.76762
1.95613
2.24305
2.5678
2.776
2.90003
2.96872
2.95063
7.78603
6.13366
4.57776
3.78871
5.2735
6.95384
7.32304
6.41304
3.20892
1.01624
1.09272
1.27053
1.4799
1.72704
2.07284
2.51694
2.90347
3.18498
3.22376
3.15853
6.99459
6.04827
5.72671
4.73946
0.849435
1.12507
1.19097
1.27144
1.38032
1.52569
1.7284
2.05103
2.56404
3.08688
3.41181
3.41619
6.8562
6.65713
6.84636
6.86323
1.43608
1.4993
1.47601
1.47452
1.48535
1.5175
1.58383
1.71001
1.94592
2.414
3.00549
3.37533
6.59886
6.63109
6.85047
7.17888
1.59627
1.52454
1.49933
1.47946
1.46037
1.46289
1.47665
1.51566
1.61042
1.82234
2.23599
2.91719
5.83003
5.67758
5.68256
6.28059
1.36067
1.08924
1.13357
1.16195
1.18647
1.21744
1.25079
1.29396
1.36092
1.47546
1.68659
2.28924
4.82758
4.0756
3.40329
3.17876
0.835764
1.43883
1.58977
1.34074
0.181075
0.318155
0.495989
0.656174
0.784518
0.874334
0.950384
1.02176
1.09257
1.18099
1.30196
1.70536
3.99184
2.81997
1.95857
1.02124
1.13522
1.50502
1.51965
1.07789
0.321281
0.132777
0.182218
0.29561
0.429613
0.557986
0.673066
0.777499
0.86909
0.947483
1.03403
1.32257
3.32435
2.15412
1.56646
1.09075
1.20064
1.48024
1.4968
1.12766
0.499837
0.185823
0.115477
0.131904
0.198127
0.309084
0.434287
0.554727
0.659596
0.750812
0.828761
1.06067
2.85814
1.89876
1.62581
1.25822
1.27938
1.47997
1.47742
1.1583
0.660568
0.301744
0.135176
0.1161
0.12941
0.1806
0.269468
0.369833
0.474549
0.582525
0.662024
0.857909
2.66907
1.95862
1.72829
1.46298
1.38394
1.49242
1.46202
1.18304
0.78796
0.437316
0.206093
0.131276
0.134426
0.149767
0.185078
0.250716
0.339494
0.447776
0.536922
0.706664
2.6604
2.08936
1.91491
1.70666
1.52753
1.52701
1.46671
1.21433
0.879331
0.568726
0.321255
0.187585
0.151264
0.153781
0.169875
0.201275
0.261259
0.354494
0.437965
0.584106
2.67506
2.25484
2.20369
2.05087
1.72844
1.59671
1.4834
1.24756
0.958582
0.688511
0.451822
0.281972
0.191059
0.170686
0.178896
0.20318
0.238629
0.297779
0.360364
0.487102
2.71389
2.38687
2.51462
2.48701
2.0492
1.72589
1.52563
1.29143
1.03261
0.800438
0.579258
0.389311
0.262539
0.206039
0.204809
0.215531
0.23697
0.27102
0.316655
0.424899
2.77917
2.50588
2.70332
2.85082
2.55231
1.9633
1.62593
1.36214
1.10671
0.895728
0.690698
0.501721
0.359145
0.27398
0.245329
0.239279
0.24645
0.274963
0.317828
0.413452
2.85017
2.60356
2.81646
3.1057
3.05384
2.42528
1.84586
1.48477
1.20007
0.977087
0.785462
0.615384
0.475022
0.376591
0.31443
0.278984
0.279945
0.298953
0.333694
0.419266
2.90091
2.66639
2.87013
3.13518
3.35767
2.99765
2.26065
1.70902
1.32935
1.06789
0.865351
0.698681
0.569854
0.467949
0.386822
0.331504
0.327766
0.339046
0.36366
0.432867
2.89727
2.66056
2.84561
3.0687
3.35
3.33427
2.91162
2.31296
1.74425
1.36839
1.1071
0.904906
0.752131
0.626648
0.52542
0.451797
0.430604
0.433618
0.443121
0.478054
9.67398
9.69481
9.65969
8.01605
7.29878
7.16802
6.84781
6.05954
5.02045
4.16344
3.47646
3.00195
2.81175
2.78158
2.79673
2.83997
2.91322
2.99188
3.06019
3.06692
9.76352
9.76725
8.985
6.51019
6.43906
6.99607
6.88869
5.89368
4.22655
2.9517
2.27174
2.00461
2.0614
2.18767
2.34619
2.47616
2.60037
2.70495
2.78559
2.79021
9.59767
9.4094
6.08258
4.91019
6.14361
7.14712
7.10028
5.87794
3.51847
2.05758
1.64784
1.69952
1.80141
1.99899
2.29454
2.59261
2.77141
2.89216
2.96463
2.95023
7.99087
6.38658
4.7548
3.89496
5.32369
7.04263
7.40478
6.48048
3.2902
1.07599
1.16108
1.33156
1.529
1.77366
2.12066
2.54611
2.90718
3.17517
3.20404
3.14906
7.17494
6.15116
5.76444
4.76437
0.85876
1.15313
1.22551
1.31682
1.43503
1.58684
1.79888
2.14466
2.67102
3.13113
3.40539
3.39466
6.93223
6.68769
6.8625
6.8807
1.44116
1.53307
1.51008
1.51135
1.52657
1.56548
1.64257
1.78495
2.06852
2.58104
3.08163
3.36986
6.64637
6.63035
6.86949
7.20111
1.60572
1.56319
1.53903
1.51858
1.50014
1.50451
1.52357
1.57446
1.69448
1.96555
2.42606
3.01347
5.8702
5.69142
5.69937
6.30362
1.36848
1.12109
1.16719
1.19559
1.22571
1.25973
1.29486
1.345
1.42504
1.57015
1.83988
2.46438
4.86701
4.09182
3.42668
3.30177
0.835868
1.46506
1.61456
1.35664
0.200832
0.334687
0.520044
0.686285
0.812558
0.903206
0.985019
1.0584
1.13616
1.24003
1.39307
1.85307
4.02748
2.84801
1.99217
1.0566
1.16703
1.55379
1.56644
1.11905
0.348637
0.147562
0.19916
0.315962
0.45082
0.580536
0.700238
0.807912
0.892734
0.981452
1.09192
1.43822
3.35021
2.16627
1.58854
1.13289
1.24049
1.52537
1.54145
1.16913
0.53657
0.204209
0.13115
0.146195
0.2151
0.330505
0.457818
0.576528
0.679966
0.773481
0.869112
1.1468
2.89619
1.92089
1.63618
1.29824
1.32756
1.52544
1.51981
1.19711
0.701779
0.327191
0.149883
0.141273
0.15594
0.208245
0.291746
0.392372
0.499949
0.605431
0.69153
0.917974
2.73281
1.99382
1.73889
1.49713
1.43764
1.53863
1.50507
1.22427
0.827489
0.468525
0.225907
0.158115
0.163149
0.176521
0.211025
0.276081
0.368301
0.477325
0.560592
0.746653
2.72533
2.14407
1.95246
1.73826
1.58228
1.57597
1.51149
1.25655
0.91856
0.603339
0.349675
0.216993
0.178274
0.18044
0.193162
0.224039
0.28796
0.381508
0.461789
0.616968
2.73978
2.32234
2.28032
2.09247
1.78568
1.65234
1.53284
1.29159
1.00055
0.727427
0.485287
0.309713
0.219024
0.195163
0.201807
0.22642
0.263144
0.324279
0.386403
0.516074
2.78247
2.45379
2.59942
2.54059
2.12661
1.79469
1.58593
1.34355
1.07442
0.838525
0.611532
0.418993
0.292981
0.232444
0.229673
0.240899
0.265134
0.302061
0.344826
0.454315
2.85324
2.57425
2.77381
2.91184
2.66163
2.07627
1.7099
1.4283
1.15436
0.925293
0.71894
0.533767
0.394191
0.30662
0.273779
0.268696
0.277997
0.306546
0.346704
0.441473
2.92524
2.67119
2.88222
3.16966
3.14323
2.58415
1.98637
1.58165
1.26294
1.01631
0.813503
0.644579
0.511148
0.410255
0.345926
0.312068
0.31309
0.330051
0.36281
0.445244
2.97151
2.72549
2.92231
3.17841
3.39701
3.08674
2.44797
1.86358
1.42443
1.13117
0.91101
0.734344
0.600663
0.498145
0.417329
0.361996
0.359294
0.369676
0.39213
0.456665
2.96688
2.71678
2.89309
3.10766
3.36901
3.35292
3.01364
2.48437
1.89125
1.48458
1.19526
0.969958
0.798657
0.665514
0.559594
0.486109
0.465734
0.463069
0.469111
0.499416
9.7573
9.67912
9.76653
8.3311
7.63041
7.3883
7.01576
6.20926
5.16228
4.28988
3.58329
3.10775
2.92412
2.87545
2.86905
2.90591
2.97924
3.05698
3.12337
3.13013
9.72339
9.58915
9.43209
6.8962
6.71472
7.18488
7.031
6.02198
4.35007
3.07011
2.3522
2.0852
2.14695
2.27892
2.42419
2.53666
2.65176
2.75054
2.82507
2.82923
9.68023
9.72853
6.71373
5.26221
6.33682
7.3344
7.25677
6.00679
3.64278
2.16909
1.7166
1.75236
1.86296
2.08821
2.40895
2.66355
2.81606
2.93333
3.00016
2.98489
8.27571
6.7466
5.07155
4.11468
5.42407
7.24561
7.56195
6.60357
3.50091
1.15668
1.2393
1.39979
1.5937
1.84758
2.21664
2.6335
2.99285
3.21656
3.22601
3.16813
7.47455
6.38819
5.92281
4.8398
0.894931
1.22029
1.2986
1.39551
1.51572
1.67189
1.90449
2.29747
2.82924
3.23674
3.43538
3.41327
7.1213
6.83035
6.98276
6.99307
1.51126
1.61838
1.59065
1.5895
1.60448
1.64877
1.7415
1.91717
2.26174
2.78548
3.21869
3.40283
6.77218
6.72405
6.96169
7.29938
1.6937
1.65771
1.62702
1.59698
1.57358
1.57927
1.60549
1.67698
1.839
2.17347
2.65484
3.1369
5.98012
5.76823
5.76557
6.38644
1.4466
1.20054
1.24191
1.26968
1.29932
1.32949
1.36679
1.42708
1.53027
1.72163
2.05343
2.66936
4.9634
4.1544
3.48595
3.30518
0.85882
1.54147
1.70609
1.43544
0.221285
0.373861
0.571236
0.741531
0.865128
0.959793
1.04257
1.11766
1.20687
1.33614
1.534
2.04506
4.11956
2.92346
2.07499
1.13412
1.23449
1.63683
1.65576
1.19884
0.392294
0.171011
0.225677
0.348024
0.489215
0.62368
0.747868
0.854432
0.942882
1.05208
1.19165
1.59167
3.43461
2.21729
1.64928
1.21954
1.32265
1.60443
1.62705
1.24714
0.596853
0.233885
0.157284
0.175383
0.250291
0.368581
0.496155
0.618837
0.724899
0.825834
0.941445
1.26738
2.99361
1.99646
1.68327
1.3836
1.42305
1.60282
1.59899
1.27393
0.76958
0.367037
0.179176
0.176991
0.193397
0.242983
0.327815
0.433517
0.544449
0.650632
0.747328
1.01077
2.84506
2.07728
1.79662
1.58192
1.53782
1.61681
1.5815
1.30084
0.89264
0.517742
0.264575
0.196546
0.200031
0.211932
0.245451
0.313979
0.413009
0.519939
0.6058
0.816362
2.82738
2.24628
2.04425
1.82591
1.68145
1.65838
1.58852
1.32963
0.984747
0.658227
0.396166
0.255532
0.214493
0.215362
0.228287
0.262424
0.32952
0.423606
0.503155
0.671783
2.83719
2.42563
2.40673
2.19464
1.89296
1.74651
1.61587
1.36688
1.06467
0.785876
0.533966
0.351659
0.257158
0.231446
0.237835
0.26335
0.30111
0.363748
0.426256
0.567551
2.8799
2.54629
2.70448
2.64183
2.26412
1.91365
1.68556
1.42835
1.13911
0.892183
0.660544
0.464858
0.335696
0.275468
0.266755
0.277
0.302963
0.341879
0.386793
0.504702
2.95248
2.6628
2.86139
3.01658
2.80932
2.2418
1.84284
1.53204
1.22753
0.979624
0.766642
0.580225
0.442569
0.352673
0.313398
0.307287
0.317459
0.346691
0.388002
0.484531
3.02346
2.75593
2.96172
3.24118
3.25985
2.76171
2.16818
1.72216
1.35582
1.08735
0.866766
0.691013
0.55494
0.452896
0.385475
0.352073
0.353497
0.370455
0.39865
0.479614
3.06517
2.80089
2.98872
3.23864
3.44826
3.21107
2.64543
2.05248
1.55306
1.22609
0.98179
0.790003
0.645872
0.537801
0.453723
0.403813
0.399398
0.405411
0.423887
0.488452
3.05774
2.78842
2.95492
3.15776
3.41012
3.40035
3.12744
2.66164
2.05908
1.62169
1.30639
1.05649
0.863527
0.71461
0.60403
0.533816
0.507686
0.496574
0.501236
0.53275
10.1011
10.0149
10.2022
8.81748
8.09392
7.76173
7.34102
6.495
5.41607
4.51144
3.78012
3.29109
3.10561
3.04283
3.04167
3.08376
3.1596
3.23375
3.29235
3.29809
10.035
9.8873
10.0125
7.38081
7.09426
7.50865
7.30034
6.24677
4.55284
3.24642
2.50447
2.23532
2.29879
2.43251
2.58138
2.70083
2.81687
2.91046
2.97154
2.9713
10.1028
10.1915
7.44648
5.67021
6.59949
7.57022
7.49371
6.19604
3.82273
2.32711
1.85365
1.89336
2.01369
2.25485
2.59779
2.84117
2.9875
3.09916
3.14905
3.1241
8.74765
7.21984
5.47524
4.41465
5.56899
7.48732
7.78384
6.79232
3.65527
1.26399
1.35513
1.53033
1.74243
2.01936
2.4183
2.84488
3.20916
3.39088
3.3852
3.30587
7.92559
6.75281
6.17265
5.00408
0.973809
1.30996
1.41325
1.53326
1.67098
1.846
2.11034
2.55884
3.0994
3.49589
3.61211
3.56592
7.48361
7.14693
7.19126
7.19208
1.5986
1.73109
1.72441
1.73156
1.75934
1.8187
1.9339
2.1512
2.55789
3.10087
3.50754
3.58749
7.07883
6.98436
7.1747