/*--------------------------------*- C++ -*----------------------------------*\
  =========                 |
  \\      /  F ield         | OpenFOAM: The Open Source CFD Toolbox
   \\    /   O peration     | Website:  https://openfoam.org
    \\  /    A nd           | Version:  9
     \\/     M anipulation  |
\*---------------------------------------------------------------------------*/
FoamFile
{
    format      ascii;
    class       volScalarField;
    location    "0.0055";
    object      rhoE;
}
// * * * * * * * * * * * * * * * * * * * * * * * * * * * * * * * * * * * * * //

dimensions      [1 -1 -2 0 0 0 0];

internalField   nonuniform List<scalar> 
9720
(
2.54531e+07
2.42939e+07
2.45487e+07
2.1428e+07
1.99447e+07
1.88494e+07
1.76784e+07
1.5825e+07
1.36568e+07
1.15356e+07
9.69641e+06
8.56965e+06
8.15542e+06
8.08248e+06
8.20021e+06
8.51308e+06
8.92328e+06
9.44145e+06
9.87598e+06
1.05039e+07
2.42496e+07
2.29517e+07
2.34338e+07
1.72593e+07
1.72565e+07
1.8014e+07
1.73026e+07
1.51372e+07
1.14715e+07
8.30136e+06
6.36992e+06
5.81389e+06
6.0627e+06
6.38938e+06
6.89745e+06
7.40504e+06
7.93964e+06
8.47991e+06
8.89475e+06
9.42414e+06
2.43415e+07
2.35513e+07
1.7165e+07
1.35275e+07
1.59845e+07
1.78761e+07
1.77139e+07
1.4988e+07
9.46904e+06
5.69169e+06
4.57703e+06
4.83693e+06
5.40889e+06
6.2013e+06
7.17882e+06
7.98305e+06
8.55333e+06
9.08231e+06
9.44171e+06
9.92383e+06
2.12687e+07
1.71462e+07
1.35121e+07
1.1554e+07
1.31266e+07
1.81308e+07
1.86734e+07
1.64399e+07
9.29836e+06
3.63936e+06
4.14818e+06
4.76454e+06
5.46813e+06
6.3315e+06
7.44641e+06
8.48393e+06
9.54473e+06
1.02165e+07
1.03457e+07
1.05678e+07
1.96177e+07
1.67591e+07
1.54039e+07
1.28467e+07
3.09371e+06
5.05111e+06
5.42743e+06
5.8299e+06
6.24822e+06
6.74521e+06
7.50751e+06
8.71315e+06
1.01031e+07
1.11922e+07
1.15616e+07
1.16545e+07
1.83627e+07
1.74229e+07
1.72332e+07
1.75383e+07
6.62359e+06
6.96475e+06
6.94764e+06
6.9798e+06
7.09035e+06
7.28874e+06
7.67598e+06
8.36462e+06
9.51137e+06
1.09404e+07
1.20641e+07
1.24274e+07
1.71713e+07
1.67347e+07
1.71316e+07
1.81115e+07
7.65871e+06
7.40717e+06
7.3424e+06
7.27443e+06
7.24195e+06
7.28859e+06
7.40523e+06
7.72423e+06
8.42513e+06
9.62386e+06
1.10912e+07
1.22378e+07
1.54001e+07
1.46476e+07
1.4448e+07
1.58674e+07
6.79238e+06
5.57783e+06
5.85505e+06
6.09596e+06
6.28654e+06
6.42398e+06
6.64319e+06
6.92338e+06
7.40598e+06
8.27944e+06
9.67612e+06
1.1733e+07
1.32629e+07
1.10292e+07
8.98695e+06
8.49936e+06
2.9713e+06
6.33862e+06
7.17821e+06
6.30217e+06
1.17447e+06
1.83153e+06
2.72671e+06
3.55062e+06
4.20277e+06
4.77747e+06
5.17113e+06
5.59226e+06
6.05997e+06
6.65005e+06
7.65012e+06
9.80783e+06
1.11937e+07
7.99669e+06
5.48173e+06
3.60075e+06
4.86476e+06
6.58675e+06
6.90485e+06
5.27164e+06
1.94406e+06
827883
1.1495e+06
1.66402e+06
2.34427e+06
3.07874e+06
3.77527e+06
4.28296e+06
4.83485e+06
5.44381e+06
6.18273e+06
8.15186e+06
9.397e+06
6.15333e+06
4.51673e+06
4.10731e+06
5.26383e+06
6.55121e+06
6.85576e+06
5.55776e+06
2.82549e+06
1.17243e+06
854190
974572
1.33091e+06
1.90398e+06
2.54374e+06
3.13449e+06
3.67906e+06
4.27914e+06
4.96503e+06
6.69362e+06
8.34312e+06
5.6913e+06
4.78045e+06
4.73459e+06
5.68607e+06
6.59496e+06
6.80124e+06
5.76907e+06
3.65808e+06
1.74229e+06
958501
1.03498e+06
1.11738e+06
1.30354e+06
1.70868e+06
2.2565e+06
2.86659e+06
3.43783e+06
4.04117e+06
5.47616e+06
7.98766e+06
5.95422e+06
5.33169e+06
5.42589e+06
6.10454e+06
6.71884e+06
6.85022e+06
5.95643e+06
4.26191e+06
2.48609e+06
1.35234e+06
1.09624e+06
1.08873e+06
1.12591e+06
1.29291e+06
1.66863e+06
2.22489e+06
2.77132e+06
3.27337e+06
4.46161e+06
7.95319e+06
6.28819e+06
6.10239e+06
6.25952e+06
6.59107e+06
6.92454e+06
6.93191e+06
6.10428e+06
4.77954e+06
3.22976e+06
2.00385e+06
1.3277e+06
1.1158e+06
1.17009e+06
1.26885e+06
1.45617e+06
1.83025e+06
2.27364e+06
2.70284e+06
3.69629e+06
8.0656e+06
6.81754e+06
7.05536e+06
7.32018e+06
7.31262e+06
7.31797e+06
7.09179e+06
6.33997e+06
5.12811e+06
3.90832e+06
2.6789e+06
1.78954e+06
1.31818e+06
1.2602e+06
1.312e+06
1.4325e+06
1.61593e+06
1.91101e+06
2.30725e+06
3.1874e+06
8.37067e+06
7.31667e+06
7.88305e+06
8.31594e+06
8.42733e+06
8.00138e+06
7.45287e+06
6.64184e+06
5.528e+06
4.38506e+06
3.27169e+06
2.36746e+06
1.74145e+06
1.48387e+06
1.43721e+06
1.45606e+06
1.58477e+06
1.79274e+06
2.11166e+06
2.8774e+06
8.76841e+06
7.83744e+06
8.44028e+06
9.3269e+06
9.74906e+06
9.12138e+06
8.16238e+06
7.14031e+06
5.98696e+06
4.91454e+06
3.80609e+06
2.99156e+06
2.33081e+06
1.9126e+06
1.67328e+06
1.60138e+06
1.67563e+06
1.84446e+06
2.09824e+06
2.74492e+06
9.25977e+06
8.35415e+06
8.94752e+06
9.99141e+06
1.08068e+07
1.05047e+07
9.34561e+06
8.0218e+06
6.58656e+06
5.50676e+06
4.39528e+06
3.5749e+06
2.9008e+06
2.38925e+06
2.0157e+06
1.84508e+06
1.88071e+06
1.97873e+06
2.14252e+06
2.66398e+06
9.65702e+06
8.73253e+06
9.27393e+06
1.01279e+07
1.12394e+07
1.16508e+07
1.07084e+07
9.37644e+06
7.57644e+06
6.23809e+06
5.08249e+06
4.19499e+06
3.42481e+06
2.83903e+06
2.43901e+06
2.19469e+06
2.17621e+06
2.19211e+06
2.27056e+06
2.66449e+06
1.02569e+07
9.24117e+06
9.74232e+06
1.03655e+07
1.13732e+07
1.20592e+07
1.18601e+07
1.13702e+07
9.65271e+06
8.14623e+06
6.78292e+06
5.63037e+06
4.63321e+06
3.86396e+06
3.34639e+06
3.0149e+06
2.88001e+06
2.78248e+06
2.74748e+06
2.96474e+06
2.44747e+07
2.33706e+07
2.33569e+07
2.01681e+07
1.87877e+07
1.79294e+07
1.68995e+07
1.51636e+07
1.30535e+07
1.0981e+07
9.1913e+06
8.03551e+06
7.59837e+06
7.56747e+06
7.66458e+06
7.94931e+06
8.33953e+06
8.85158e+06
9.29724e+06
9.89624e+06
2.3389e+07
2.22082e+07
2.19651e+07
1.61592e+07
1.64577e+07
1.72879e+07
1.67457e+07
1.46877e+07
1.10423e+07
7.91957e+06
6.05456e+06
5.40282e+06
5.6279e+06
5.92706e+06
6.40982e+06
6.88535e+06
7.40447e+06
7.94331e+06
8.38777e+06
8.90315e+06
2.32439e+07
2.24331e+07
1.5667e+07
1.27076e+07
1.55496e+07
1.75662e+07
1.727e+07
1.46704e+07
9.12033e+06
5.37725e+06
4.30896e+06
4.52071e+06
5.00976e+06
5.72206e+06
6.59421e+06
7.4096e+06
7.98745e+06
8.5334e+06
8.93133e+06
9.41385e+06
2.01676e+07
1.61159e+07
1.26557e+07
1.08687e+07
1.33486e+07
1.77505e+07
1.82827e+07
1.60749e+07
9.07463e+06
3.45024e+06
3.92631e+06
4.48229e+06
5.11347e+06
5.89537e+06
6.90388e+06
7.8801e+06
8.81785e+06
9.62656e+06
9.78547e+06
1.00558e+07
1.85562e+07
1.59783e+07
1.48474e+07
1.22589e+07
3.02899e+06
4.85935e+06
5.15721e+06
5.49272e+06
5.85963e+06
6.30162e+06
6.98357e+06
8.02433e+06
9.35694e+06
1.03594e+07
1.09809e+07
1.11278e+07
1.74502e+07
1.66704e+07
1.68671e+07
1.70995e+07
6.46891e+06
6.70943e+06
6.58789e+06
6.58017e+06
6.63708e+06
6.78384e+06
7.09991e+06
7.67696e+06
8.67491e+06
1.00417e+07
1.11128e+07
1.18425e+07
1.64044e+07
1.61536e+07
1.67045e+07
1.77362e+07
7.4488e+06
7.12259e+06
6.99477e+06
6.88297e+06
6.78487e+06
6.80922e+06
6.89642e+06
7.15011e+06
7.71703e+06
8.78418e+06
1.014e+07
1.14812e+07
1.47104e+07
1.42104e+07
1.41751e+07
1.55746e+07
6.60593e+06
5.36397e+06
5.57161e+06
5.74146e+06
5.88918e+06
5.99109e+06
6.1645e+06
6.40427e+06
6.80087e+06
7.52391e+06
8.74827e+06
1.07917e+07
1.26359e+07
1.06295e+07
8.72751e+06
8.45544e+06
3.06308e+06
6.23741e+06
7.05534e+06
6.18884e+06
1.1024e+06
1.70592e+06
2.58126e+06
3.33509e+06
3.89918e+06
4.39763e+06
4.77498e+06
5.15084e+06
5.57839e+06
6.08318e+06
6.90915e+06
8.87192e+06
1.0619e+07
7.60781e+06
5.17417e+06
3.42586e+06
4.76752e+06
6.47385e+06
6.77191e+06
5.14633e+06
1.85328e+06
742132
1.03235e+06
1.53303e+06
2.14853e+06
2.81205e+06
3.43997e+06
3.91448e+06
4.40009e+06
4.95237e+06
5.58643e+06
7.32808e+06
8.87783e+06
5.79405e+06
4.18837e+06
3.9021e+06
5.07633e+06
6.33332e+06
6.65371e+06
5.36837e+06
2.68753e+06
1.0724e+06
717799
817857
1.16455e+06
1.6874e+06
2.24185e+06
2.79014e+06
3.31931e+06
3.87116e+06
4.49135e+06
5.99492e+06
7.80196e+06
5.25166e+06
4.40719e+06
4.45499e+06
5.40262e+06
6.32303e+06
6.56127e+06
5.52061e+06
3.43868e+06
1.59886e+06
821535
867724
950357
1.11177e+06
1.46321e+06
1.97818e+06
2.57541e+06
3.11129e+06
3.63888e+06
4.8828e+06
7.43406e+06
5.49282e+06
4.88613e+06
5.0538e+06
5.74073e+06
6.37684e+06
6.50993e+06
5.65483e+06
3.98044e+06
2.27035e+06
1.19604e+06
934898
932971
958556
1.12002e+06
1.46505e+06
1.97823e+06
2.4603e+06
2.89213e+06
3.97077e+06
7.4422e+06
5.8165e+06
5.59931e+06
5.77305e+06
6.14073e+06
6.5128e+06
6.54333e+06
5.74351e+06
4.45797e+06
2.96198e+06
1.78078e+06
1.12577e+06
948986
989004
1.09185e+06
1.25211e+06
1.55541e+06
1.9617e+06
2.3807e+06
3.31485e+06
7.53851e+06
6.33606e+06
6.48031e+06
6.74033e+06
6.76622e+06
6.81671e+06
6.64426e+06
5.9119e+06
4.79758e+06
3.60685e+06
2.38735e+06
1.54399e+06
1.14152e+06
1.08555e+06
1.14423e+06
1.23312e+06
1.38242e+06
1.67753e+06
2.04888e+06
2.86835e+06
7.80777e+06
6.79582e+06
7.30793e+06
7.72467e+06
7.75477e+06
7.37717e+06
6.90677e+06
6.15945e+06
5.14486e+06
4.05898e+06
2.96384e+06
2.09951e+06
1.53357e+06
1.28015e+06
1.23741e+06
1.24271e+06
1.36602e+06
1.57625e+06
1.87378e+06
2.56167e+06
8.16857e+06
7.28043e+06
7.85566e+06
8.63071e+06
9.05779e+06
8.36726e+06
7.46898e+06
6.56532e+06
5.54513e+06
4.51878e+06
3.4807e+06
2.71349e+06
2.08238e+06
1.63486e+06
1.42411e+06
1.38467e+06
1.46166e+06
1.63139e+06
1.86736e+06
2.41881e+06
8.64123e+06
7.78498e+06
8.36422e+06
9.41518e+06
1.00594e+07
9.70242e+06
8.53974e+06
7.30636e+06
6.04254e+06
5.04689e+06
4.0147e+06
3.25407e+06
2.58605e+06
2.06937e+06
1.76574e+06
1.62336e+06
1.66327e+06
1.76574e+06
1.88853e+06
2.33885e+06
9.03696e+06
8.1807e+06
8.7154e+06
9.5697e+06
1.06733e+07
1.07691e+07
9.80128e+06
8.51646e+06
6.86882e+06
5.66609e+06
4.62619e+06
3.79652e+06
3.04555e+06
2.51221e+06
2.16721e+06
1.9547e+06
1.92835e+06
1.93032e+06
1.97365e+06
2.33674e+06
9.60424e+06
8.67076e+06
9.17633e+06
9.8321e+06
1.0834e+07
1.14943e+07
1.11167e+07
1.04878e+07
8.77757e+06
7.36922e+06
6.11805e+06
5.05566e+06
4.15556e+06
3.4817e+06
3.01966e+06
2.69236e+06
2.5311e+06
2.43576e+06
2.40708e+06
2.63769e+06
2.44418e+07
2.36437e+07
2.35023e+07
1.98933e+07
1.83605e+07
1.76372e+07
1.67126e+07
1.50385e+07
1.29323e+07
1.08275e+07
9.05434e+06
7.84878e+06
7.3844e+06
7.39255e+06
7.51277e+06
7.79721e+06
8.16817e+06
8.66851e+06
9.11416e+06
9.69814e+06
2.36718e+07
2.28664e+07
2.1071e+07
1.57228e+07
1.61072e+07
1.70306e+07
1.65901e+07
1.45813e+07
1.09354e+07
7.76781e+06
5.97629e+06
5.26516e+06
5.49702e+06
5.77324e+06
6.23856e+06
6.73103e+06
7.25207e+06
7.79484e+06
8.26085e+06
8.7685e+06
2.30862e+07
2.18597e+07
1.46567e+07
1.23061e+07
1.52051e+07
1.72968e+07
1.70628e+07
1.45059e+07
8.95098e+06
5.21686e+06
4.27002e+06
4.48942e+06
4.91226e+06
5.55409e+06
6.33049e+06
7.19727e+06
7.83067e+06
8.39292e+06
8.81149e+06
9.27632e+06
1.95965e+07
1.53991e+07
1.19937e+07
1.03466e+07
1.32002e+07
1.74066e+07
1.79935e+07
1.58281e+07
8.68353e+06
3.31669e+06
3.87062e+06
4.45587e+06
5.08485e+06
5.85611e+06
6.85e+06
7.87938e+06
8.74481e+06
9.62004e+06
9.77319e+06
9.99147e+06
1.80199e+07
1.55747e+07
1.45681e+07
1.20546e+07
2.78234e+06
4.71136e+06
5.00033e+06
5.33607e+06
5.74798e+06
6.23996e+06
6.93528e+06
7.96156e+06
9.35543e+06
1.04139e+07
1.11647e+07
1.1258e+07
1.71137e+07
1.64297e+07
1.66608e+07
1.68661e+07
6.15588e+06
6.56269e+06
6.46758e+06
6.48188e+06
6.55611e+06
6.71059e+06
7.00861e+06
7.53719e+06
8.48456e+06
1.00168e+07
1.12199e+07
1.21749e+07
1.62346e+07
1.60571e+07
1.65628e+07
1.74619e+07
7.12825e+06
6.99403e+06
6.88476e+06
6.80434e+06
6.74827e+06
6.79401e+06
6.8872e+06
7.10657e+06
7.60469e+06
8.61358e+06
1.01327e+07
1.18025e+07
1.4572e+07
1.41437e+07
1.41274e+07
1.53639e+07
6.33602e+06
5.26598e+06
5.50496e+06
5.64741e+06
5.82468e+06
5.97341e+06
6.15245e+06
6.39369e+06
6.73753e+06
7.34991e+06
8.50728e+06
1.07977e+07
1.25086e+07
1.05902e+07
8.74958e+06
8.4636e+06
2.77916e+06
6.07208e+06
6.85983e+06
6.0412e+06
1.02554e+06
1.64496e+06
2.51981e+06
3.29459e+06
3.87604e+06
4.36511e+06
4.78811e+06
5.13981e+06
5.56112e+06
6.01945e+06
6.733e+06
8.69783e+06
1.04516e+07
7.44639e+06
4.98225e+06
3.18418e+06
4.61199e+06
6.35114e+06
6.65478e+06
4.97146e+06
1.67721e+06
660808
936082
1.4977e+06
2.11339e+06
2.74721e+06
3.37104e+06
3.89344e+06
4.37327e+06
4.88195e+06
5.44354e+06
7.10417e+06
8.72897e+06
5.68514e+06
4.06496e+06
3.71189e+06
4.89497e+06
6.24711e+06
6.56437e+06
5.2465e+06
2.48012e+06
967933
605986
705622
1.04366e+06
1.57324e+06
2.18069e+06
2.74237e+06
3.27906e+06
3.78906e+06
4.36985e+06
5.74946e+06
7.59167e+06
5.06157e+06
4.29478e+06
4.27524e+06
5.20115e+06
6.25783e+06
6.49507e+06
5.39322e+06
3.24289e+06
1.49572e+06
716059
712732
800012
1.00258e+06
1.3757e+06
1.8702e+06
2.46028e+06
3.00196e+06
3.52848e+06
4.68853e+06
7.18607e+06
5.31179e+06
4.72238e+06
4.88961e+06
5.56815e+06
6.33105e+06
6.47952e+06
5.5522e+06
3.83294e+06
2.13857e+06
1.06629e+06
789216
826224
865548
1.01209e+06
1.3208e+06
1.81962e+06
2.36948e+06
2.82156e+06
3.81972e+06
7.22127e+06
5.61864e+06
5.40694e+06
5.6219e+06
6.00402e+06
6.48241e+06
6.54076e+06
5.67749e+06
4.33489e+06
2.80119e+06
1.62732e+06
1.00885e+06
857356
884438
974124
1.11784e+06
1.43332e+06
1.86992e+06
2.28472e+06
3.16033e+06
7.33812e+06
6.13375e+06
6.23866e+06
6.59984e+06
6.64775e+06
6.77341e+06
6.64453e+06
5.84864e+06
4.74579e+06
3.46275e+06
2.26946e+06
1.4309e+06
1.02472e+06
965641
1.03621e+06
1.1293e+06
1.29139e+06
1.57823e+06
1.92545e+06
2.69173e+06
7.61444e+06
6.63382e+06
7.15877e+06
7.70783e+06
7.62689e+06
7.29101e+06
6.8635e+06
6.10381e+06
5.08659e+06
3.98833e+06
2.87486e+06
1.97994e+06
1.38628e+06
1.13626e+06
1.13472e+06
1.14657e+06
1.26534e+06
1.45218e+06
1.72298e+06
2.38611e+06
7.97181e+06
7.14029e+06
7.79134e+06
8.59704e+06
9.05211e+06
8.22497e+06
7.35352e+06
6.47343e+06
5.50058e+06
4.46574e+06
3.43027e+06
2.60995e+06
1.93101e+06
1.50964e+06
1.32597e+06
1.27368e+06
1.34279e+06
1.50047e+06
1.73109e+06
2.28797e+06
8.44185e+06
7.65745e+06
8.32438e+06
9.4916e+06
1.02109e+07
9.73549e+06
8.35796e+06
7.11876e+06
5.96063e+06
4.97308e+06
3.94224e+06
3.16208e+06
2.50355e+06
1.99024e+06
1.66242e+06
1.48407e+06
1.51979e+06
1.63272e+06
1.78835e+06
2.25848e+06
8.84283e+06
8.06771e+06
8.67153e+06
9.64546e+06
1.095e+07
1.09432e+07
9.81777e+06
8.29015e+06
6.68439e+06
5.5346e+06
4.52724e+06
3.70575e+06
2.98969e+06
2.43028e+06
2.04302e+06
1.78155e+06
1.77942e+06
1.82158e+06
1.8849e+06
2.2453e+06
9.39608e+06
8.54406e+06
9.09384e+06
9.83401e+06
1.10315e+07
1.18689e+07
1.14372e+07
1.05252e+07
8.61937e+06
7.18246e+06
5.91751e+06
4.90301e+06
4.03829e+06
3.34916e+06
2.85519e+06
2.502e+06
2.38368e+06
2.34034e+06
2.30531e+06
2.51754e+06
2.45447e+07
2.38275e+07
2.34035e+07
1.95122e+07
1.80254e+07
1.74727e+07
1.66127e+07
1.49704e+07
1.27999e+07
1.06747e+07
8.92354e+06
7.73735e+06
7.27908e+06
7.31911e+06
7.4406e+06
7.73791e+06
8.11208e+06
8.6086e+06
9.03695e+06
9.59177e+06
2.39092e+07
2.32131e+07
1.97551e+07
1.52735e+07
1.58494e+07
1.69347e+07
1.65961e+07
1.45617e+07
1.08299e+07
7.58337e+06
5.8194e+06
5.16041e+06
5.42871e+06
5.72843e+06
6.18231e+06
6.6873e+06
7.22315e+06
7.77396e+06
8.23211e+06
8.72346e+06
2.31371e+07
2.08556e+07
1.38383e+07
1.19285e+07
1.49308e+07
1.72e+07
1.70326e+07
1.44756e+07
8.82405e+06
5.00729e+06
4.1459e+06
4.40553e+06
4.87021e+06
5.53076e+06
6.29279e+06
7.19879e+06
7.86229e+06
8.41668e+06
8.82458e+06
9.26966e+06
1.9181e+07
1.4893e+07
1.16543e+07
1.0056e+07
1.274e+07
1.71556e+07
1.78486e+07
1.56424e+07
8.22528e+06
3.17627e+06
3.75999e+06
4.38722e+06
5.05607e+06
5.84732e+06
6.90489e+06
8.05145e+06
8.92307e+06
9.75102e+06
9.89686e+06
1.00244e+07
1.76342e+07
1.53696e+07
1.44964e+07
1.23559e+07
3.0923e+06
4.82799e+06
5.10189e+06
5.3988e+06
5.77596e+06
6.25093e+06
6.93835e+06
7.98536e+06
9.44614e+06
1.06763e+07
1.146e+07
1.15207e+07
1.69284e+07
1.6354e+07
1.66631e+07
1.67011e+07
6.33026e+06
6.7565e+06
6.63867e+06
6.62346e+06
6.67689e+06
6.80511e+06
7.07683e+06
7.56823e+06
8.42855e+06
9.97959e+06
1.1543e+07
1.25897e+07
1.61443e+07
1.61063e+07
1.65528e+07
1.72954e+07
7.2824e+06
7.15647e+06
7.02925e+06
6.9329e+06
6.84997e+06
6.87931e+06
6.94922e+06
7.12321e+06
7.5456e+06
8.42372e+06
1.00025e+07
1.21106e+07
1.45468e+07
1.4181e+07
1.41528e+07
1.5248e+07
6.45742e+06
5.30164e+06
5.55582e+06
5.68895e+06
5.84487e+06
6.00457e+06
6.15607e+06
6.37948e+06
6.69038e+06
7.2025e+06
8.21957e+06
1.06776e+07
1.24719e+07
1.05973e+07
8.70095e+06
8.21953e+06
3.01111e+06
6.09652e+06
6.92981e+06
6.06426e+06
957551
1.55179e+06
2.41771e+06
3.22286e+06
3.85539e+06
4.35562e+06
4.82544e+06
5.16084e+06
5.56184e+06
5.99667e+06
6.58536e+06
8.46379e+06
1.03825e+07
7.39251e+06
4.8931e+06
3.10483e+06
4.71639e+06
6.52285e+06
6.8394e+06
5.06e+06
1.66707e+06
608401
847337
1.42884e+06
2.08579e+06
2.71447e+06
3.31374e+06
3.88539e+06
4.40269e+06
4.90958e+06
5.39871e+06
6.88627e+06
8.6724e+06
5.65203e+06
4.00319e+06
3.66717e+06
5.00071e+06
6.42493e+06
6.74703e+06
5.34603e+06
2.47555e+06
923017
536746
657218
975711
1.47469e+06
2.08527e+06
2.72755e+06
3.33874e+06
3.83484e+06
4.34689e+06
5.57685e+06
7.47995e+06
4.97412e+06
4.2526e+06
4.24818e+06
5.29281e+06
6.43274e+06
6.67714e+06
5.48319e+06
3.25118e+06
1.48203e+06
683317
598433
674704
884156
1.30966e+06
1.83465e+06
2.44104e+06
2.98757e+06
3.48342e+06
4.58126e+06
6.9996e+06
5.20909e+06
4.67282e+06
4.88532e+06
5.64266e+06
6.49634e+06
6.64275e+06
5.64145e+06
3.85896e+06
2.14498e+06
1.01871e+06
676331
716378
789369
941925
1.23938e+06
1.725e+06
2.2863e+06
2.79467e+06
3.77271e+06
7.03888e+06
5.4964e+06
5.30954e+06
5.63065e+06
6.07039e+06
6.63121e+06
6.68913e+06
5.79313e+06
4.36099e+06
2.77245e+06
1.54208e+06
910875
788726
827062
907759
1.02516e+06
1.33143e+06
1.79588e+06
2.2496e+06
3.10709e+06
7.15515e+06
5.94359e+06
6.04734e+06
6.60237e+06
6.7014e+06
6.89756e+06
6.77706e+06
5.94553e+06
4.80092e+06
3.4004e+06
2.18586e+06
1.37463e+06
958130
895175
955298
1.03833e+06
1.22021e+06
1.51967e+06
1.87729e+06
2.62638e+06
7.43038e+06
6.44266e+06
6.94433e+06
7.71015e+06
7.65726e+06
7.36986e+06
6.95451e+06
6.18247e+06
5.12826e+06
3.96995e+06
2.84928e+06
1.93741e+06
1.29269e+06
1.03157e+06
1.03212e+06
1.05478e+06
1.19165e+06
1.37723e+06
1.64408e+06
2.28873e+06
7.78008e+06
6.96145e+06
7.63456e+06
8.59473e+06
9.03322e+06
8.18561e+06
7.36825e+06
6.5063e+06
5.52813e+06
4.48804e+06
3.46219e+06
2.56179e+06
1.80776e+06
1.37956e+06
1.23241e+06
1.1869e+06
1.25876e+06
1.41611e+06
1.63567e+06
2.19416e+06
8.24903e+06
7.48775e+06
8.17356e+06
9.44934e+06
1.03173e+07
9.66429e+06
8.2243e+06
7.0406e+06
5.96781e+06
4.99255e+06
3.95088e+06
3.1074e+06
2.38489e+06
1.87449e+06
1.57327e+06
1.38418e+06
1.41782e+06
1.52806e+06
1.68312e+06
2.18023e+06
8.65901e+06
7.93038e+06
8.56769e+06
9.66898e+06
1.1184e+07
1.12301e+07
9.74462e+06
8.06395e+06
6.57034e+06
5.47863e+06
4.46081e+06
3.61762e+06
2.91666e+06
2.35419e+06
1.96201e+06
1.67133e+06
1.65147e+06
1.69819e+06
1.77816e+06
2.17358e+06
9.18989e+06
8.39804e+06
8.9938e+06
9.78883e+06
1.1252e+07
1.2276e+07
1.17947e+07
1.04864e+07
8.43665e+06
6.97068e+06
5.70821e+06
4.74578e+06
3.93755e+06
3.25101e+06
2.7422e+06
2.35046e+06
2.23288e+06
2.22543e+06
2.21464e+06
2.44689e+06
2.45876e+07
2.39404e+07
2.33245e+07
1.9113e+07
1.77436e+07
1.73589e+07
1.65354e+07
1.48888e+07
1.26924e+07
1.05332e+07
8.80406e+06
7.61903e+06
7.13311e+06
7.22804e+06
7.36704e+06
7.68227e+06
8.06849e+06
8.57976e+06
9.0364e+06
9.59418e+06
2.40303e+07
2.33978e+07
1.90941e+07
1.49113e+07
1.57752e+07
1.69188e+07
1.66021e+07
1.45601e+07
1.07437e+07
7.44222e+06
5.70704e+06
5.07069e+06
5.33753e+06
5.6518e+06
6.12129e+06
6.64152e+06
7.18967e+06
7.75421e+06
8.24595e+06
8.75218e+06
2.32153e+07
2.00646e+07
1.34475e+07
1.17285e+07
1.50016e+07
1.72494e+07
1.70682e+07
1.45572e+07
8.7475e+06
4.86826e+06
4.04317e+06
4.3206e+06
4.80217e+06
5.47812e+06
6.24109e+06
7.16279e+06
7.87551e+06
8.43122e+06
8.84089e+06
9.28122e+06
1.8938e+07
1.46578e+07
1.15313e+07
9.94283e+06
1.28193e+07
1.71647e+07
1.78943e+07
1.57353e+07
8.28678e+06
3.12467e+06
3.72458e+06
4.35388e+06
5.05142e+06
5.84516e+06
6.89405e+06
8.08701e+06
8.99966e+06
9.85997e+06
1.00182e+07
1.01052e+07
1.75004e+07
1.53258e+07
1.44484e+07
1.23515e+07
3.09086e+06
4.90754e+06
5.21586e+06
5.52766e+06
5.89157e+06
6.33596e+06
6.98811e+06
8.00588e+06
9.47646e+06
1.08136e+07
1.16536e+07
1.17305e+07
1.68736e+07
1.63437e+07
1.67151e+07
1.67432e+07
6.47454e+06
6.82577e+06
6.74664e+06
6.75243e+06
6.81453e+06
6.94222e+06
7.19655e+06
7.65992e+06
8.44894e+06
9.87964e+06
1.16412e+07
1.27966e+07
1.61539e+07
1.61797e+07
1.66549e+07
1.74229e+07
7.41406e+06
7.23832e+06
7.14847e+06
7.08062e+06
6.99858e+06
7.01809e+06
7.0765e+06
7.21093e+06
7.57122e+06
8.33098e+06
9.78865e+06
1.20957e+07
1.45606e+07
1.42446e+07
1.42511e+07
1.5379e+07
6.5558e+06
5.29731e+06
5.59539e+06
5.76857e+06
5.93106e+06
6.10022e+06
6.23431e+06
6.44201e+06
6.72787e+06
7.17581e+06
8.04718e+06
1.04197e+07
1.2469e+07
1.05944e+07
8.6442e+06
8.17634e+06
3.01899e+06
6.3662e+06
7.23284e+06
6.28135e+06
952344
1.51914e+06
2.38616e+06
3.19938e+06
3.86044e+06
4.39435e+06
4.90194e+06
5.23611e+06
5.60175e+06
6.01641e+06
6.51186e+06
8.23214e+06
1.03621e+07
7.37143e+06
4.85202e+06
3.10217e+06
4.87671e+06
6.74721e+06
7.06033e+06
5.1987e+06
1.70311e+06
590041
826975
1.40411e+06
2.09559e+06
2.73047e+06
3.3178e+06
3.90417e+06
4.42477e+06
4.94154e+06
5.40447e+06
6.73436e+06
8.63376e+06
5.62387e+06
3.98163e+06
3.67743e+06
5.147e+06
6.63329e+06
6.95347e+06
5.48731e+06
2.54052e+06
926293
523834
664225
954409
1.42729e+06
2.06244e+06
2.74751e+06
3.38779e+06
3.89953e+06
4.37374e+06
5.47095e+06
7.42944e+06
4.93441e+06
4.24327e+06
4.26343e+06
5.41198e+06
6.6075e+06
6.88413e+06
5.64576e+06
3.33914e+06
1.50839e+06
699900
542071
617644
847277
1.30593e+06
1.86665e+06
2.47018e+06
2.9944e+06
3.48e+06
4.51873e+06
6.92603e+06
5.17911e+06
4.67497e+06
4.90593e+06
5.72902e+06
6.65263e+06
6.82503e+06
5.80687e+06
3.95287e+06
2.21671e+06
1.03018e+06
628988
667365
755074
929964
1.22847e+06
1.69616e+06
2.2566e+06
2.80071e+06
3.76278e+06
6.97415e+06
5.46044e+06
5.28649e+06
5.65786e+06
6.1338e+06
6.75791e+06
6.84967e+06
5.9614e+06
4.46083e+06
2.84454e+06
1.53719e+06
888750
760464
813033
888147
988665
1.2948e+06
1.77924e+06
2.2659e+06
3.11463e+06
7.07615e+06
5.86091e+06
5.96693e+06
6.62584e+06
6.7469e+06
6.98841e+06
6.90948e+06
6.08027e+06
4.92439e+06
3.45163e+06
2.19184e+06
1.37086e+06
946088
877813
920262
1.00215e+06
1.19964e+06
1.51794e+06
1.87758e+06
2.5975e+06
7.33688e+06
6.3418e+06
6.8204e+06
7.7078e+06
7.7002e+06
7.42747e+06
7.04e+06
6.27459e+06
5.23739e+06
4.02504e+06
2.87392e+06
1.95359e+06
1.268e+06
985657
994153
1.02756e+06
1.16222e+06
1.34955e+06
1.59531e+06
2.22279e+06
7.68034e+06
6.85876e+06
7.52124e+06
8.57652e+06
9.04717e+06
8.1859e+06
7.39947e+06
6.55127e+06
5.58837e+06
4.52403e+06
3.48998e+06
2.5639e+06
1.75589e+06
1.31536e+06
1.1999e+06
1.15468e+06
1.22907e+06
1.36681e+06
1.57158e+06
2.17243e+06
8.1432e+06
7.38215e+06
8.0578e+06
9.38011e+06
1.03056e+07
9.53398e+06
8.14877e+06
7.00466e+06
5.98841e+06
5.01635e+06
3.98369e+06
3.08756e+06
2.33148e+06
1.83143e+06
1.5467e+06
1.33948e+06
1.3591e+06
1.44896e+06
1.63215e+06
2.19012e+06
8.55937e+06
7.83357e+06
8.47077e+06
9.63828e+06
1.12046e+07
1.12782e+07
9.56863e+06
7.88463e+06
6.48823e+06
5.46139e+06
4.4514e+06
3.57936e+06
2.88671e+06
2.32883e+06
1.92954e+06
1.59737e+06
1.56636e+06
1.63195e+06
1.76685e+06
2.20996e+06
9.08677e+06
8.30986e+06
8.8935e+06
9.74662e+06
1.13243e+07
1.23815e+07
1.17965e+07
1.02593e+07
8.21345e+06
6.79212e+06
5.56069e+06
4.63051e+06
3.86098e+06
3.18812e+06
2.66037e+06
2.24479e+06
2.18827e+06
2.21931e+06
2.24392e+06
2.48756e+06
2.45959e+07
2.39482e+07
2.33045e+07
1.90489e+07
1.7719e+07
1.73523e+07
1.65291e+07
1.48902e+07
1.26892e+07
1.053e+07
8.80098e+06
7.61127e+06
7.1179e+06
7.22278e+06
7.37468e+06
7.7069e+06
8.1043e+06
8.61286e+06
9.06706e+06
9.62963e+06
2.4055e+07
2.3414e+07
1.90563e+07
1.48463e+07
1.57982e+07
1.69294e+07
1.66021e+07
1.45621e+07
1.07387e+07
7.44116e+06
5.7087e+06
5.06015e+06
5.31933e+06
5.63423e+06
6.11207e+06
6.6577e+06
7.22463e+06
7.793e+06
8.27722e+06
8.78338e+06
2.32668e+07
1.99977e+07
1.33887e+07
1.16776e+07
1.50589e+07
1.72536e+07
1.70607e+07
1.45574e+07
8.74438e+06
4.86814e+06
4.04794e+06
4.31896e+06
4.78544e+06
5.44408e+06
6.20747e+06
7.16414e+06
7.91344e+06
8.47581e+06
8.88046e+06
9.31713e+06
1.89603e+07
1.46372e+07
1.1496e+07
9.8798e+06
1.31222e+07
1.70769e+07
1.78837e+07
1.57883e+07
8.25516e+06
3.12117e+06
3.7163e+06
4.34156e+06
5.02371e+06
5.79952e+06
6.84306e+06
8.05802e+06
8.99607e+06
9.86437e+06
1.00412e+07
1.01297e+07
1.7516e+07
1.52841e+07
1.43471e+07
1.19237e+07
2.95348e+06
4.85699e+06
5.15688e+06
5.45772e+06
5.81858e+06
6.25885e+06
6.90571e+06
7.91997e+06
9.39857e+06
1.0755e+07
1.16303e+07
1.17309e+07
1.689e+07
1.63334e+07
1.66993e+07
1.67537e+07
6.42403e+06
6.77632e+06
6.68676e+06
6.68742e+06
6.74091e+06
6.8612e+06
7.11169e+06
7.57621e+06
8.36717e+06
9.79908e+06
1.15978e+07
1.2775e+07
1.6163e+07
1.61819e+07
1.66649e+07
1.74877e+07
7.39473e+06
7.19406e+06
7.09894e+06
7.029e+06
6.94076e+06
6.95465e+06
7.00632e+06
7.13433e+06
7.48849e+06
8.24117e+06
9.6942e+06
1.20282e+07
1.45456e+07
1.42268e+07
1.42379e+07
1.54146e+07
6.50235e+06
5.28206e+06
5.56614e+06
5.72664e+06
5.88366e+06
6.04872e+06
6.1815e+06
6.39098e+06
6.67558e+06
7.1209e+06
7.98045e+06
1.03483e+07
1.24581e+07
1.05936e+07
8.66488e+06
8.40165e+06
2.75176e+06
6.42771e+06
7.31063e+06
6.35655e+06
959869
1.55935e+06
2.41662e+06
3.22102e+06
3.86359e+06
4.38336e+06
4.874e+06
5.20478e+06
5.57487e+06
5.99188e+06
6.48353e+06
8.19207e+06
1.03621e+07
7.37129e+06
4.85754e+06
3.08819e+06
4.82512e+06
6.729e+06
7.06986e+06
5.19386e+06
1.65656e+06
586170
839514
1.41418e+06
2.10458e+06
2.73325e+06
3.31747e+06
3.89905e+06
4.40482e+06
4.9238e+06
5.38416e+06
6.7007e+06
8.63372e+06
5.61861e+06
3.99214e+06
3.67271e+06
5.12646e+06
6.63657e+06
6.98099e+06
5.49172e+06
2.49072e+06
911533
523682
661571
960581
1.4432e+06
2.0652e+06
2.73175e+06
3.36129e+06
3.87581e+06
4.34509e+06
5.44195e+06
7.44198e+06
4.95148e+06
4.26179e+06
4.27343e+06
5.4205e+06
6.63801e+06
6.91979e+06
5.65095e+06
3.29628e+06
1.48928e+06
689734
540122
617986
842003
1.29471e+06
1.84573e+06
2.44623e+06
2.97532e+06
3.46068e+06
4.48251e+06
6.95111e+06
5.20484e+06
4.7031e+06
4.935e+06
5.77003e+06
6.69428e+06
6.86487e+06
5.81624e+06
3.91816e+06
2.18457e+06
1.01907e+06
624321
659522
743095
913199
1.2113e+06
1.68299e+06
2.24268e+06
2.77751e+06
3.72487e+06
6.99019e+06
5.48022e+06
5.31786e+06
5.70809e+06
6.2038e+06
6.81843e+06
6.89345e+06
5.97339e+06
4.43407e+06
2.81589e+06
1.52776e+06
873243
746530
795480
872810
979257
1.28181e+06
1.76253e+06
2.24027e+06
3.0873e+06
7.08432e+06
5.87904e+06
6.00249e+06
6.70951e+06
6.84038e+06
7.06902e+06
6.9626e+06
6.10229e+06
4.91347e+06
3.43737e+06
2.17626e+06
1.35438e+06
931417
866954
915130
996076
1.19034e+06
1.50468e+06
1.85833e+06
2.5762e+06
7.34107e+06
6.35762e+06
6.85364e+06
7.8163e+06
7.81436e+06
7.52545e+06
7.10455e+06
6.31469e+06
5.24863e+06
4.01803e+06
2.86354e+06
1.93728e+06
1.26157e+06
982771
992628
1.02174e+06
1.15454e+06
1.3378e+06
1.58104e+06
2.20272e+06
7.68428e+06
6.86899e+06
7.54395e+06
8.66426e+06
9.17625e+06
8.29416e+06
7.4774e+06
6.60621e+06
5.62121e+06
4.52477e+06
3.48935e+06
2.5628e+06
1.76274e+06
1.31575e+06
1.19825e+06
1.15138e+06
1.22185e+06
1.35602e+06
1.55939e+06
2.15651e+06
8.14745e+06
7.38631e+06
8.07226e+06
9.4253e+06
1.04126e+07
9.65714e+06
8.24899e+06
7.06987e+06
6.03832e+06
5.03077e+06
3.99306e+06
3.10296e+06
2.34263e+06
1.83361e+06
1.5462e+06
1.3376e+06
1.35518e+06
1.4461e+06
1.62563e+06
2.17893e+06
8.55239e+06
7.82323e+06
8.46071e+06
9.63501e+06
1.12767e+07
1.13125e+07
9.63138e+06
7.94639e+06
6.54158e+06
5.4871e+06
4.47429e+06
3.59623e+06
2.90044e+06
2.33687e+06
1.935e+06
1.60206e+06
1.57119e+06
1.63477e+06
1.76418e+06
2.20199e+06
9.07578e+06
8.29477e+06
8.88293e+06
9.74338e+06
1.13591e+07
1.24382e+07
1.1813e+07
1.02674e+07
8.24365e+06
6.82152e+06
5.58642e+06
4.65101e+06
3.88737e+06
3.21511e+06
2.68536e+06
2.26259e+06
2.19638e+06
2.2239e+06
2.24387e+06
2.48456e+06
2.45622e+07
2.38415e+07
2.33393e+07
1.93438e+07
1.79163e+07
1.74661e+07
1.66004e+07
1.49659e+07
1.27739e+07
1.06555e+07
8.92598e+06
7.73753e+06
7.26872e+06
7.31552e+06
7.44793e+06
7.76075e+06
8.1484e+06
8.66931e+06
9.11797e+06
9.67663e+06
2.39615e+07
2.32812e+07
1.96628e+07
1.51689e+07
1.58908e+07
1.69847e+07
1.66123e+07
1.45829e+07
1.07844e+07
7.52912e+06
5.80094e+06
5.1385e+06
5.39675e+06
5.69836e+06
6.15555e+06
6.67834e+06
7.23249e+06
7.80886e+06
8.2992e+06
8.80086e+06
2.32308e+07
2.07928e+07
1.3788e+07
1.18501e+07
1.51203e+07
1.72596e+07
1.7044e+07
1.45281e+07
8.7556e+06
4.93575e+06
4.10447e+06
4.35952e+06
4.81599e+06
5.47431e+06
6.22792e+06
7.15395e+06
7.86754e+06
8.43406e+06
8.85678e+06
9.31577e+06
1.9244e+07
1.48602e+07
1.16011e+07
9.92104e+06
1.31877e+07
1.7055e+07
1.78234e+07
1.57195e+07
8.23777e+06
3.13762e+06
3.73048e+06
4.36001e+06
5.02243e+06
5.80845e+06
6.84562e+06
7.99875e+06
8.90424e+06
9.76127e+06
9.9301e+06
1.00572e+07
1.76318e+07
1.52771e+07
1.43159e+07
1.19e+07
2.96587e+06
4.74799e+06
5.03467e+06
5.33963e+06
5.72108e+06
6.18537e+06
6.85362e+06
7.87302e+06
9.33537e+06
1.06155e+07
1.14454e+07
1.15243e+07
1.6893e+07
1.62737e+07
1.66133e+07
1.67029e+07
6.34155e+06
6.62411e+06
6.51774e+06
6.51509e+06
6.57181e+06
6.70367e+06
6.97253e+06
7.45208e+06
8.28746e+06
9.83931e+06
1.14487e+07
1.25648e+07
1.61216e+07
1.60661e+07
1.65633e+07
1.74164e+07
7.27518e+06
7.01069e+06
6.90103e+06
6.82296e+06
6.75155e+06
6.7778e+06
6.84231e+06
7.00187e+06
7.40026e+06
8.24417e+06
9.80946e+06
1.19982e+07
1.45096e+07
1.41519e+07
1.41392e+07
1.53372e+07
6.41446e+06
5.20301e+06
5.45685e+06
5.59196e+06
5.75325e+06
5.91795e+06
6.07051e+06
6.29743e+06
6.60458e+06
7.10253e+06
8.08561e+06
1.05401e+07
1.24308e+07
1.05282e+07
8.58498e+06
8.12551e+06
2.91295e+06
6.28065e+06
7.17955e+06
6.28364e+06
918320
1.57046e+06
2.44678e+06
3.2368e+06
3.85066e+06
4.32634e+06
4.78349e+06
5.1264e+06
5.52247e+06
5.9485e+06
6.51597e+06
8.36288e+06
1.03647e+07
7.36049e+06
4.86041e+06
3.13094e+06
4.74828e+06
6.58616e+06
6.93082e+06
5.10569e+06
1.6064e+06
606428
868339
1.44484e+06
2.09141e+06
2.71679e+06
3.32922e+06
3.89061e+06
4.39597e+06
4.87752e+06
5.34584e+06
6.8024e+06
8.65404e+06
5.62297e+06
4.01127e+06
3.70716e+06
5.03932e+06
6.48039e+06
6.83461e+06
5.39273e+06
2.43355e+06
902863
537056
653000
984146
1.49874e+06
2.12321e+06
2.75125e+06
3.32808e+06
3.81172e+06
4.3188e+06
5.52617e+06
7.49824e+06
5.0065e+06
4.2765e+06
4.31315e+06
5.34095e+06