/*--------------------------------*- C++ -*----------------------------------*\
  =========                 |
  \\      /  F ield         | OpenFOAM: The Open Source CFD Toolbox
   \\    /   O peration     | Website:  https://openfoam.org
    \\  /    A nd           | Version:  9
     \\/     M anipulation  |
\*---------------------------------------------------------------------------*/
FoamFile
{
    format      ascii;
    class       volVectorField;
    location    "0.0055";
    object      rhoU;
}
// * * * * * * * * * * * * * * * * * * * * * * * * * * * * * * * * * * * * * //

dimensions      [1 -2 -1 0 0 0 0];

internalField   nonuniform List<vector> 
9720
(
(-7942.92 -7962.05 -354.792)
(-6083.84 -8276.18 -294.48)
(-5088.2 -8839.41 -413.402)
(-4095.57 -8787.54 -515.646)
(-2573.37 -9231.93 -555.889)
(-665.839 -9128.38 -484.322)
(1160.73 -8609.68 -498.252)
(2830.07 -7642.12 -380.294)
(4029.25 -6260.67 -384.66)
(4465.19 -4716.13 -276.638)
(4420.86 -3400.17 -209.749)
(4288.66 -2530.99 -210.399)
(4291.63 -2024.74 -226.838)
(4391.15 -1712.6 -183.846)
(4543.37 -1481.63 -176.636)
(4762.83 -1350.6 -196.426)
(5024.78 -1227.35 -214.451)
(5337.57 -1150.48 -215.017)
(5607.22 -1056.46 -219.631)
(5975.9 -952.044 -251.685)
(-8241.2 -6080.1 -264.842)
(-6439.72 -6442.2 -197.534)
(-5700.77 -7116.38 -307.571)
(-4932.93 -6426.48 -411.268)
(-3078.4 -8080.47 -499.978)
(-952.228 -8739.15 -445.754)
(1047.01 -8358.38 -452.18)
(3041.71 -7237.01 -348.304)
(4128.12 -4984.85 -260.034)
(3962.64 -2908.86 -151.888)
(3482.08 -1709.62 -115.034)
(3343.61 -1204.58 -124.983)
(3555.39 -971.525 -157.124)
(3757.15 -827.163 -131.498)
(4043.02 -771.331 -134.915)
(4324.17 -758.938 -154.328)
(4620.68 -740.346 -173.9)
(4925.08 -727.022 -183.702)
(5169.16 -681.355 -182.507)
(5470.77 -616.542 -205.973)
(-8767.61 -5055.91 -319.279)
(-7158.17 -5691.98 -224.423)
(-5492.94 -5443.27 -251.879)
(-4787.74 -5141.91 -334.32)
(-3195.94 -7544.09 -408.281)
(-979.294 -8569.49 -400.324)
(1120.36 -8450.32 -386.222)
(3270.41 -7030.83 -328.332)
(3907.73 -3775.94 -188.735)
(3062.76 -1581.4 -75.6196)
(2675.45 -919.263 -89.8313)
(2884.65 -757.949 -120.252)
(3244.93 -649.514 -138.679)
(3694.18 -569.837 -135.574)
(4213.73 -541.884 -148.936)
(4643.19 -512.998 -170.145)
(4943.1 -535.004 -173.733)
(5242.35 -545.159 -179.982)
(5457.99 -510.601 -160.175)
(5740.75 -445.092 -158.501)
(-8726.17 -3979.09 -358.537)
(-6430.16 -4838.2 -258.342)
(-5197.63 -4729.55 -207.094)
(-4585.52 -4429.48 -262.257)
(-3762.87 -5880.04 -373.643)
(-1804.82 -8516.93 -444.191)
(621.06 -8728.04 -485.076)
(2854.67 -7577.59 -387.818)
(3809.69 -3743.04 -257.445)
(2180.85 -778.199 -114.058)
(2494.53 -737.053 -99.8855)
(2862.29 -729.931 -111.363)
(3276.75 -720.283 -149.3)
(3779.98 -652.581 -178.238)
(4408.65 -570.366 -185.359)
(4958.15 -442.547 -206.402)
(5486.98 -247.268 -249.595)
(5846.92 -259.506 -274.944)
(5928.42 -263.474 -294.37)
(6073.98 -218.523 -301.929)
(-9077.75 -2486.98 -521.777)
(-7876.88 -2990.04 -441.152)
(-7330.37 -3071.23 -342.598)
(-5829.31 -3609 -318.859)
(1877.26 -623.317 -102.424)
(2986.41 -600.353 -119.8)
(3204.41 -605.65 -139.83)
(3440.77 -595.39 -151.834)
(3688.45 -569.749 -176.747)
(3982.61 -540.341 -198.754)
(4428.91 -451.727 -217.52)
(5109.21 -330.858 -288.174)
(5844.07 -203.044 -339.048)
(6388.03 -4.58342 -320.937)
(6579.63 156.199 -319.802)
(6637.58 199.618 -326.98)
(-8919.25 -618.942 -487.935)
(-8499.04 -916.689 -453.723)
(-8301.35 -953.515 -400.465)
(-8273.02 -1749.53 -452.837)
(3901.78 -437.328 -196.884)
(4084.64 -258.281 -173.341)
(4074.07 -249.631 -184.648)
(4091.78 -234.422 -192.673)
(4151.77 -213.184 -203.208)
(4264.34 -194.255 -213.343)
(4482.54 -155.465 -218.941)
(4869.97 -68.2348 -251.85)
(5512.33 108.044 -305.398)
(6284.62 279.074 -292.763)
(6851.09 480.122 -315.253)
(7038.01 533.541 -337.223)
(-8384.47 1156.99 -520.868)
(-8135.25 1034.85 -479.287)
(-8236.2 1091.23 -399.342)
(-8502.96 623.778 -499.839)
(4476.31 48.5308 -220.127)
(4300.07 234.74 -180.087)
(4263.07 219.05 -186.467)
(4222.87 207.511 -188.968)
(4201.64 213.575 -195.432)
(4226.06 229.713 -203.775)
(4291.6 253.954 -205.691)
(4467.97 306.705 -210.923)
(4853.34 417.07 -251.69)
(5513.43 604.212 -276.26)
(6290.16 953.235 -265.087)
(6874.98 1128.41 -322.765)
(-7461.71 2784.36 -400.608)
(-7042.18 2978.83 -372.827)
(-6820.56 3201.41 -346.823)
(-7348.78 2794.22 -423.607)
(3922.1 597.3 -186.203)
(3174.68 733.551 -118.532)
(3329.15 736.062 -139.869)
(3457.57 727.008 -166.063)
(3565.28 708.892 -166.801)
(3649.8 688.116 -154.094)
(3771.31 671.043 -160.332)
(3931.47 666.974 -171.649)
(4197.04 714.338 -191.77)
(4671.48 828.544 -218.683)
(5411.25 1100.73 -220.624)
(6499.07 1404.85 -248.36)
(-6088.27 3949.07 -415.379)
(-4796.53 4015.03 -304.865)
(-3573.7 3761.67 -239.503)
(-3390.22 3595.36 -331.377)
(-609.503 1789.52 -115.388)
(-433.058 3761.97 -195.486)
(56.2001 4237.48 -211.043)
(587.854 3674.87 -169.908)
(459.957 513.855 -43.5274)
(941.738 520.886 -51.318)
(1459.13 685.077 -87.6896)
(1933.74 806.206 -82.0586)
(2307.84 872.644 -90.5385)
(2623.98 912.058 -121.199)
(2856.6 914.586 -141.84)
(3087.1 922.111 -154.943)
(3347.21 935.922 -156.776)
(3677.82 997.893 -164.615)
(4199.63 1186.08 -172.512)
(5324.47 1585.32 -205.576)
(-4573.6 4362.48 -322.552)
(-2794.57 3843.67 -212.914)
(-1516.01 2967.62 -129.431)
(-775.462 2156.99 -134.096)
(-615.082 2889.26 -130.938)
(-249.425 3900.57 -171.125)
(238.449 4051.28 -171.574)
(725.527 3032.05 -108.699)
(533.168 1022.69 -51.3243)
(348.541 363.125 -29.7779)
(552.136 395.883 -13.8524)
(845.911 528.228 -24.6255)
(1221.9 682.891 -57.0793)
(1619.59 820.159 -90.3738)
(1996.56 923.734 -119.135)
(2289.99 974.498 -112.727)
(2581.47 1025.2 -118.849)
(2917.78 1071.55 -128.773)
(3310.56 1193.72 -143.606)
(4317.99 1576.44 -172.97)
(-3293.91 4309.5 -252.092)
(-1657.62 3378.21 -161.079)
(-907.833 2643.49 -133.086)
(-739.849 2471.05 -121.171)
(-619.571 3121.8 -147.782)
(-238.254 3879.27 -180.575)
(220.086 4022.17 -177.77)
(722.563 3193.42 -123.929)
(699.056 1534.49 -84.7818)
(398.861 579.352 -21.794)
(354.235 361.341 -7.54409)
(445.571 356.708 -23.3702)
(634.885 455.316 -37.1546)
(933.365 619.194 -60.6331)
(1276.39 775.879 -82.8736)
(1600.77 892.503 -75.863)
(1902.61 974.632 -70.4866)
(2222.87 1051.28 -100.702)
(2590.46 1141.43 -114.5)
(3462.66 1505.1 -133.253)
(-2462.77 4190.97 -256.976)
(-1186.47 3275.07 -174.339)
(-761.295 2851.17 -161.699)
(-737.49 2845.78 -137.303)
(-605.603 3370.8 -161.327)
(-223.218 3903.23 -187.137)
(207.077 3988.84 -178.62)
(705.522 3308.36 -147.985)
(828.968 2003.37 -73.3163)
(547.764 905.744 -38.1849)
(348.264 452.42 -27.9922)
(417.999 426.573 -31.7077)
(486.342 425.809 -32.921)
(603.173 476.291 -32.5312)
(812.718 593.247 -33.7225)
(1086.34 740.176 -34.2411)
(1397.01 881.038 -41.9067)
(1704.77 993.158 -71.0081)
(2022.92 1087.61 -102.681)
(2751.13 1394.24 -115.118)
(-1981.11 4211.6 -270.824)
(-963.331 3492.27 -201.889)
(-660.743 3199.6 -176.572)
(-727.602 3253.5 -174.037)
(-580.244 3619.08 -186.672)
(-203.99 3971.15 -198.067)
(210.653 4010.52 -188.766)
(684.422 3415.45 -151.285)
(885.528 2352.67 -72.5464)
(717.986 1309.49 -57.6435)
(464.989 663.738 -44.6752)
(418.29 489.352 -38.415)
(454.7 456.827 -32.1641)
(497.56 444.958 -17.2234)
(588.051 484.708 -8.61417)
(766.083 598.864 -18.4156)
(1033.45 757.317 -36.8499)
(1320.65 897.696 -59.3375)
(1577.43 1005.43 -81.8904)
(2171.82 1268.19 -88.132)
(-1682.61 4326.03 -227.21)
(-820.486 3697.31 -174.688)
(-583.608 3638.58 -172.418)
(-668.159 3738.86 -203.337)
(-547.177 3907.1 -204.433)
(-182.358 4087.69 -208.312)
(225.286 4053.11 -199.945)
(664.885 3505.45 -147.072)
(911.891 2643.29 -100.316)
(855.99 1710.31 -79.359)
(650.234 999.927 -65.3001)
(486.898 628.162 -37.0242)
(440.542 501.143 -20.0903)
(483.188 488.829 -7.54387)
(543.907 500.38 -14.2308)
(643.088 550.895 -36.0394)
(820.761 668.726 -50.9535)
(1042.91 800.998 -52.8589)
(1248.69 912.731 -48.7059)
(1735.83 1146.29 -54.637)
(-1454.29 4474.11 -217.462)
(-769.408 3993.83 -177.816)
(-560.221 4143.08 -190.537)
(-588.959 4337.16 -207.963)
(-458.541 4329.69 -224.07)
(-143.214 4309.28 -215.216)
(247.767 4141.55 -203.603)
(651.166 3635.71 -158.704)
(906.842 2855.29 -123.033)
(952.361 2078.57 -102.461)
(814.646 1359.52 -78.3597)
(625.583 860.788 -33.3152)
(496.664 607.347 -11.8893)
(495.767 547.76 -15.4508)
(539.345 543.08 -37.5132)
(612.767 570.691 -47.3206)
(706.91 622.868 -38.3511)
(853.165 707.421 -17.3975)
(1023.92 825.089 -9.71122)
(1435.79 1055.26 -29.6537)
(-1326.02 4687.7 -238.274)
(-757.542 4269.67 -199.164)
(-527.393 4582.43 -219.409)
(-475.773 4864.89 -218.35)
(-349.916 4959.9 -279.187)
(-58.442 4693.6 -247.525)
(298.584 4340.44 -211.044)
(650.876 3807.46 -169.893)
(910.275 3077 -140.368)
(992.808 2358.16 -93.6006)
(927.905 1683.74 -60.147)
(779.369 1148.58 -27.4406)
(627.472 806.519 -19.7276)
(561.835 662.08 -37.6016)
(569.934 619.4 -47.3814)
(604.217 608.228 -38.916)
(672.672 639.673 -29.2017)
(777.653 691.335 -8.9199)
(911.287 787.874 -10.4103)
(1257.46 1001.1 -34.2684)
(-1205.49 4941.79 -256.885)
(-739.334 4558.71 -220.053)
(-544.813 4876 -225.076)
(-283.476 5369.7 -271.374)
(-235.263 5660.52 -309.736)
(96.5858 5321.09 -288.636)
(402.033 4731.61 -250.733)
(700.504 4082.07 -188.811)
(923.787 3333.79 -148.855)
(1035.83 2641.24 -97.7206)
(1003.52 1981.27 -51.0491)
(919.437 1468.28 -32.7095)
(793.875 1090.64 -35.6213)
(699.234 862.078 -52.1389)
(643.823 734.117 -39.582)
(643.356 683.166 -29.1797)
(687.429 690.362 -23.9593)
(774.034 730.515 -5.48219)
(887.972 808.522 -12.9095)
(1174.69 992.748 -33.6946)
(-1128.27 5240.87 -257.082)
(-724.453 4852.78 -229.051)
(-555.176 5166.04 -228.95)
(-290.191 5724.96 -299.042)
(-41.4422 6188.9 -298.592)
(253.112 6065.74 -271.344)
(575.584 5384.21 -262.405)
(815.855 4561.42 -209.142)
(989.537 3668.47 -157.966)
(1079 2970.58 -109.54)
(1075.77 2296.87 -82.7549)
(1028.82 1783.8 -62.4342)
(937.041 1390.32 -55.6788)
(842.042 1099.73 -52.5015)
(747.176 899.127 -17.6105)
(710.623 800.486 -9.69351)
(742.79 790.437 -7.075)
(803.325 805.191 -0.948498)
(887.251 850.193 -19.8286)
(1115.28 999.126 -32.4231)
(-1034.73 5490.79 -261.54)
(-677.301 5078.45 -227.716)
(-518.993 5364.17 -207.916)
(-287.014 5809.77 -318.741)
(115.138 6409.39 -319.212)
(440.438 6639.98 -312.75)
(905.954 6104.64 -250.58)
(1079.15 5280.61 -203.998)
(1176.77 4186.6 -163.421)
(1201.6 3359.69 -128.23)
(1164.85 2664.94 -100.528)
(1125.45 2110.11 -87.3741)
(1049.3 1658.33 -70.4924)
(958.318 1316.57 -40.2955)
(871.831 1082.18 -6.30718)
(817.548 945.486 -10.5407)
(836.607 917.232 -14.7969)
(867.111 905.459 -22.2174)
(920.304 919.811 -21.654)
(1091.4 1030.42 -15.6679)
(-932.678 5845.09 -288.694)
(-612.913 5370.05 -246.805)
(-453.618 5640.99 -202.633)
(-237.638 5963.11 -326.475)
(163.639 6488.63 -336.19)
(490.378 6849.02 -340.649)
(1069.25 6688.92 -321.703)
(1358.08 6331.65 -238.596)
(1553.03 5270.85 -197.681)
(1566.53 4340.53 -157.448)
(1516.12 3526.83 -116.618)
(1425.13 2841.89 -96.1044)
(1311.79 2265.48 -73.1377)
(1195.59 1821.26 -42.4262)
(1105.77 1510.63 -24.1021)
(1046.29 1317.02 -32.426)
(1038.92 1228.33 -33.8073)
(1039.5 1160.29 -33.6384)
(1062.05 1120.98 -14.9824)
(1164.29 1157.86 -4.92988)
(-7680.64 -7714.43 -46.4646)
(-5872.52 -8036.29 35.0387)
(-4905.1 -8505.53 63.4257)
(-3983.81 -8427.14 17.5778)
(-2496.04 -8883.88 -135.354)
(-662.773 -8827.23 -147.973)
(1091.43 -8360.53 -189.452)
(2712.79 -7425.62 -118.506)
(3866.23 -6065.07 -153.022)
(4271.3 -4551.88 -86.0416)
(4214.18 -3270.54 -44.0972)
(4050.75 -2412.96 -52.8007)
(4030.72 -1920.75 -68.3254)
(4142.67 -1633.93 -33.9692)
(4280.05 -1411.22 -27.5474)
(4483.52 -1283.35 -40.4737)
(4732.79 -1167.18 -58.0554)
(5039.26 -1097.21 -62.6723)
(5312.31 -1013.74 -74.6907)
(5664.18 -917.693 -108.408)
(-7994.78 -5904.41 44.3973)
(-6259.53 -6311.4 202.96)
(-5447.97 -6827.13 296.755)
(-4754.81 -6205.84 24.9965)
(-2928.95 -7898.24 -182.729)
(-896.332 -8530.04 -167.753)
(1003.67 -8224.07 -184.685)
(2948.41 -7128.65 -131.861)
(3974.89 -4867.49 -85.3102)
(3787.67 -2821.31 -33.8971)
(3321.49 -1650.77 -21.5681)
(3128.26 -1145.32 -27.2226)
(3326.38 -926.446 -48.2973)
(3516.63 -784.225 -9.35663)
(3790.89 -728.072 -2.97681)
(4056.8 -712.427 -15.885)
(4344.59 -697.414 -35.7122)
(4645.64 -689.409 -48.9997)
(4904.05 -652.865 -59.1658)
(5196.84 -597.085 -87.7634)
(-8417.88 -4905.36 117.377)
(-6880.19 -5567.51 284.049)
(-5259.93 -5290.47 363.022)
(-4536.88 -5057.74 -50.0855)
(-3066.76 -7482.3 -180.335)
(-932.778 -8570.82 -214.247)
(1127.43 -8372.25 -172.145)
(3187.9 -7004.12 -153.959)
(3758.46 -3706.51 -33.8)
(2901.15 -1525.87 10.0293)
(2532.44 -880.817 -15.2442)
(2713.28 -716.837 -39.1854)
(3027.01 -615.417 -58.5533)
(3441.42 -532.585 -28.1507)
(3912.81 -508.897 -2.19699)
(4351.79 -475.342 -13.4406)
(4654.22 -495.24 -20.8063)
(4954.55 -515.832 -31.9885)
(5190.93 -489.439 -27.6753)
(5471.13 -435.317 -41.4994)
(-8391.12 -3888.24 130.224)
(-6159.72 -4716.97 116.14)
(-5017.12 -4545.04 -5.69471)
(-4309.37 -4353.41 -85.5775)
(-3617.37 -6164.8 -189.244)
(-1743.36 -8528.59 -222.228)
(590.34 -8748.88 -269.518)
(2755.91 -7584.74 -178.426)
(3675.7 -3762.66 -44.3939)
(2068.87 -743.989 -34.8945)
(2362.51 -701.758 -17.4009)
(2700.83 -687.718 -18.2676)
(3079.91 -670.7 -45.3584)
(3541.47 -609.234 -68.7381)
(4119.48 -527.192 -49.2368)
(4650.21 -422.896 -13.2937)
(5119.79 -233.857 -64.8715)
(5544.84 -227.854 -110.344)
(5639.19 -244.743 -150.057)
(5807.03 -215.694 -181.739)
(-8752.14 -2423.56 -114.664)
(-7669.23 -2894.05 -161.255)
(-7182.92 -3006.87 -184.024)
(-5703.73 -3513.56 -140.981)
(1832.15 -596.571 -34.9039)
(2860.74 -572.247 -69.654)
(3037.46 -571.214 -73.2546)
(3239.11 -557.199 -68.7433)
(3461.39 -534.621 -77.1745)
(3728.52 -509.556 -84.8616)
(4132.83 -430.028 -90.596)
(4734.86 -312.808 -117.632)
(5461.45 -201.591 -99.2448)
(5968.34 -13.2653 -71.7996)
(6283.91 148.084 -145.316)
(6366.88 193.804 -183.294)
(-8616.29 -622.626 -157.762)
(-8270.85 -874.797 -185.714)
(-8264.64 -922.404 -221.649)
(-8231.43 -1705.53 -217.011)
(3781.09 -415.017 -117.742)
(3920.94 -243.226 -95.6478)
(3856.14 -232.895 -90.1984)
(3853.34 -219.782 -87.4054)
(3885.77 -200.846 -88.3388)
(3971.88 -182.634 -86.6244)
(4153.81 -149.351 -76.2671)
(4483.67 -76.4782 -89.8497)
(5054.1 75.2063 -102.505)
(5811.6 271.147 4.59464)
(6364.19 464.822 -55.0759)
(6736.71 518.647 -150.923)
(-8140.22 1075.06 -224.361)
(-7982.67 977.719 -232.014)
(-8151.31 1081.95 -202.794)
(-8521.42 587.489 -295.49)
(4321.11 38.8237 -127.81)
(4117.31 217.864 -95.879)
(4049.14 201.378 -90.4469)
(3986.81 190.857 -85.631)
(3932.34 193.894 -83.0945)
(3945.41 205.787 -84.3176)
(3995.5 224.445 -80.904)
(4137.59 266.479 -71.1193)
(4453.09 358.11 -87.6591)
(5049.83 513.076 -67.5706)
(5787.71 828.848 42.2989)
(6485.47 1066.24 -64.0628)
(-7230.85 2654.15 -154.36)
(-6940.2 2869.53 -187.561)
(-6802.9 3107.3 -200.145)
(-7388.82 2682.66 -210.966)
(3785.87 552.516 -110.888)
(3037.19 683.443 -58.3489)
(3156.96 676.7 -64.5308)
(3249.38 663.45 -79.4454)
(3332.93 645.912 -72.4297)
(3398.55 627.09 -53.9624)
(3496.16 610.691 -54.1505)
(3633.88 602.791 -53.1658)
(3855.08 636.384 -53.9235)
(4252.13 727.296 -55.7618)
(4909.25 947.567 7.0726)
(6003.91 1271.56 22.263)
(-5889.25 3769.86 -197.748)
(-4704.36 3854.01 -161.759)
(-3545.41 3631.34 -120.123)
(-3476.51 3509.3 -92.2172)
(-619.907 1833.36 -36.223)
(-417.439 3672.69 -121.102)
(46.0922 4128.25 -131.119)
(546.123 3570.6 -101.39)
(423.579 480.2 -16.4223)
(871.401 475.297 -27.5256)
(1371.49 626.491 -57.4197)
(1806.26 736.533 -32.3534)
(2134.78 789.684 -23.1725)
(2411.54 821.666 -41.8867)
(2632.99 828.377 -56.8224)
(2842.21 835.635 -62.9469)
(3078.52 846.462 -53.0986)
(3365.37 889.579 -44.0861)
(3802.17 1033.7 -15.9609)
(4835.8 1397.67 13.381)
(-4410.95 4155.92 -132.572)
(-2717.72 3658.96 -100.986)
(-1469.11 2807.37 -55.3571)
(-735.244 2057.22 -66.0525)
(-593.056 2811.48 -81.3233)
(-237.28 3804.96 -100.72)
(221.239 3938.16 -96.5671)
(677.276 2929.48 -60.5248)
(484.851 962.486 -22.7036)
(305.85 320.955 -17.8125)
(491.407 353.186 2.94659)
(773.581 476.897 -0.0709744)
(1117.1 610.976 -30.5731)
(1476.48 731.426 -50.6756)
(1816.56 826.843 -52.8892)
(2091.37 877.243 -32.8348)
(2352.04 920.801 -31.6748)
(2654.46 962.283 -41.0112)
(2996.35 1050.07 -28.375)
(3894.27 1382.44 -6.22601)
(-3166.54 4092.73 -82.9904)
(-1596.72 3191.34 -60.9661)
(-866.239 2468.58 -46.5311)
(-705.022 2348.66 -41.4673)
(-592.09 2995.54 -79.8827)
(-225.595 3730.76 -97.6974)
(200.838 3876.33 -95.4969)
(667.985 3059.97 -62.0455)
(637.375 1443.91 -50.7934)
(353.924 522.672 -4.37277)
(296.276 303.984 5.55847)
(374.843 297.109 -16.2549)
(554.582 388.745 -25.7083)
(823.703 535.722 -21.5438)
(1124.17 672.112 -20.131)
(1429.88 783.035 -14.5369)
(1719.78 869.342 -10.3535)
(2014.6 940.598 -40.9217)
(2343.82 1014.37 -31.7499)
(3109.57 1322 -3.02382)
(-2346.84 3949.12 -89.3312)
(-1128.47 3045.77 -58.293)
(-720.195 2650.24 -60.9875)
(-696.721 2684.59 -34.2376)
(-574.842 3193.49 -73.2626)
(-212.967 3727.25 -95.5492)
(189.017 3825.15 -89.7748)
(649.077 3146.32 -76.2318)
(754.071 1868.51 -26.8714)
(490.44 821.227 -6.71824)
(293.042 387.192 -16.8638)
(346.839 355.795 -25.2816)
(409.644 355.2 -9.30463)
(510.826 399.853 4.96617)
(698.499 503.288 1.10353)
(957.972 643.311 -7.36076)
(1256.68 782.464 -8.51131)
(1540.67 887.261 -16.4604)
(1818.83 967.134 -24.2964)
(2460.41 1225.23 -5.31967)
(-1880.64 3950.8 -101.633)
(-917.046 3250.57 -72.3957)
(-625.574 2958.55 -67.9099)
(-683.605 3045.34 -49.0866)
(-549.633 3400.74 -77.5327)
(-195.061 3758.82 -94.9176)
(190.941 3796.48 -86.0027)
(628.398 3224.66 -69.9748)
(804.288 2184.57 -9.22562)
(639.355 1190.93 -21.6639)
(400.973 583.141 -24.275)
(348.368 413.383 -11.0103)
(383.364 385.227 1.00389)
(422.611 375.34 3.72437)
(509.364 415.538 6.02341)
(673.286 518.684 2.50113)
(916.538 663.942 4.52274)
(1168.66 788.48 7.14339)
(1396.66 879.056 -11.7749)
(1942.31 1114.68 -6.44676)
(-1605.01 4077.64 -67.9233)
(-775.42 3452.58 -38.3401)
(-548.795 3374.5 -36.2069)
(-632.864 3472.3 -60.2513)
(-523.624 3644.99 -77.3948)
(-177.727 3839.43 -90.3835)
(200.592 3814.74 -85.2993)
(608.631 3284.49 -54.1849)
(828.465 2453.26 -21.5523)
(766.346 1564.29 -31.3861)
(567.295 883.581 -18.2554)
(407.77 529.463 3.17767)
(372.004 424.388 2.18689)
(408.296 412.426 3.82851)
(465.182 424.215 3.49622)
(547.658 467.034 -6.03478)
(694.594 562.863 -2.33308)
(903.264 683.425 2.60438)
(1106.2 798.013 -7.30991)
(1562.35 1019.91 -4.99851)
(-1384.61 4213.77 -59.3094)
(-725.771 3746.12 -33.7577)
(-528.355 3849 -18.6552)
(-556.562 4028.92 -31.4468)
(-446.801 4019.22 -74.4129)
(-146.123 4015.02 -78.7447)
(217.164 3872.5 -79.3794)
(591.863 3380.49 -54.7911)
(827.492 2658.75 -36.823)
(861.339 1912.73 -34.1966)
(714.558 1210.41 -12.1912)
(533.56 745.919 5.22718)
(426.49 525.962 5.95379)
(420.607 469.736 2.69847)
(462.943 466.042 -5.38687)
(521.823 485.96 -7.69567)
(604.704 529.684 3.96673)
(752.031 615.58 16.9441)
(913.728 729.2 15.5392)
(1294.79 942.629 11.616)
(-1259.62 4408.6 -72.5924)
(-713.027 4003.13 -48.7896)
(-495.096 4292.76 -44.7)
(-461.229 4565.11 13.719)
(-340.939 4595.02 -79.0608)
(-77.2132 4336.79 -85.9598)
(256.572 4020.37 -67.5738)
(584.831 3522.92 -50.4871)
(827.365 2856 -47.9844)
(902.329 2178.04 -15.565)
(827.689 1527.83 1.61352)
(685.301 1023.28 2.46633)
(547.039 710.242 3.78586)
(479.229 566.559 -7.00959)
(487.022 527.281 -8.31826)
(514.541 516.848 -0.565855)
(581.158 549.727 3.65979)
(685.281 606.157 15.0326)
(807.292 697.338 16.3739)
(1118.69 886.371 13.0549)
(-1145.47 4642.01 -89.9001)
(-698.389 4272.42 -70.7927)
(-513.221 4580.1 -58.1875)
(-280.815 5022.11 -59.5491)
(-238.769 5307.68 -44.9432)
(60.6626 4904.26 -76.1426)
(342.669 4336.26 -78.3186)
(618.917 3750.4 -49.2281)
(833.67 3080.86 -43.5204)
(936.249 2427.64 -13.6986)
(905.646 1812.19 8.70553)
(824.728 1331.74 3.35292)
(701.385 971.28 7.3354)
(593.695 734.415 -3.03219)
(546.232 625.328 3.28305)
(555.68 591.653 4.05266)
(599.853 602.041 1.03376)
(681.957 645.988 16.4917)
(786.99 716.24 22.829)
(1036.62 869.927 17.0925)
(-1075.03 4928.47 -94.3318)
(-689.19 4557.21 -84.7774)
(-533.766 4863.11 -72.87)
(-270.733 5433.87 -127.178)
(-53.4566 5814.98 -42.7826)
(243.751 5643.4 32.2903)
(490.157 4937.4 -40.2918)
(711.045 4159 -44.4009)
(878.284 3364.27 -35.5351)
(971.034 2719.97 -21.0037)
(968.758 2099.72 -22.8986)
(925.558 1621.3 -7.53817)
(829.245 1235.74 10.1828)
(723.489 956.345 4.82191)
(650.628 791.676 18.6652)
(624.549 706.077 14.905)
(657.786 696.713 15.3759)
(713.386 714.127 32.2422)
(780.247 746.2 26.7725)
(983.626 873.941 18.0457)
(-991.582 5175.34 -105.416)
(-651.176 4790.39 -94.0993)
(-505.757 5073.58 -70.5825)
(-280.022 5525.17 -174.018)
(101.199 6124.67 -139.389)
(412.95 6191.62 -46.8876)
(796.305 5625.55 64.8559)
(929.337 4812.02 27.5457)
(1024.79 3802.89 -2.6924)
(1058.68 3055.29 -9.206)
(1039.14 2426.01 -15.1012)
(1006.36 1907.51 -9.74139)
(925.127 1478.04 -2.22099)
(843.607 1172.23 2.83408)
(773.608 966.985 20.1686)
(728.591 841.098 16.6867)
(739.738 809.476 20.845)
(761.753 795.005 25.15)
(801.171 800.071 24.1359)
(961.143 905.506 26.3283)
(-897.822 5510.74 -134.986)
(-595.315 5070.64 -118.325)
(-449.557 5343.06 -80.1631)
(-243.312 5687.73 -203.395)
(149.186 6214.82 -187.651)
(465.649 6561.12 -147.351)
(1007.88 6308.19 -58.9248)
(1232.01 5867.67 32.3541)
(1375.06 4811.57 24.8327)
(1380.74 3937.99 12.9349)
(1340.31 3188.9 14.6099)
(1261.61 2559.01 13.2273)
(1163.41 2041.29 8.39914)
(1070.91 1647.77 10.023)
(993.253 1366.61 18.3595)
(932.272 1175.16 16.6708)
(910.717 1080.46 19.7498)
(908.542 1019.82 19.5709)
(933.285 985.846 28.8118)
(1039.38 1032.89 33.7333)
(-7754.29 -7731.94 11.1202)
(-6008.19 -8170.51 134.779)
(-5042.26 -8631.66 224.367)
(-4119.15 -8451.09 129.088)
(-2491.08 -8856.26 -24.4194)
(-677.026 -8804.65 -69.2392)
(1056.27 -8375.54 -104.725)
(2679.77 -7458.31 -63.567)
(3820.18 -6078.05 -89.3666)
(4199.04 -4544.86 -32.4365)
(4142.08 -3269.47 8.7023)
(3955.57 -2402.89 -5.11857)
(3919.16 -1912.24 -28.4098)
(4045.45 -1642.18 -7.45909)
(4194.52 -1427.13 0.58028)
(4398.48 -1300.74 -6.86217)
(4636.68 -1188.13 -27.2428)
(4934.85 -1123.65 -34.9196)
(5206.64 -1048.04 -49.6472)
(5549.12 -957.961 -79.5305)
(-8175.05 -5979.95 121.02)
(-6567.11 -6524.69 292.851)
(-5424.74 -6722.53 454.923)
(-4794.25 -6211.4 116.891)
(-2857.49 -7869.36 -34.2598)
(-881.145 -8500.35 -68.7199)
(986.473 -8242.53 -90.4072)
(2929.12 -7156.6 -64.9825)
(3935.5 -4858.93 -20.4063)
(3712.48 -2788.66 8.35493)
(3274.32 -1634.99 26.3901)
(3047.5 -1132.66 19.6106)
(3247.91 -935.485 -10.7371)
(3430.44 -795.745 9.10473)
(3697.81 -730.466 19.8962)
(3973.51 -713.543 12.2269)
(4261.09 -703.565 -9.92643)
(4561.45 -703.617 -23.8734)
(4829.07 -680.927 -37.5435)
(5115.37 -635.594 -64.5887)
(-8410.68 -4961.19 184.103)
(-6907.87 -5543.84 334.681)
(-5271.25 -5204.06 318.652)
(-4404.86 -5086.68 22.5922)
(-3022.44 -7388.68 -9.81953)
(-900.894 -8524.36 -62.8263)
(1136.4 -8365.62 -64.4659)
(3162.49 -6997.87 -65.2716)
(3697.18 -3651.09 30.3638)
(2812.65 -1487.53 33.8999)
(2504.59 -867.215 10.4339)
(2686.49 -709.498 7.2714)
(2962.36 -618.662 -11.9625)
(3346.49 -527.083 5.95792)
(3774.04 -494.978 20.6452)
(4243.1 -464.003 2.39833)
(4572.15 -490.356 -8.26708)
(4875.46 -520.084 -15.1878)
(5120.8 -511.246 -8.61826)
(5388.16 -474.42 -22.3843)
(-8289.82 -3987.75 126.797)
(-6041.53 -4682.48 61.8968)
(-4924.31 -4351.59 -69.4656)
(-4163.59 -4217.94 -18.7463)
(-3543.62 -6193.47 -43.9784)
(-1718.1 -8469.17 -77.7798)
(577.128 -8727.38 -119.584)
(2698.46 -7574.15 -53.9517)
(3538.94 -3635.11 13.7092)
(1985.9 -718.799 -3.49696)
(2314.88 -693.803 5.89781)
(2674.56 -671.676 19.0681)
(3057.48 -637.072 1.94639)
(3515.04 -567.29 -21.5963)
(4087.54 -468.291 -7.57566)
(4651.94 -405.091 23.1909)
(5088.24 -241.836 -29.7892)
(5540.45 -197.698 -90.9329)
(5629.37 -226.958 -116.354)
(5764.97 -230.889 -144.98)
(-8679.31 -2458.61 -76.2901)
(-7627.51 -2823.05 -129.569)
(-7124.52 -2962.49 -123.209)
(-5677.25 -3454.75 -81.0199)
(1685.33 -557.862 -19.2345)
(2759.92 -553.659 -43.1291)
(2927.26 -543.14 -46.0402)
(3125 -535.882 -38.4896)
(3369.12 -529.86 -42.9428)
(3662.82 -522.077 -47.7061)
(4072.64 -464.422 -52.5652)
(4669.9 -343.49 -73.3164)
(5444.3 -236.051 -68.2117)
(5993.19 -62.8204 -44.8954)
(6373.79 146.025 -129.933)
(6426.91 185.549 -159.623)
(-8569.15 -669.73 -86.2732)
(-8245.6 -867.308 -104.103)
(-8252.76 -886.999 -121.743)
(-8221.35 -1687.97 -99.2891)
(3604.46 -395.244 -61.2741)
(3814.61 -238.883 -48.0569)
(3758.93 -231.091 -46.2269)
(3765.12 -220.371 -44.61)
(3804.55 -205.901 -46.032)
(3892.34 -187.991 -48.244)
(4062.43 -159.072 -39.9524)
(4363.61 -105.314 -51.6423)
(4904.44 29.7475 -80.0316)
(5757.81 257.639 22.3619)
(6399.75 451.464 12.3986)
(6891.59 495.361 -134.092)
(-8167.45 1005.21 -141.778)
(-8018.25 927.229 -132.341)
(-8157.25 1081.4 -92.9116)
(-8506 568.862 -147.406)
(4135.55 37.6259 -66.7834)
(4011.98 197.411 -48.7331)
(3950.83 182.139 -45.7759)
(3904.33 168.634 -43.107)
(3869.57 169.871 -45.1712)
(3891.05 181.303 -51.9725)
(3941.63 199.438 -56.6829)
(4063.21 229.963 -49.6871)
(4336.92 300.011 -60.0927)
(4897.46 434.106 -65.9624)
(5728.59 717.745 53.7781)
(6616.56 1018.33 -24.4873)
(-7255.58 2589.23 -90.3869)
(-6977.37 2824.13 -94.5743)
(-6842.66 3061.05 -97.4914)
(-7374.58 2629.16 -94.2337)
(3623.84 518.432 -48.7369)
(2957.13 642.587 -28.9828)
(3089.03 636.156 -25.3653)
(3169.53 620.085 -33.0011)
(3263.42 604.501 -34.7203)
(3349.51 587.712 -22.8649)
(3446.98 576.978 -27.7577)
(3579.55 567.892 -35.1063)
(3769.98 586.941 -35.7355)
(4104.73 654.453 -42.7436)
(4719.6 835.483 6.82681)
(5942.48 1182.96 34.4012)
(-5911.06 3696.01 -132.088)
(-4746.99 3799.36 -77.2135)
(-3611.65 3594.79 -35.9705)
(-3576.13 3435.29 -83.9886)
(-566.421 1678.4 -41.5453)
(-395.467 3561.25 -61.572)
(44.0232 3994.83 -64.2163)
(507.649 3463.39 -46.944)
(422.564 404.122 -5.28876)
(840.568 435.445 -11.1498)
(1329.46 579.854 -35.9671)
(1762.38 695.334 -9.51869)
(2098.99 748.339 18.5659)
(2367.44 782.414 2.58577)
(2603.64 795.054 -24.8394)
(2803.37 797.444 -38.6698)
(3029.98 804.56 -37.1755)
(3288.09 829.102 -31.992)
(3665.12 933.213 -11.3696)
(4691.17 1269.11 16.5908)
(-4411.69 4069.02 -91.0422)
(-2711.7 3560.99 -55.1503)
(-1461.68 2686.93 -19.4595)
(-714.285 1908.14 -26.4996)
(-557.868 2711.01 -40.406)
(-225.949 3710.82 -43.5186)
(206.084 3841.53 -41.2026)
(630.459 2809.38 -22.7573)
(438.103 857.498 -12.3678)
(274.438 278.033 -13.5147)
(445.994 313.325 8.16374)
(744.537 446.586 13.8494)
(1085.48 577.224 -7.4513)
(1433.47 688.919 -24.848)
(1767.95 781.526 -27.4323)
(2059.9 837.688 -5.51892)
(2315.69 877.438 -3.10828)
(2584.95 916.057 -30.4884)
(2889.57 966.921 -26.9201)
(3738.86 1256.27 -8.05402)
(-3170.55 4011.13 -54.3617)
(-1594.76 3120.56 -34.9912)
(-866.086 2388.7 -24.3198)
(-701.428 2217.46 -19.771)
(-551.052 2874.38 -36.3989)
(-214.91 3651.83 -43.8252)
(188.31 3791.27 -35.1151)
(628.733 2959.76 -25.3849)
(577.34 1320.17 -30.6004)
(319.184 462.175 7.71268)
(250.782 253.774 11.6222)
(323.414 249.622 -10.5696)
(496.272 338.765 -24.5622)
(766.385 487.366 -10.3971)
(1084.84 629.5 13.9375)
(1388.9 743.904 9.87567)
(1679.58 829.09 3.07017)
(1954.4 893.915 -36.974)
(2257.01 950.6 -40.1238)
(2960.54 1203.57 -4.84327)
(-2335.42 3840.3 -53.185)
(-1119.59 2933 -18.0696)
(-725.897 2572.97 -20.8387)
(-698.233 2560.66 -10.0406)
(-537.427 3056.44 -29.1649)
(-205.976 3656.75 -43.095)
(173.673 3750.91 -35.7675)
(611.098 3045.07 -33.7331)
(689.818 1746.66 -6.81155)
(449.514 751.916 11.2394)
(251.894 331.705 -10.9725)
(284.217 288.443 -26.6922)
(343.795 291.198 -8.93003)
(456.248 348.543 18.6838)
(645.888 459.477 17.5082)
(896.694 591.434 -8.46853)
(1190.7 727.938 -20.2903)
(1476.31 833.48 -17.4475)
(1745.49 911.977 -16.3623)
(2342.81 1127.27 -0.724377)
(-1867.7 3820.95 -64.7011)
(-930.535 3141.63 -42.8986)
(-643.196 2851.93 -30.4001)
(-683.443 2934.78 -12.4903)
(-522.776 3275.96 -35.4908)
(-192.842 3695.46 -45.0172)
(172.547 3737.49 -40.185)
(591.849 3132.44 -34.9546)
(747.188 2080.7 10.6713)
(586.436 1104.54 -12.5851)
(349.725 513.087 -25.8327)
(287.887 345.407 -8.61133)
(329.763 330.596 13.4042)
(371.847 326.168 10.6171)
(453.326 364.761 -1.18479)
(604.791 455.74 -5.58581)
(837.295 596.112 -0.0576883)
(1112.49 735.726 18.6703)
(1343.06 833.635 4.41815)
(1851.86 1035.52 -2.63599)
(-1607.64 3956.96 -40.4826)
(-791.526 3341.61 -21.7914)
(-555.022 3263.48 -14.6562)
(-632.854 3372.93 -19.1297)
(-516.498 3538.22 -38.4654)
(-179.697 3781.23 -46.544)
(183.95 3767.18 -46.8998)
(574.127 3208.9 -26.3549)
(781.043 2353.08 -9.11599)
(703.193 1465.16 -29.972)
(507.425 800.237 -11.346)
(355.923 467.439 16.2874)
(325.925 371.599 9.91255)
(357.94 358.402 -6.36447)
(409.359 369.019 -5.28465)
(483.999 407.048 -5.49585)
(631.217 504.213 6.23806)
(848.211 631.243 16.3024)
(1050.61 745.781 -2.14903)
(1479.05 948.466 -10.6526)
(-1395.91 4102.71 -29.5273)
(-732.5 3635.82 -6.00664)
(-535.143 3721.27 8.29195)
(-543.573 3942.83 -2.22972)
(-465.67 3919.16 -42.0922)
(-156.153 3946.55 -40.3887)
(200.418 3823.56 -48.9263)
(563.798 3303.2 -33.6161)
(790.154 2586.81 -35.5699)
(800.864 1818.11 -32.0378)
(658.108 1138.12 11.5073)
(482.421 680.105 16.2322)
(374.967 464.707 -0.279412)
(367.788 410.081 -6.0905)
(410.822 411.679 0.135695)
(468.117 434.066 3.75683)
(553.576 480.231 13.351)
(697.487 563.592 20.1326)
(853.344 669.742 10.0522)
(1209.37 866.333 3.62386)
(-1274.37 4301.28 -31.623)
(-720.742 3915.35 -6.24469)
(-503.289 4217.92 4.34812)
(-492.108 4556.07 37.4239)
(-355.646 4493.32 -59.2149)
(-110.83 4240.7 -52.0682)
(227.829 3945.55 -40.6848)
(554.443 3443.16 -39.9181)
(790.025 2784.72 -44.4068)
(855.933 2115.73 -8.36326)
(778.551 1464.97 11.5458)
(629.005 955.363 -4.01953)
(484.703 638.515 -3.63231)
(418.392 497.498 -6.33906)
(438.732 471.864 2.53527)
(467.143 464.619 10.2688)
(529.622 496.035 9.05492)
(624.7 546.391 11.118)
(737.515 629.578 10.2319)
(1035.57 808.765 12.4819)
(-1167.42 4531.33 -44.1401)
(-712.953 4194.03 -20.4419)
(-525.526 4545.71 -1.44356)
(-321.325 5012.4 -0.707548)
(-270.482 5289.69 -39.9921)
(8.45572 4775.15 -66.4797)
(293.273 4216.97 -49.2825)
(572.496 3648.3 -38.6997)
(793.621 3011.77 -39.8469)