/*--------------------------------*- C++ -*----------------------------------*\
  =========                 |
  \\      /  F ield         | OpenFOAM: The Open Source CFD Toolbox
   \\    /   O peration     | Website:  https://openfoam.org
    \\  /    A nd           | Version:  9
     \\/     M anipulation  |
\*---------------------------------------------------------------------------*/
FoamFile
{
    format      ascii;
    class       volScalarField;
    location    "0.0055";
    object      T;
}
// * * * * * * * * * * * * * * * * * * * * * * * * * * * * * * * * * * * * * //

dimensions      [0 0 0 1 0 0 0];

internalField   nonuniform List<scalar> 
9720
(
1222.88
1222.2
1225.68
1198.39
1178.02
1169.14
1160.09
1140.25
1113.91
1093.63
1077.56
1070.63
1070.05
1069.47
1071.31
1074.93
1079.3
1083.06
1084.48
1085.52
1221.73
1221.9
1227.07
1170.17
1155.34
1163.51
1159.42
1134.96
1090.01
1053.48
1028.15
1024.89
1030.24
1039.5
1048.77
1056.04
1062.7
1067.27
1068.66
1068.99
1224.23
1227.33
1176.76
1130.68
1143.89
1164.42
1164.08
1135.5
1074.26
1030.45
1013.12
1016.04
1023.92
1039.57
1057.89
1069.4
1076.96
1079.59
1079.48
1077.94
1197.79
1169.56
1130.7
1101.06
1117.69
1166.72
1173.04
1153.79
1072.88
969.024
975.07
986.951
1001.13
1019.73
1043.56
1067.32
1088.26
1093.14
1091.83
1087.43
1176.6
1151.73
1138.91
1115.17
951.282
962.156
970.805
979.944
989.765
1001.61
1018.29
1045.12
1076.27
1096.55
1099.75
1097.46
1166.06
1159.24
1159.88
1162.69
987.248
991.993
991.557
992.052
994.058
998.056
1005.45
1018.64
1041.92
1072.57
1093.22
1095.61
1156.62
1154.95
1159.55
1169.2
1002.61
994.747
993.005
990.751
989.72
990.36
992.69
998.601
1011.32
1033.98
1063.5
1084.72
1136.65
1130.57
1130.56
1149.17
982.848
954.817
957.571
959.87
962.73
965.67
969.545
975.415
984.837
1000.71
1025.52
1063.05
1110.32
1085.27
1068.65
1062.49
946.89
985.622
998.226
977.153
890.619
895.69
907.938
916.554
922.751
928.937
935.68
943.278
952.928
965.985
984.262
1026.44
1090.45
1049.53
1026.38
967.041
960.563
989.347
990.277
949.878
891.36
871.786
875.688
883.415
890.658
899.368
909.848
919.086
927.401
938.79
952.851
993.051
1073.78
1023.63
1011.39
974.003
969.76
988.499
988.577
954.382
905.213
874.071
860.76
865.002
876.121
888.531
897.018
902.765
908.518
916.575
928.347
965.793
1067.69
1023.09
1014.25
986.323
979.158
989.218
986.594
956.717
915.605
882.785
864.764
868.037
876.052
883.158
887.403
890.858
895.917
903.821
913.108
944.27
1068.18
1028.83
1021.67
1000.39
989.129
991.515
986.744
959.827
922.801
891.766
875.746
875.639
874.944
874.507
877.166
883.543
892.973
902.034
906.877
928.046
1068.19
1038.66
1037.2
1018.45
1000.84
995.653
987.844
963.272
929.593
901.499
889.258
883.834
875.126
873.138
876.259
884.063
894.157
901.248
901.967
914.959
1069.98
1048.46
1056.17
1041.75
1016.99
1003.26
990.847
967.759
936.719
912.268
898.802
889.002
878.473
876.753
879.554
886.195
892.894
897.874
900.21
913.969
1073.63
1055.85
1068.89
1065.25
1042.47
1016.53
997.542
974.341
944.598
921.681
905.375
893.231
885.586
885.834
887.291
889.478
891.85
896.007
900.722
915.739
1078
1062.43
1076.38
1085.94
1072.82
1039.53
1010.71
984.365
954.532
930.372
911.908
899.132
895.804
897.124
896.029
893.32
893.616
897.357
903.144
918.674
1081.46
1066.41
1078.44
1091.17
1093.16
1069.78
1033.52
1000.72
967.977
942.145
920.557
907.826
905.725
905.097
901.906
898.825
899.286
902.696
907.996
921.703
1082.53
1067.3
1078.18
1090.11
1097.76
1090.61
1062
1025.41
986.466
956.497
932.688
917.63
911.491
906.631
904.011
903.975
905.797
909.485
913.974
924.301
1083.31
1067.38
1076.41
1086.11
1095.83
1093.61
1082.64
1061.64
1027.22
995.653
969.516
948.729
933.453
920.689
917.957
919.517
922.388
925.166
926.782
931.718
1218.63
1217.78
1219.58
1189.88
1168.74
1161.73
1153.39
1134.24
1107.53
1086.94
1070.9
1062.71
1061.92
1061.69
1063.46
1066.99
1071.6
1075.9
1077.77
1078.82
1217.91
1217.94
1218.76
1159.69
1147.48
1157.28
1154.37
1129.97
1084.67
1047.95
1023.14
1016.96
1021.92
1030.91
1040.37
1047.68
1054.9
1060.39
1062.44
1062.96
1219.38
1221.29
1159.67
1118.72
1138.97
1160.9
1159.7
1131.06
1069.49
1025.48
1007.53
1010.11
1016.53
1030.15
1047.58
1060.48
1069.34
1073.94
1073.99
1072.85
1190.75
1160.2
1118.56
1090.12
1118.27
1162.08
1168.31
1148.93
1068.78
962.914
967.924
978.966
992.478
1010.28
1033.1
1056.55
1078.69
1087.4
1086.65
1082.85
1168.13
1144.01
1132.73
1105.88
950.614
954.362
961.778
970.205
979.692
991.215
1007.16
1032.17
1063.96
1086.55
1094.22
1092.73
1158.56
1152.65
1155.99
1157.72
979.62
983.502
981.761
981.795
983.023
986.19
992.751
1004.77
1026.45
1057.77
1081.93
1089.49
1150
1149.6
1155.33
1164.51
993.919
985.632
982.868
980.095
978.061
978.363
980.24
985.327
996.365
1017.62
1047.29
1073.79
1130.49
1125.6
1126.65
1144.85
974.626
945.844
946.921
948.183
950.442
953.18
956.679
962.022
970.449
984.654
1007.59
1048.09
1103.52
1079.96
1064.75
1061.55
944.7
978.813
991.086
969.719
898.329
894.218
901.976
907.733
911.742
916.211
922.193
929.437
938.695
951.014
967.364
1009.19
1083.19
1043.41
1020.95
961.629
953.542
981.814
982.14
940.865
891.028
886.397
878.284
879.855
883.095
888.421
896.361
904.976
913.002
923.951
936.831
975.451
1066.77
1017.78
1003.72
966.717
961.199
979.839
979.601
944.439
900.608
877.239
857.515
860.116
869.59
878.713
884.404
889.906
895.465
903.078
913.605
948.572
1059.44
1013.76
1006.12
977.422
969.278
979.975
977.287
946.053
907.779
880.526
860.853
863.168
869.752
874.938
878.503
882.107
886.642
892.125
899.003
927.683
1060.19
1019.59
1012.34
990.162
978.303
981.307
975.947
948.278
912.832
885.486
870.303
869.106
868.107
868.855
871.33
876.477
884.015
890.599
894.442
914.29
1060.87
1029.92
1026.63
1006.81
989.172
984.393
976.406
950.985
918.101
892.125
880.174
875.444
869.145
867.181
869.752
876.179
883.897
891.548
893.664
905.62
1062.58
1040.14
1045.6
1029.77
1004.33
990.779
978.517
954.671
924.431
900.87
887.48
880.377
872.759
870.153
871.962
877.289
883.779
891.115
893.725
905.508
1065.8
1047.3
1059.49
1054.07
1028.67
1002.58
983.9
960.491
931.651
909.475
894.115
884.749
878.647
877.769
878.46
880.944
884.595
890.065
894.24
907.176
1070.01
1054.12
1067.94
1075.76
1060.53
1024.33
995.262
969.493
940.715
917.291
900.162
890.048
886.619
886.54
886.475
886.237
887.457
891.357
896.095
909.569
1073.76
1058.86
1071.71
1084.7
1083.3
1055.6
1017.13
984.483
953.04
928.058
907.943
896.563
893.996
894.741
894.513
892.953
893.34
896.091
899.493
912
1075.04
1060.27
1071.61
1084.09
1091.64
1079.55
1046.17
1007.98
969.727
940.917
918.531
904.144
899.123
897.616
897.102
897.387
898.763
900.907
904.365
915.314
1075.78
1060.46
1070.27
1080.57
1090.33
1087.31
1072
1047.48
1010.83
978.832
953.106
933.079
920.448
911.151
909.375
910.742
912.964
915.148
917.616
924.244
1218.91
1219.79
1220.94
1186.53
1163.28
1158.13
1150.63
1131.61
1104.89
1084.37
1068.73
1059.28
1058.42
1059.14
1061.21
1064.81
1069.42
1073.86
1075.79
1076.8
1219.89
1220.69
1212.84
1152.3
1142.72
1154.43
1152.23
1127.74
1082.75
1046.41
1023.7
1015.53
1019.78
1027.9
1037.46
1045.26
1052.84
1058.81
1061.22
1061.83
1219.85
1218.36
1143.18
1110.38
1135.27
1158.5
1157.37
1128.68
1068.17
1025.29
1010.15
1013.22
1017.45
1027.48
1042.79
1056.97
1067.44
1073.25
1073.41
1072.39
1186.12
1151.7
1107.84
1081.32
1115.64
1158.92
1165.56
1146.21
1064.14
959.711
964.693
977.003
991.191
1008.49
1030.52
1053.88
1076.12
1087.88
1087.35
1083.49
1161.85
1138.64
1129.39
1102.7
944.445
947.596
954.354
962.838
973.304
986.068
1002.41
1026.4
1058.62
1084.29
1095.28
1093.86
1154.65
1149.93
1153.86
1155.13
972.809
976.686
974.962
975.202
976.552
979.474
985.421
996.348
1016.41
1049.03
1078.23
1090.1
1147.18
1148.26
1153.68
1161.72
985.834
977.807
975.035
972.74
971.126
971.46
973.139
977.432
986.791
1006.18
1036.58
1069.79
1128.11
1124.14
1125.57
1142.69
965.898
937.41
939.144
940.09
942.272
945.532
949.252
954.319
961.686
973.823
994.202
1038.35
1100.89
1078.84
1064.95
1060.67
941.957
972.096
982.783
961.163
910.013
890.366
895.604
901.426
906.632
910.832
916.2
922.531
930.674
941.661
955.8
996.967
1080.04
1041.11
1019.02
956.104
947.246
975.186
974.709
931.682
888.828
892.497
882.944
883.169
884.458
887.199
892.105
899.103
906.21
915.555
926.842
963.144
1064.19
1017.22
1003.3
960.257
953.09
973.252
972.27
935.44
893.206
882.454
861.794
862.277
868.895
878.012
883.062
886.545
890.952
897.28
905.865
936.824
1055.51
1010.94
1007.35
971.532
960.583
973.536
970.182
937.047
898.974
881.722
862.475
862.559
867.375
875.403
878.219
881.26
884.412
888.295
892.936
917.454
1056.16
1016.38
1012.02
985.208
970.201
975.022
969.063
939.151
904.49
883.164
868.83
866.728
868.53
870.499
874.498
878.721
884.305
890.109
892.773
907.83
1057.51
1025.8
1023.2
1001.96
982.11
978.012
969.555
942.125
909.694
886.853
877.227
874.504
870.472
871.221
873.78
878.755
885.637
893.669
895.045
903.744
1059.62
1036.53
1040.48
1024.45
997.407
983.754
971.366
945.832
916.112
893.363
883.562
878.282
875.019
874.013
875.955
880.751
886.909
894.936
896.943
904.808
1063.1
1044.56
1056.4
1049.88
1020.45
994.256
975.74
951.374
923.064
901.691
888.871
882.191
879.81
879.943
881.709
885.006
888.249
894.192
897.826
907.978
1067.57
1052.31
1067.23
1072.93
1053.68
1013.99
985.259
959.627
931.545
909.355
894.307
886.541
886.233
887.816
889.202
889.591
891.016
895.321
899.886
912.308
1071.56
1057.86
1072.49
1086.02
1081.51
1046.55
1004.97
972.864
942.875
918.836
900.932
891.662
893.075
896.593
897.856
896.524
896.887
899.957
904.499
916.767
1072.87
1059.4
1072.36
1085.76
1093.37
1075.98
1035.19
994.2
957.465
930.218
909.769
897.287
896.758
898.45
899.663
900.217
901.848
905.582
910.019
920.733
1073.58
1059.45
1070.63
1081.94
1091.93
1088.17
1068.07
1038.1
998.632
966.511
941.254
922.914
913.933
908.283
908.565
911.155
915.208
919.334
922.562
929.317
1220.1
1221.42
1221.66
1183.32
1159.61
1156.42
1149.52
1130.46
1102.84
1082.51
1067.29
1057.61
1057.42
1058.63
1061.15
1064.93
1069.53
1073.83
1075.35
1075.87
1221.7
1223.17
1202.88
1145.72
1139.63
1153.38
1152
1127.08
1080.89
1043.62
1021.93
1015.16
1019.84
1028.11
1037.65
1045.63
1053.54
1059.54
1061.6
1061.77
1221.16
1212.16
1130.63
1104.4
1132.72
1157.39
1156.9
1128
1066.42
1021.9
1010.05
1014.94
1019.6
1028.94
1043.35
1057.86
1069.03
1074.67
1074.7
1073.27
1182.56
1144.72
1101.69
1077.41
1109.18
1156.73
1164.05
1144.59
1059.08
957.28
961.549
974.392
989.542
1007.33
1030.5
1055.38
1077.64
1090.02
1089.77
1085.38
1157.46
1135.8
1128.81
1106.59
932.795
944.964
950.789
958.371
968.407
981.371
998.089
1022.26
1055.03
1084.6
1097.96
1096.71
1152.79
1149.14
1153.5
1153.64
968.251
973.902
972.096
972.204
973.291
975.764
981.025
991.112
1009.16
1041.04
1076.61
1092.28
1146.11
1148.26
1153.32
1160.22
980.232
974.531
971.736
969.4
967.385
967.412
968.508
971.901
979.783
996.287
1025.72
1066.68
1127.26
1123.91
1125.25
1141.38
960.275
933.684
934.917
935.71
937.333
940.243
943.674
948.212
954.833
965.29
982.487
1028.85
1099.89
1078.53
1064.58
1057.73
938.061
967.851
978.468
956.663
916.561
890.821
893.163
897.719
903.277
907.418
912.44
918.364
925.512
935.093
946.887
985.798
1078.97
1040.48
1018.52
955.118
945.316
973.154
972.744
928.934
887.201
896.476
884.502
884.245
885.392
887.677
891.093
896.642
903.821
911.861
921.082
953.057
1063.64
1017.97
1004.3
958.857
950.784
971.319
970.338
932.572
889.311
887.197
866.818
866.68
870.813
877.008
881.423
885.734
890.817
896.482
902.75
928.661
1053.75
1010.55
1009.72
970.732
957.945
971.538
968.317
934.343
894.364
882.804
866.923
859.425
861.492
870.385
876.636
880.09
883.606
888.219
891.85
912.008
1052.95
1014.94
1014.04
985.25
967.389
972.835
966.792
936.272
900.669
883.345
870.392
861.885
863.758
868.145
873.54
879.582
884.247
889.73
892.723
905.389
1054.32
1023.02
1022.73
1002.16
979.54
975.428
966.972
939.225
906.297
885.617
875.977
871.307
868.694
870.037
874.215
880.333
886.122
894.156
895.713
903.053
1056.84
1033.11
1037.13
1023.9
995.046
980.527
968.213
942.716
912.438
890.309
881.534
877.099
874.253
874.507
877.702
883.179
888.582
896.564
898.635
905.043
1060.6
1041.44
1052.79
1048.37
1017.05
990.077
971.603
947.405
919.123
897.737
886.627
880.232
880.32
881.194
883.767
886.842
889.542
895.624
900.333
909.375
1065.22
1049.74
1065.09
1071.47
1048.69
1007.07
979.403
954.43
926.758
905.754
892.092
884.109
885.28
887.91
890.16
890.385
891.502
896.75
902.623
914.661
1069.47
1055.97
1071.61
1086.45
1079.86
1037.93
995.675
965.421
936.753
913.928
897.565
889.313
891.236
896.278
899.061
897.551
897.957
901.932
907.53
920.53
1070.87
1057.89
1071.65
1086.8
1095.31
1074.01
1024.66
983.035
948.87
923.189
903.998
893.49
894.564
898.034
901.161
902.503
904.153
908.252
913.458
925.33
1071.32
1057.88
1070.09
1082.87
1094.24
1090.02
1065.23
1029.2
987.795
955.686
931.156
914.686
908.695
906.015
907.692
911.62
916.31
921.937
926.581
934.464
1220.59
1222.17
1222.05
1180.52
1157.06
1155.31
1148.6
1129.48
1101.17
1080.61
1065.71
1055.7
1055.66
1057.43
1060.57
1064.57
1069.28
1073.81
1075.5
1075.92
1222.52
1224.77
1196.93
1141.98
1138.65
1153.04
1151.89
1126.79
1079.52
1040.73
1019.53
1013.76
1018.51
1027.13
1037.14
1045.36
1053.54
1059.91
1062.21
1062.32
1222.23
1206.59
1125.08
1101.21
1133.53
1157.48
1157.04
1128.25
1065.13
1017.56
1007.26
1013.74
1019.16
1028.61
1042.87
1057.64
1069.86
1075.73
1075.73
1074.02
1180.5
1141.09
1099.42
1075.26
1110.11
1156.52
1164.02
1144.72
1057.59
956.365
960.352
973.051
988.639
1006.52
1029.73
1055.27
1078.27
1091.99
1091.92
1087.25
1155.65
1134.7
1128.01
1104.87
940.622
945.338
951.103
958.47
968.156
980.611
996.807
1020.17
1052.87
1084.81
1100
1099
1151.94
1148.79
1153.64
1153.62
968.361
973.569
971.979
972.154
973.344
975.711
980.463
989.738
1006.07
1036.04
1074.73
1093.67
1145.74
1148.43
1153.75
1160.43
979.646
973.925
971.597
969.596
967.663
967.353
968.117
970.707
977.348
991.544
1018.75
1063.73
1126.81
1123.93
1125.61
1141.78
959.539
931.969
934.002
935.451
937.106
939.742
942.718
946.653
952.651
961.962
976.744
1022.26
1099.25
1077.93
1063.69
1056.64
939.998
968.789
979.363
956.832
916.042
892.094
892.665
896.258
902.153
907.082
912.367
917.936
924.101
932.523
942.771
978.831
1078.45
1040.03
1018.01
955.355
945.652
973.611
973.201
929.236
889.271
899.759
888.308
885.228
886.248
888.265
891.242
896.279
903.141
910.335
918.472
947.259
1063.18
1018.35
1005.63
958.994
950.63
971.447
970.656
932.849
890.118
890.976
875.943
870.018
870.669
875.713
882.133
886.423
891.135
896.384
901.344
923.811
1052.88
1010.46
1011.44
970.892
957.285
971.432
968.725
935.093
894.513
886.003
872.928
854.795
856.35
868.217
877.516
880.97
883.99
888.392
891.7
908.968
1051.36
1014.51
1015.9
985.575
966.237
972.276
966.992
937.039
901.022
886.368
873.102
858.01
859.195
866.211
873.234
880.429
884.679
890.489
893.332
904.324
1052.81
1022.04
1023.46
1002.65
978.143
974.334
966.709
939.671
907.008
888.02
877.108
870.553
867.068
868.849
873.866
881.188
887.251
895.881
896.976
903.039
1055.41
1031.39
1036.15
1024.4
993.776
978.84
967.435
942.531
913.105
891.724
882.966
878.326
873.751
873.893
877.589
884.73
890.659
898.23
900.003
905.104
1059.11
1039.58
1050.79
1048.3
1015.96
987.906
969.963
946.251
919.212
898.066
887.344
880.999
880.434
881.259
884.926
888.608
890.494
895.631
900.348
909.47
1063.67
1047.94
1063.4
1070.91
1047.03
1003.82
976.714
952.234
925.628
905.276
891.988
883.812
884.717
887.79
891.508
890.916
891.306
895.689
902.305
916.218
1067.87
1054.25
1070.19
1085.96
1078.41
1032.79
990.969
961.811
934.182
912.292
896.981
888.368
890.969
897.915
900.091
896.54
896.004
900.585
909.278
924.899
1069.27
1056.22
1070.32
1086.57
1095.17
1071.57
1018
977.049
944.614
920.311
902.006
892.064
894.167
898.456
901.578
901.256
902.626
909.301
917.479
930.49
1069.71
1056.31
1068.74
1082.76
1094.57
1089.9
1062.02
1022.78
981.015
949.577
925.668
910.419
905.859
904.066
906.132
910.469
917.066
925.853
931.507
938.986
1220.55
1222.12
1222.07
1180.26
1156.82
1155.24
1148.51
1129.44
1101.07
1080.45
1065.54
1055.55
1055.53
1057.41
1060.69
1064.9
1069.73
1074.28
1075.95
1076.37
1222.63
1224.77
1196.51
1141.7
1138.81
1153.13
1151.93
1126.78
1079.52
1040.65
1019.26
1013.31
1017.91
1026.48
1036.86
1045.53
1054
1060.45
1062.61
1062.74
1222.46
1205.83
1124.14
1100.35
1134.22
1157.53
1157.04
1128.23
1065.3
1017.59
1006.99
1013.63
1018.69
1027.52
1041.92
1057.46
1070.38
1076.45
1076.37
1074.46
1180.45
1140.36
1098.59
1073.08
1114.29
1155.97
1163.98
1145.03
1057.64
956.141
960.039
972.803
988.339
1005.94
1028.98
1054.89
1078.15
1092.24
1092.3
1087.71
1155.74
1134.23
1127.06
1099.83
939.58
944.814
950.416
957.695
967.356
979.735
995.879
1019.18
1051.98
1084.18
1099.95
1099.15
1152.02
1148.67
1153.56
1153.86
967.884
972.943
971.153
971.241
972.27
974.503
979.205
988.543
1004.93
1034.99
1074.36
1093.63
1145.8
1148.37
1153.77
1160.92
978.648
973.23
970.76
968.679
966.737
966.223
966.929
969.458
976.054
990.195
1017.5
1063.04
1126.65
1123.7
1125.5
1142.14
958.166
930.948
933.017
934.441
936.082
938.685
941.756
945.791
951.791
961.044
975.687
1021.33
1099.08
1077.79
1063.9
1058.82
943.347
967.84
978.717
956.737
928.746
891.414
891.246
894.711
900.872
906.314
911.6
917.184
923.454
931.895
942.075
978.014
1078.54
1040.1
1018.3
955.063
944.169
972.63
972.593
928.873
890.789
899.609
888.251
884.397
885.51
887.346
890.342
895.407
902.039
909.375
917.541
946.255
1063.29
1018.46
1006.42
958.899
949.772
971.096
970.394
932.424
890.48
891.659
877.385
869.711
870.503
875.221
880.917
884.829
889.494
894.751
899.741
922.622
1053.16
1010.99
1012.2
971.135
956.942
971.301
968.637
934.485
894.129
886.253
873.037
855.819
857.031
867.211
875.985
879.478
882.585
887.16
890.443
907.323
1051.86
1015.19
1016.69
986.148
966.521
972.521
966.993
936.456
900.533
886.453
873.651
858.443
859.28
865.396
872.486
879.616
883.793
889.58
892.115
902.721
1053.19
1022.74
1024.31
1003.52
978.971
974.906
966.984
939.213
906.563
888.155
877.536
869.713
866.398
868.251
873.574
880.904
886.862
895.595
896.192
901.987
1055.62
1031.88
1036.99
1025.82
994.913
979.643
967.824
942.354
912.799
891.926
883.049
878.324
873.842
874.229
878.064
885.008
890.859
898.22
899.694
904.284
1059.15
1039.86
1051.36
1050.06
1017.42
988.894
970.504
946.461
919.193
897.963
887.721
881.578
881.089
881.71
885.254
888.906
890.755
895.501
899.937
908.756
1063.57
1047.96
1063.75
1072.29
1048.68
1004.93
977.405
952.673
925.924
905.163
892.655
884.832
885.633
888.131
891.829
891.335
891.551
895.54
901.827
915.379
1067.66
1053.97
1069.97
1085.97
1079.54
1034.05
991.944
962.382
934.699
912.557
897.733
889.573
891.776
898.077
900.458
896.922
896.22
900.496
908.825
923.989
1068.99
1055.85
1069.97
1086.28
1095.53
1071.42
1018.18
977.414
945.116
920.748
902.815
893.115
894.99
899.341
902.428
901.824
902.951
909.217
917
929.634
1069.41
1055.96
1068.4
1082.42
1094.65
1090.02
1061.54
1022.11
980.825
949.81
926.06
911.2
907.137
905.629
907.424
911.323
917.47
925.776
931.183
938.595
1220.08
1221.37
1221.54
1182.39
1158.83
1156.38
1149.39
1130.38
1102.43
1082.16
1067.2
1057.69
1057.46
1058.78
1061.35
1065.2
1070
1074.72
1076.44
1076.89
1221.84
1223.37
1201.72
1144.96
1140.12
1153.85
1152.28
1127.24
1080.31
1042.27
1020.63
1014.12
1018.86
1027.18
1037.04
1045.35
1053.56
1060.13
1062.56
1062.77
1221.5
1211.27
1129.55
1103.07
1134.91
1157.8
1157.17
1128.35
1065.4
1019.34
1007.55
1012.94
1017.79
1027.09
1041.65
1056.9
1069.02
1075.27
1075.32
1073.94
1182.78
1143.73
1100.66
1074.03
1115.19
1155.83
1163.68
1144.72
1057.21
955.313
960.031
973.412
988.871
1006.69
1029.54
1054.47
1077.33
1090.68
1090.59
1086.23
1157.3
1134.62
1126.75
1099.92
937.98
943.71
949.784
957.534
967.64
980.393
996.868
1020.56
1053.38
1084.1
1098.37
1097.27
1152.4
1148.47
1153.21
1153.55
966.89
971.786
969.964
970.077
971.191
973.679
978.897
988.862
1006.65
1038.89
1075.88
1092.45
1145.9
1147.79
1153.26
1160.53
977.84
972.027
969.335
967.156
965.282
965.289
966.269
969.442
977.034
993.218
1022.9
1065.4
1126.7
1123.24
1124.86
1141.63
957.448
930.181
932.214
933.263
934.992
938.023
941.654
946.32
952.939
963.197
979.994
1026.76
1099.27
1077.28
1062.99
1056.08
936.626
966.934
977.778
956.403
916.723
888.039
889.84
894.352
900.52
905.352
910.678
916.737
923.827
933.255
944.843
983.615
1079.02
1040.01
1017.79
955.629
944.698
972.754
972.46
929.249
889.611
895.667
885.414
882.764
883.553
885.571
888.982
894.491
901.75
909.601
918.602
950.44
1063.67
1017.83
1005.54
959.777
950.454
970.752
969.991
932.394
890.453
887.136
868.935
866.074
869.664
875.459
880.871
884.765
888.618
893.366
899.578
925.788
1054.11
1011.33
1010.59
972.017
957.837
970.945
967.953
933.755
894.474
883.769
867.814
860.178
862.502
871.74
877.766
879.554
882.508
887.066
890.385
909.741
1053.86
1016.04
1014.98
986.827
967.578
972.263
966.334
935.481
900.602
884.548
871.731
863.091
865.25
869.495
874.478
880.117
884.183
889.322
892.061
903.715
1055.1
1024.45
1024.21
1004.39
980.172
974.948
966.462
938.413
906.126
886.978
877.476
872.916
869.872
870.72
875.234
881.448
886.91
895.065
895.786
901.607
1057.38
1034.19
1038.91
1027.13
996.275
980.331
967.635
941.955
912.259
891.292
883.089
879.317
875.398
875.613
879.03
884.937
890.173
897.113
898.441
903.747
1060.72
1042.03
1053.81
1051.9
1019.6
990.292
971.013
946.69
918.861
898.124
888.052
882.094
881.619
882.289
885.307
889.037
890.968
895.548
899.698
908.081
1064.89
1049.59
1065.37
1074.17
1051.92
1007.87
978.939
953.685
926.346
905.956
893.189
886.002
887.078
888.973
891.569
891.852
892.288
896.718
902.046
913.241
1068.8
1055.19
1070.94
1086.53
1081.91
1039.5
995.529
964.644
936.144
914.019
898.695
891.414
893.323
898.201
900.109
898.149
898.476
902.327
907.434
919.265
1070.09
1056.99
1070.92
1086.44
1095.52
1075.19
1024.73
982.302
948.235
923.196
905.038
895.478
896.752
900.133
902.677
903.532
904.942
908.808
913.424
924.377
1070.54
1057.03
1069.35
1082.25
1094.09
1090.07
1065
1028.43
987.135
955.384
931.619
916.059
910.615
908.19
909.765
913.386
917.631
922.58
926.704
934.242
1218.76
1219.34
1220.4
1185.71
1162.95
1158.53
1150.88
1131.91
1104.62
1084.27
1069
1060.09
1059.43
1060.07
1061.99
1065.5
1069.94
1074.31
1076.38
1077.62
1219.93
1220.53
1210.69
1151.83
1143.34
1155.29
1152.98
1128.34
1081.85
1044.76
1022.24
1015.35
1019.9
1028.24
1037.94
1045.75
1053.18
1059.21
1061.75
1062.56
1219.85
1218.6
1141.96
1110.31
1136.65
1159.18
1158.25
1129.53
1066.66
1022.29
1007.77
1011.5
1016.3
1026.99
1042.74
1057.11
1067.68
1073.62
1073.83
1072.89
1185.75
1150.21
1106.09
1077.53
1116.3
1157.46
1165.04
1146.01
1059.95
957.874
963.292
976.017
990.335
1007.9
1030.63
1054.57
1076.57
1088.31
1087.8
1083.93
1160.93
1136.86
1127.51
1100.43
937.187
946.376
953.461
962.002
972.368
984.94
1001.35
1025.78
1058.48
1084.85
1095.88
1094.34
1153.75
1148.77
1153.23
1153.71
966.902
974.447
972.927
973.232
974.673
977.636
983.554
994.447
1014.8
1048.34
1078.38
1090.48
1146.63
1147.5
1153.31
1160.75
978.197
974.992
972.502
970.426
968.82
969.044
970.511
974.572
983.855
1003.58
1034.83
1069.32
1127.43
1123.35
1124.93
1142.02
957.794
934.016
935.946
937.049
939.407
942.818
946.606
951.751
959.241
971.554
992.104
1037.18
1100.18
1077.53
1063.22
1059.44
942.447
969.839
980.223
958.209
913.17
888.797
892.943
898.971
904.386
908.769
914.3
920.708
928.88
939.935
954.113
995.679
1079.92
1040.47
1018.23
957.728
948.156
976.907
976.629
933.802
889.702
892.385
883.63
882.142
883.007
884.988
889.83
897.419
904.954
914.322
925.496
961.928
1063.89
1016.64
1004
962.257
954.579
974.713
973.983
936.868
894.288
883.808
863.315
862.57
867.767
876.5
882.022
885.76
890.052
896.041
904.517
935.789
1055.53
1011.15
1007.64
973.759
962.334
974.892
971.78
938.063
900.183
883.961
863.756
863.111
868.204
876.742
878.671
880.466
883.644
888.033
892.755
917.037
1056.38
1016.79
1012.59
987.401
972.034
976.2
970.264
940.084
905.944
885.418
870.143
868.686
870.582
872.294
875.221
879.412
884.665
890.359
892.957
907.584
1057.78
1026.49
1024.29
1004.46
984.044
979.036
970.563
943.174
910.92
888.578
879.186
877.305
872.443
872.538
874.915
880.014
886.889
894.439
895.244
903.097
1059.9
1037.04
1041.81
1027.81
999.609
984.765
972.13
946.904
916.943
894.453
885.627
880.945
876.775
875.669
877.887
882.933
888.55
895.622
897.057
904.181
1063.26
1044.95
1057.4
1053.42
1023.45
995.335
976.292
952.285
923.635
902.526
890.631
884.233
882.036
882.148
884.064
887.332
889.779
894.73
897.843
907.364
1067.53
1052.45
1067.99
1075.91
1056.78
1015.13
985.702
960.24
931.97
910.115
895.73
888.519
888.702
890.12
891.076
891.101
892.063
895.898
900.002
911.835
1071.38
1057.66
1072.44
1087.17
1084.2
1048
1005.41
973.136
943.18
919.4
902.072
893.827
895.603
898.679
899.343
897.512
897.749
900.772
905.07
916.681
1072.62
1059.18
1072.29
1086.59
1094.89
1077.8
1035.97
994.228
957.669
930.595
910.703
899.261
898.882
900.41
901.386
901.451
902.757
906.474
910.783
921.012
1073.16
1059.17
1070.57
1082.33
1093.03
1089.28
1069.03
1038.27
998.678
966.499
941.666
923.96
915.149
909.869
910.201
912.592
916.387
920.301
923.441
929.969
1218.4
1217.3
1219.52
1190.07
1169.19
1162.51
1153.95
1134.93
1108.09
1087.48
1071.69
1063.69
1062.97
1062.53
1064.11
1067.28
1071.58
1075.88
1078.01
1079.39
1217.74
1217.43
1217.23
1160.47
1148.98
1158.47
1155.2
1130.86
1085.17
1048.33
1023.9
1017.88
1022.78
1031.57
1040.71
1047.64
1054.43
1059.97
1062.31
1063.24
1218.62
1221.43
1158.55
1120.55
1140.6
1162.11
1160.66
1131.97
1069.89
1025.82
1008.12
1010.57
1016.64
1029.98
1047.08
1059.35
1068.3
1073.19
1073.48
1072.71
1189.39
1157.96
1115.42
1084.13
1118.28
1160.9
1167.36
1148.09
1066.19
962.274
967.681
979.143
992.824
1010.86
1034.21
1057.68
1079.27
1086.93
1086.06
1082.44
1166.66
1141.7
1130.77
1102.07
944.329
952.927
960.313
968.846
978.717
990.81
1007.71
1034.01
1065.61
1087.09
1094.1
1092.6
1157.28
1151.12
1154.9
1155.34
972.776
981.453
979.727
979.811
981.129
984.399
991.249
1003.93
1026.96
1059.15
1082.77
1089.61
1149.06
1148.56
1154.51
1162.02
985.101
982.956
980.214
977.512
975.66
976.006
978.007
983.421
995.106
1017.77
1048.04
1074.17
1129.55
1124.6
1125.88
1143.06
965.006
942.829
944.432
945.83
948.307
951.253
954.967
960.582
969.407
984.324
1008.05
1048.65
1102.44
1078.91
1064.14
1059.45
942.443
975.071
986.905
965.147
912.167
893.306
900.485
906.445
910.664
915.302
921.344
928.678
938.211
950.956
967.839
1009.99
1082.38
1042.38
1019.94
961.503
953.574
982.733
983.204
941.826
892.053
887.818
878.434
879.706
882.596
887.711
895.849
904.845
913.106
924.244
937.317
976.284
1065.66
1016.03
1003.29
966.942
961.313
980.482
980.567
944.63
900.427
877.624
857.251
859.829
869.322
878.832
884.6
890.172
895.777
903.419
914.086
949.38
1058.94
1013.35
1005.54
978.094
969.673
980.509
978.062
946.058
907.487
880.247
860.377
863.103
870.25
875.572
878.709
882.163
886.838
892.652
899.844
928.587
1060.02
1019.52
1012.01
991.188
979.099
981.713
976.485
948.287
912.43
884.668
870.017
869.711
868.795
869.281
871.633
876.902
884.867
891.715
895.427
914.95
1061.08
1030.48
1026.99
1008.1
990.264
984.779
976.891
951.09
917.419
891.14
880.345
876.129
869.674
867.895
870.594
877.231
885.187
892.672
894.485
905.865
1062.95
1041.19
1046.84
1031.83
1005.6
991.222
978.924
954.831
923.585
900.055
887.679
880.64
873.318
871.262
873.277
878.774
885.076
892.096
894.345
905.719
1066.28
1048.6
1061.54
1057.26
1030.29
1003.05
984.136
960.627
931
909.103
894.323
885.085
879.645
879.571
880.265
882.43
885.652
890.749
894.769
907.459
1070.6
1055.62
1070.64
1079.08
1062.8
1024.7
995.312
969.533
940.395
917.273
900.463
890.705
888.405
888.523
888.034
887.069
888.137
891.978
896.702
910.077
1074.35
1060.22
1073.41
1086.9
1086.36
1056.38
1017
984.284
952.884
928.149
908.327
897.705
895.848
896.298
895.485
893.161
893.614
896.766
900.376
912.852
1075.5
1061.33
1073.11
1085.95
1093.7
1081.11
1046.59
1007.58
969.455
940.924
918.921
905.353
900.535
898.788
897.615
897.692
899.179
901.687
905.397
916.402
1075.97
1061.21
1071.24
1081.72
1091.87
1088.76
1072.95
1047.51
1010.52
978.541
953.165
933.589
920.861
911.286
909.842
911.374
913.771
916.064
918.644
925.331
1222.66
1221.68
1225.3
1198.09
1177.98
1169.73
1160.6
1141.02
1114.7
1094.13
1078.24
1070.99
1070.31
1069.52
1071.28
1074.75
1079.1
1083.03
1084.73
1086.02
1221.65
1221.69
1225.63
1170.53
1156.71
1164.56
1160.13
1135.93
1091.11
1054.51
1029.97
1025.56
1030.58
1039.35
1048.44
1055.52
1062.09
1066.82
1068.44
1069.12
1223.77
1227.74
1175.56
1131.9
1146.19
1166.12
1164.9
1136.31
1075.21
1031.9
1014.66
1017.51
1024.49
1038.88
1056.27
1067.69
1075.77
1079.02
1079.01
1077.8
1196.99
1167.59
1126.89
1092.67
1121.42
1164.95
1170.84
1151.31
1070.02
968.856
975.449
987.881
1002.3
1021.05
1044.54
1067.88
1088.19
1092.35
1091.14
1087.14
1175.42
1149.29
1136.11
1105.99
947.997
960.659
969.806
979.624
990.244
1002.86
1020.53
1048.11
1077.97
1096.46
1099.37
1097.25
1164.56
1157.4
1158.46
1158.72
979.545
990.035
989.697
990.408
992.717
996.998
1004.98
1019.26
1043.95
1074.54
1093.7
1095.46
1155.35
1153.58
1158.46
1165.26
993.406
992.324
990.63
988.138
987.834
988.632
991.35
998.045
1011.88
1035.99
1065.28
1085.32
1135.36
1129.18
1129.37
1145.63
974.024
952.774
955.802
958.02
961.034
964.224
968.483
974.826
984.889
1001.75
1027.38
1064.2
1108.82
1083.53
1066.98
1059.56
946.682
980.247
992.566
971.1
895.136
894.344
906.709
915.334
921.581
928.058
935.098
943.039
953.098
966.696
985.706
1027.91
1089.31
1047.77
1024.14
967.024
960.385
989.25
990.292
949.835
891.519
871.983
875.345
882.529
889.796
898.913
909.683
919.09
927.701
939.472
953.938
994.509
1072.45
1021.19
1009.19
973.851
969.877
988.482
988.809
954.409
905.415
874.057
860.433
864.715
875.837
888.321
896.911
902.932
908.941
917.317
929.378
967.096
1066.87
1021.51
1012.01
986.176
979.343
989.105
986.852
956.814
915.702
882.488
864.567
867.867
875.777
882.904
887.369
891.305
896.723
904.686
914.002
945.276
1067.94
1028.14
1019.87
1000.34
989.269
991.257
986.946
959.987
922.85
891.346
875.743
875.556
874.749
874.565
877.402
883.992
893.513
902.504
907.377
928.65
1068.48
1038.99
1036.32
1018.32
1000.8
995.303
987.981
963.467
929.496
901.202
889.246
883.813
875.162
873.351
876.474
884.339
894.237
901.39