/*--------------------------------*- C++ -*----------------------------------*\
  =========                 |
  \\      /  F ield         | OpenFOAM: The Open Source CFD Toolbox
   \\    /   O peration     | Website:  https://openfoam.org
    \\  /    A nd           | Version:  9
     \\/     M anipulation  |
\*---------------------------------------------------------------------------*/
FoamFile
{
    format      ascii;
    class       volVectorField;
    location    "0.0055";
    object      U;
}
// * * * * * * * * * * * * * * * * * * * * * * * * * * * * * * * * * * * * * //

dimensions      [0 1 -1 0 0 0 0];

internalField   nonuniform List<vector> 
9720
(
(-784.727 -786.617 -35.052)
(-605.404 -823.564 -29.3038)
(-498.602 -866.19 -40.51)
(-464.028 -995.63 -58.4228)
(-318.376 -1142.17 -68.7743)
(-86.187 -1181.59 -62.6912)
(158.759 -1177.59 -68.1486)
(438.137 -1183.11 -58.8752)
(747.926 -1162.13 -71.4022)
(994.032 -1049.9 -61.5847)
(1174.3 -903.18 -55.7152)
(1306.2 -770.865 -64.0814)
(1383.02 -652.493 -73.1008)
(1442.64 -562.648 -60.3998)
(1491.25 -486.308 -57.9764)
(1540.81 -436.929 -63.5452)
(1585.82 -387.352 -67.6806)
(1646.22 -354.832 -66.3159)
(1701.99 -320.674 -66.6661)
(1813.81 -288.966 -76.3917)
(-819.966 -604.945 -26.3507)
(-649.983 -650.233 -19.9377)
(-563.439 -703.352 -30.3989)
(-671.133 -874.333 -55.9536)
(-437.979 -1149.65 -71.1342)
(-127.77 -1172.62 -59.8112)
(144.149 -1150.76 -62.2546)
(489.938 -1165.69 -56.1024)
(912.955 -1102.42 -57.5078)
(1229.7 -902.691 -47.1345)
(1405.56 -690.097 -46.4339)
(1502.03 -541.125 -56.1453)
(1548.87 -423.234 -68.4495)
(1540.32 -339.113 -53.9102)
(1559.48 -297.518 -52.0395)
(1591.85 -279.387 -56.8126)
(1629.07 -261.017 -61.3103)
(1680.54 -248.075 -62.683)
(1732.31 -228.339 -61.1624)
(1837.15 -207.042 -69.168)
(-864.001 -498.233 -31.4632)
(-703.448 -559.363 -22.0545)
(-733.585 -726.951 -33.6385)
(-853.076 -916.18 -59.5688)
(-491.694 -1160.66 -62.8138)
(-130.763 -1144.27 -53.4544)
(150.32 -1133.8 -51.8201)
(530.481 -1140.45 -53.2575)
(1027.23 -992.584 -49.6128)
(1327 -685.175 -32.7638)
(1461.79 -502.258 -49.0812)
(1542.42 -405.274 -64.2987)
(1620.99 -324.462 -69.2767)
(1632.28 -251.783 -59.9034)
(1603.15 -206.165 -56.6643)
(1610.01 -177.88 -58.9971)
(1633.21 -176.766 -57.4018)
(1674.39 -174.122 -57.4858)
(1721.79 -161.075 -50.529)
(1829.25 -141.825 -50.5052)
(-990.63 -451.722 -40.7026)
(-878.324 -660.872 -35.288)
(-928.401 -844.794 -36.9911)
(-983.424 -949.96 -56.2445)
(-692.545 -1082.21 -68.7679)
(-237.749 -1121.93 -58.5131)
(78.5548 -1103.97 -61.3548)
(413.302 -1097.09 -56.1487)
(1018.01 -1000.2 -68.7938)
(1741.09 -621.278 -91.0584)
(1864.43 -550.881 -74.6554)
(1899.38 -484.371 -73.8992)
(1901.96 -418.082 -86.66)
(1891.15 -326.49 -89.1737)
(1832.86 -237.126 -77.0618)
(1740.22 -155.325 -72.4433)
(1694.66 -76.3691 -77.0877)
(1703.44 -75.6043 -80.1019)
(1732.22 -76.9844 -86.0121)
(1823.22 -65.5938 -90.6297)
(-1134.79 -310.893 -65.2263)
(-1146.59 -435.242 -64.2158)
(-1164.48 -487.886 -54.424)
(-1093.52 -677.012 -59.8147)
(1837.98 -610.276 -100.281)
(2238.28 -449.957 -89.7889)
(2229.85 -421.454 -97.3034)
(2217.65 -383.742 -97.8606)
(2197.36 -339.424 -105.295)
(2162.89 -293.451 -107.94)
(2118.22 -216.047 -104.033)
(2021.45 -130.904 -114.016)
(1889.82 -65.6592 -109.639)
(1810.03 -1.2987 -90.937)
(1805.16 42.8541 -87.7394)
(1847.98 55.5759 -91.0349)
(-1179.29 -81.8357 -64.5141)
(-1173.6 -126.582 -62.653)
(-1142.6 -131.242 -55.1201)
(-1120.05 -236.862 -61.3078)
(2269.25 -254.347 -114.506)
(2317.44 -146.537 -98.3457)
(2319.99 -142.153 -105.148)
(2321.08 -132.977 -109.294)
(2322.25 -119.242 -113.662)
(2313.12 -105.37 -115.724)
(2298.18 -79.7062 -112.25)
(2262.32 -31.6982 -116.996)
(2172.32 42.5782 -120.352)
(2035.99 90.4102 -94.8448)
(1946.82 136.433 -89.5831)
(1951.34 147.928 -93.4977)
(-1174.21 162.031 -72.9453)
(-1153.83 146.774 -67.9776)
(-1139.57 150.984 -55.2536)
(-1103.56 80.9572 -64.8718)
(2309.36 25.0374 -113.565)
(2374.62 129.63 -99.4491)
(2381.2 122.353 -104.154)
(2391.35 117.511 -107.01)
(2397.24 121.854 -111.503)
(2396.39 130.259 -115.55)
(2388.44 141.335 -114.474)
(2372.68 162.873 -112.009)
(2334.23 200.591 -121.051)
(2249.7 246.542 -112.725)
(2112.19 320.09 -89.0145)
(2019.01 331.384 -94.7878)
(-1182.51 441.256 -63.4871)
(-1169.9 494.863 -61.9366)
(-1146.12 537.961 -58.2797)
(-1097.09 417.148 -63.24)
(2365.81 360.291 -112.318)
(2427.39 560.881 -90.6308)
(2439.43 539.348 -102.489)
(2460.92 517.447 -118.195)
(2470.72 491.259 -115.592)
(2468.54 465.408 -104.222)
(2475.57 440.487 -105.245)
(2466.13 418.38 -107.672)
(2445.1 416.158 -111.721)
(2405.24 426.598 -112.595)
(2326.5 473.245 -94.8544)
(2195.65 474.617 -83.9061)
(-1158.95 751.734 -79.0705)
(-1099.69 920.521 -69.896)
(-985.436 1037.27 -66.0421)
(-989.217 1049.07 -96.6908)
(-643.447 1889.18 -121.814)
(-256.068 2224.46 -115.591)
(30.0018 2262.13 -112.663)
(371.067 2319.66 -107.25)
(1756.52 1962.35 -166.226)
(2296.22 1270.07 -125.128)
(2317.24 1087.97 -139.26)
(2354.64 981.685 -99.9196)
(2394.72 905.497 -93.9471)
(2446 850.195 -112.978)
(2459.21 787.354 -122.108)
(2486.87 742.823 -124.817)
(2496.92 698.171 -116.95)
(2469.92 670.156 -110.55)
(2433.2 687.199 -99.9507)
(2319.94 690.743 -89.5719)
(-1045.03 996.795 -73.7009)
(-896.456 1232.99 -68.2997)
(-678.847 1328.86 -57.9577)
(-627.488 1745.39 -108.507)
(-467.66 2196.77 -99.5551)
(-144.878 2265.63 -99.3977)
(136.783 2323.95 -98.4203)
(567.892 2373.27 -85.0823)
(1197.34 2296.68 -115.26)
(1744.16 1817.14 -149.014)
(2155.53 1545.52 -54.0798)
(2177.22 1359.56 -63.3815)
(2236.41 1249.88 -104.471)
(2316.81 1173.23 -129.279)
(2383.26 1102.64 -142.209)
(2409.95 1025.55 -118.633)
(2467.56 979.966 -113.605)
(2493.55 915.752 -110.05)
(2478.15 893.57 -107.497)
(2410.77 880.143 -96.5706)
(-898.675 1175.76 -68.7781)
(-690.237 1406.7 -67.0737)
(-502.063 1461.94 -73.6009)
(-554.828 1853.09 -90.8688)
(-434.739 2190.49 -103.695)
(-139.417 2270 -105.665)
(127.633 2332.54 -103.092)
(539.797 2385.67 -92.5819)
(1045.62 2295.23 -126.813)
(1465.58 2128.78 -80.0802)
(1874.33 1911.93 -39.9173)
(2119.31 1696.64 -111.158)
(2174.87 1559.74 -127.277)
(2194.84 1456.06 -142.581)
(2239.56 1361.36 -145.41)
(2298.84 1281.71 -108.946)
(2358.85 1208.34 -87.389)
(2424.77 1146.76 -109.849)
(2462.98 1085.25 -108.865)
(2428.08 1055.4 -93.4395)
(-768.571 1307.9 -80.1959)
(-545.131 1504.75 -80.1014)
(-411.708 1541.91 -87.4465)
(-488.366 1884.48 -90.9221)
(-391.95 2181.6 -104.412)
(-129.917 2271.75 -108.917)
(121.66 2343.5 -104.941)
(513.541 2408.12 -107.717)
(968.419 2340.38 -85.6497)
(1294.26 2140.09 -90.2233)
(1607.33 2088.03 -129.191)
(1939.95 1979.75 -147.157)
(2063.98 1807.08 -139.713)
(2072.55 1636.58 -111.78)
(2131.14 1555.64 -88.4286)
(2217.34 1510.78 -69.8897)
(2303.82 1452.92 -69.1085)
(2351.4 1369.87 -97.9423)
(2416.47 1299.2 -122.657)
(2420.21 1226.53 -101.271)
(-650.777 1383.47 -88.9633)
(-427.522 1549.86 -89.5975)
(-335.055 1622.48 -89.5378)
(-422.207 1887.91 -100.988)
(-346.636 2162.02 -111.517)
(-116.74 2272.62 -113.351)
(123.567 2352.53 -110.728)
(484.716 2418.86 -107.142)
(894.106 2375.46 -73.2491)
(1216.66 2218.99 -97.6798)
(1479.18 2111.42 -142.116)
(1735.47 2030.3 -159.383)
(1861.58 1870.29 -131.683)
(1967.85 1759.81 -68.1187)
(2054.65 1693.57 -30.098)
(2127.3 1662.96 -51.1374)
(2204.01 1615.1 -78.5885)
(2237.87 1521.17 -100.549)
(2304 1468.54 -119.61)
(2375.34 1387.03 -96.3909)
(-560.793 1441.82 -75.7263)
(-340.924 1536.29 -72.5856)
(-262.405 1636 -77.5233)
(-335.792 1879.01 -102.19)
(-298.514 2131.53 -111.529)
(-101.047 2265.05 -115.429)
(130.837 2353.88 -116.12)
(458.293 2416.24 -101.374)
(834.528 2419.04 -91.8058)
(1151.81 2301.38 -106.785)
(1404.21 2159.38 -141.018)
(1571.89 2027.94 -119.528)
(1714.74 1950.62 -78.1984)
(1889.67 1911.73 -29.5029)
(2001.2 1841.05 -52.3593)
(2053.14 1758.8 -115.061)
(2095.35 1707.21 -130.081)
(2132.5 1637.84 -108.083)
(2212.65 1617.34 -86.3057)
(2330.01 1538.66 -73.3394)
(-484.171 1489.55 -72.3988)
(-299.411 1554.18 -69.1961)
(-216.669 1602.36 -73.6913)
(-247.948 1825.91 -87.5513)
(-221.454 2091.04 -108.216)
(-74.8379 2251.86 -112.463)
(140.448 2347.67 -115.414)
(434.087 2423.68 -105.797)
(770.156 2424.92 -104.488)
(1084.6 2367.19 -116.688)
(1327.34 2215.12 -127.675)
(1521.94 2094.15 -81.0501)
(1654.43 2023.12 -39.6041)
(1803.52 1992.66 -56.2073)
(1900.35 1913.51 -132.176)
(1953.02 1818.91 -150.821)
(2003.64 1765.44 -108.701)
(2070.05 1716.43 -42.2118)
(2155.21 1736.7 -20.4408)
(2279.14 1675.1 -47.0715)
(-435.14 1538.29 -78.1907)
(-281.529 1586.76 -74.0164)
(-184.797 1605.67 -76.8803)
(-169.713 1735.36 -77.8876)
(-141.051 1999.33 -112.54)
(-27.6241 2218.54 -116.999)
(160.527 2333.55 -113.463)
(412.762 2414.56 -107.74)
(724.509 2449.06 -111.722)
(1006.55 2390.81 -94.8964)
(1256.76 2280.47 -81.4634)
(1486.7 2191 -52.3448)
(1634.98 2101.52 -51.4036)
(1727.17 2035.34 -115.594)
(1799.27 1955.43 -149.582)
(1853.93 1866.23 -119.406)
(1922.9 1828.57 -83.4762)
(2010.8 1787.61 -23.0645)
(2089.41 1806.45 -23.8689)
(2212.16 1761.17 -60.286)
(-386.18 1583.11 -82.2936)
(-263.467 1624.53 -78.4176)
(-181.921 1628.17 -75.156)
(-89.1222 1688.18 -85.3175)
(-77.7729 1871.24 -102.392)
(38.7081 2132.5 -115.675)
(195.052 2295.61 -121.647)
(410.857 2394.2 -110.741)
(680.678 2456.45 -109.682)
(958.443 2443.91 -90.4196)
(1185.16 2339.87 -60.2888)
(1429.11 2282.21 -50.8415)
(1590.3 2184.79 -71.3569)
(1688.38 2081.58 -125.895)
(1753.07 1998.93 -107.778)
(1815.3 1927.63 -82.334)
(1895.23 1903.32 -66.0553)
(1974.76 1863.73 -13.9864)
(2026.33 1845.03 -29.4592)
(2142.98 1811.07 -61.4689)
(-353.767 1643.26 -80.6076)
(-250.29 1676.58 -79.1343)
(-179.464 1669.95 -74.0094)
(-86.0047 1696.72 -88.628)
(-12.0063 1792.99 -86.5052)
(83.5508 2002.26 -89.569)
(236.641 2213.62 -107.883)
(421.481 2356.49 -108.046)
(655.522 2430.19 -104.645)
(895.449 2465.24 -90.9059)
(1125.5 2403.05 -86.5803)
(1346.51 2334.63 -81.7137)
(1499.54 2224.92 -89.1022)
(1622.5 2119.04 -101.163)
(1712.29 2060.51 -40.3576)
(1783.11 2008.6 -24.3232)
(1857.99 1977.17 -17.6971)
(1921.99 1926.46 -2.26933)
(1962.55 1880.58 -43.8597)
(2072.97 1857.07 -60.2647)
(-320.081 1698.52 -80.9046)
(-230.481 1728.16 -77.4904)
(-166.196 1717.76 -66.5805)
(-85.2349 1725.34 -94.6571)
(32.1594 1790.22 -89.1599)
(127.699 1925.17 -90.6774)
(308.563 2079.21 -85.3461)
(465.858 2279.58 -88.0639)
(672.693 2393.25 -93.4187)
(875.462 2447.8 -93.4256)
(1066.74 2440.49 -92.0617)
(1280.11 2400.07 -99.3809)
(1449.2 2290.35 -97.3582)
(1600.61 2198.97 -67.3025)
(1731.84 2149.68 -12.5288)
(1806.87 2089.62 -23.296)
(1853.15 2031.74 -32.7763)
(1886.95 1970.4 -48.3481)
(1915.07 1914.04 -45.06)
(2012.21 1899.78 -28.8867)
(-288.773 1809.74 -89.3846)
(-209.199 1832.9 -84.2391)
(-146.818 1825.76 -65.5841)
(-72.4038 1816.85 -99.4709)
(46.318 1836.61 -95.1585)
(138.465 1933.91 -96.1868)
(319.601 1999.33 -96.1576)
(464.208 2164.23 -81.555)
(674.102 2287.84 -85.8045)
(859.801 2382.33 -86.4165)
(1034.73 2407.01 -79.5904)
(1205.97 2404.85 -81.3249)
(1366.54 2360.03 -76.19)
(1520.44 2316.1 -53.9534)
(1663.46 2272.5 -36.2579)
(1757.4 2212.12 -54.464)
(1816.08 2147.18 -59.0968)
(1864.58 2081.24 -60.3383)
(1906.98 2012.8 -26.902)
(2009.63 1998.54 -8.50925)
(-785.829 -789.285 -4.75393)
(-604.689 -827.491 3.60791)
(-502.437 -871.235 6.49679)
(-479.206 -1013.69 2.11441)
(-328.485 -1169.14 -17.8129)
(-90.2227 -1201.64 -20.1435)
(156.21 -1196.59 -27.1151)
(438.899 -1201.38 -19.173)
(751.591 -1179.04 -29.7472)
(999.133 -1064.77 -20.1267)
(1181.79 -917.166 -12.3663)
(1311.65 -781.325 -17.0971)
(1387.73 -661.292 -23.5237)
(1448.12 -571.158 -11.8743)
(1496.78 -493.518 -9.63361)
(1545.3 -442.323 -13.9498)
(1588.24 -391.685 -19.4824)
(1647.1 -358.624 -20.4846)
(1702.65 -324.915 -23.9392)
(1814.8 -294.028 -34.7337)
(-821.374 -606.613 4.56133)
(-650.821 -656.214 21.1023)
(-571.619 -716.325 31.1365)
(-694.671 -906.665 3.65195)
(-440.947 -1189.06 -27.5095)
(-125.797 -1197.16 -23.5436)
(143.612 -1176.76 -26.426)
(492.512 -1190.79 -22.0265)
(916.792 -1122.67 -19.6764)
(1236.54 -921.056 -11.0662)
(1418.81 -705.143 -9.21303)
(1510.92 -553.179 -13.1483)
(1560.49 -434.619 -22.6575)
(1551.42 -345.974 -4.12784)
(1566.88 -300.932 -1.2304)
(1597.61 -280.562 -6.2557)
(1632.3 -262.024 -13.4174)
(1681.34 -249.509 -17.7338)
(1732.55 -230.65 -20.9026)
(1837.47 -211.114 -31.0309)
(-864.284 -503.645 12.0514)
(-707.344 -572.389 29.2028)
(-778.98 -783.502 53.7625)
(-873.62 -973.916 -9.64444)
(-489.566 -1194.45 -28.788)
(-128.227 -1178.22 -29.4522)
(156.368 -1161.18 -23.8755)
(533.882 -1172.99 -25.7837)
(1034.33 -1020.04 -9.30181)
(1338.13 -703.793 4.62592)
(1481 -515.112 -8.915)
(1553.86 -410.525 -22.441)
(1629.27 -331.245 -31.516)
(1650.54 -255.434 -13.5014)
(1618.59 -210.512 -0.908815)
(1618.3 -176.766 -4.99817)
(1637.14 -174.202 -7.31868)
(1675.07 -174.396 -10.8149)
(1721.58 -162.324 -9.17856)
(1828.01 -145.448 -13.8658)
(-1003.37 -464.937 15.5716)
(-898.264 -687.871 16.9366)
(-970.416 -879.107 -1.10148)
(-999.163 -1009.38 -19.8419)
(-664.781 -1132.93 -34.7782)
(-237.721 -1162.94 -30.3026)
(77.2664 -1145.09 -35.2758)
(412.98 -1136.59 -26.7376)
(1019.94 -1044.07 -12.3185)
(1784.5 -641.728 -30.0983)
(1908.24 -566.821 -14.055)
(1935.28 -492.784 -13.0897)
(1933.44 -421.039 -28.4742)
(1920.29 -330.344 -37.2717)
(1866.99 -238.928 -22.3146)
(1772.36 -161.181 -5.0667)
(1707.66 -78.0011 -21.6374)
(1711.23 -70.3196 -34.0541)
(1735.31 -75.3135 -46.1761)
(1823.24 -67.7217 -57.0606)
(-1157.98 -320.656 -15.171)
(-1180.47 -445.461 -24.8209)
(-1195.45 -500.433 -30.6271)
(-1142.82 -703.991 -28.2475)
(1893.58 -616.574 -36.0742)
(2297.43 -459.565 -55.9384)
(2285.86 -429.87 -55.1281)
(2269.83 -390.461 -48.1724)
(2244.39 -346.652 -50.0405)
(2205.64 -301.432 -50.2006)
(2162.36 -224.997 -47.4011)
(2070.41 -136.782 -51.4369)
(1935.72 -71.4505 -35.1757)
(1832.99 -4.07403 -22.051)
(1817.58 42.8323 -42.0316)
(1856.3 56.5045 -53.4403)
(-1198.69 -86.6195 -21.9478)
(-1197.28 -126.635 -26.8838)
(-1174 -131.029 -31.4856)
(-1154.49 -239.207 -30.4366)
(2356.03 -258.601 -73.3663)
(2378.14 -147.522 -58.0126)
(2375.98 -143.5 -55.5762)
(2374.96 -135.46 -53.8713)
(2374.16 -122.715 -53.974)
(2364.39 -108.719 -51.5661)
(2347.52 -84.4058 -43.1023)
(2313.15 -39.4555 -46.3539)
(2229.59 33.1768 -45.2197)
(2088.42 97.4378 1.6511)
(1971.16 143.968 -17.0585)
(1972.96 151.894 -44.2002)
(-1194 157.689 -32.9091)
(-1178.36 144.326 -34.2486)
(-1164.3 154.542 -28.9663)
(-1143.74 78.8527 -39.6607)
(2398.28 21.5478 -70.9368)
(2439.67 129.093 -56.8122)
(2442.63 121.481 -54.5617)
(2449.7 117.272 -52.616)
(2452.73 120.938 -51.8287)
(2451.99 127.892 -52.4017)
(2444.56 137.322 -49.4992)
(2429.97 156.501 -41.7677)
(2396.4 192.714 -47.1731)
(2319.13 235.63 -31.0318)
(2178.59 311.992 15.922)
(2063.03 339.172 -20.3784)
(-1200.75 440.747 -25.633)
(-1195.48 494.291 -32.3084)
(-1175.19 536.782 -34.5748)
(-1138.26 413.269 -32.4998)
(2450.7 357.66 -71.7814)
(2494.84 561.4 -47.9295)
(2505.1 536.973 -51.2062)
(2522.56 515.05 -61.675)
(2531.97 490.689 -55.0237)
(2525.82 466.058 -40.1053)
(2530.13 441.95 -39.1881)
(2523.3 418.568 -36.9174)
(2504.14 413.374 -35.027)
(2467.81 422.101 -32.3625)
(2398.32 462.916 3.45518)
(2254.24 477.423 8.35893)
(-1177.7 753.874 -39.5444)
(-1123.99 920.823 -38.6485)
(-1013.39 1037.95 -34.3351)
(-1028.34 1038.04 -27.2776)
(-663.407 1962.01 -38.7649)
(-262.636 2310.72 -76.1927)
(26.2986 2355.44 -74.8122)
(370.361 2421.44 -68.7588)
(1772.26 2009.16 -68.7109)
(2353.09 1283.47 -74.3288)
(2401.12 1096.82 -100.527)
(2428.98 990.457 -43.5074)
(2460.03 909.999 -26.7031)
(2506.79 854.119 -43.5411)
(2521.23 793.216 -54.4105)
(2541.64 747.267 -56.2903)
(2555.2 702.572 -44.0724)
(2530.65 668.935 -33.1513)
(2498.1 679.163 -10.4866)
(2383.73 688.958 6.59597)
(-1063.18 1001.71 -31.954)
(-920.485 1239.28 -34.2036)
(-700.022 1337.69 -26.3772)
(-638.015 1785.17 -57.3177)
(-479.415 2272.74 -65.7401)
(-146.511 2349.41 -62.1907)
(135.674 2415.06 -59.2194)
(571.385 2471.46 -51.0618)
(1211.13 2404.23 -56.7122)
(1773.57 1861.16 -103.292)
(2181.12 1567.62 13.0785)
(2238.69 1380.11 -0.205395)
(2299.68 1257.76 -62.9382)
(2383.9 1180.95 -81.82)
(2447.4 1113.98 -71.256)
(2468.37 1035.38 -38.7538)
(2516.04 985.003 -33.8834)
(2546.1 922.999 -39.3369)
(2540.05 890.161 -24.0539)
(2474.76 878.522 -3.95656)
(-915.621 1183.43 -23.9971)
(-710.314 1419.69 -27.1213)
(-520.12 1482.22 -27.9389)
(-571.497 1903.84 -33.6138)
(-447.1 2262 -60.3211)
(-141.761 2344.37 -61.3919)
(125.154 2415.58 -59.5099)
(540.348 2475.28 -50.1901)
(1057.52 2395.72 -84.2757)
(1496.61 2210.18 -18.4908)
(1879.53 1928.43 35.2622)
(2142.58 1698.26 -92.9119)
(2241.68 1571.35 -103.916)
(2275.5 1479.94 -59.5153)
(2305.83 1378.59 -41.2913)
(2344.9 1284.12 -23.8394)
(2401.48 1213.94 -14.4575)
(2467.33 1151.98 -50.1179)
(2520.97 1091.04 -34.1497)
(2488.13 1057.8 -2.41952)
(-781.436 1314.95 -29.7449)
(-562.641 1518.59 -29.0642)
(-423.865 1559.77 -35.8937)
(-501.426 1932.09 -24.6406)
(-404.602 2247.74 -51.5659)
(-133.785 2341.45 -60.0236)
(119.629 2420.93 -56.8184)
(513.538 2489.31 -60.3133)
(978.415 2424.41 -34.8659)
(1325.29 2219.15 -18.1543)
(1619.66 2140.03 -93.207)
(1967.28 2018.08 -143.397)
(2137.95 1853.8 -48.5613)
(2138.08 1673.6 20.7861)
(2164.77 1559.78 3.42002)
(2241.45 1505.21 -17.2226)
(2341.84 1458.13 -15.8609)
(2403.73 1384.29 -25.6813)
(2474.53 1315.8 -33.0554)
(2473.43 1231.71 -5.34782)
(-660.652 1387.88 -35.7029)
(-440.861 1562.68 -34.8036)
(-346.404 1638.26 -37.6043)
(-433.298 1930.27 -31.1132)
(-359.276 2222.95 -50.6805)
(-121.382 2339.02 -59.065)
(121.889 2423.52 -54.9005)
(486.639 2497.21 -54.1893)
(902.158 2450.4 -10.3482)
(1227.15 2285.82 -41.5808)
(1505.52 2189.5 -91.1446)
(1784.25 2117.24 -56.3916)
(1931.77 1941.16 5.05859)
(2004.25 1780.06 17.663)
(2089.26 1704.42 24.7063)
(2169.67 1671.46 8.0599)
(2256.91 1634.91 11.1369)
(2291.68 1546.17 14.0078)
(2348.99 1478.45 -19.8037)
(2416.29 1386.7 -8.01998)
(-569.103 1445.85 -24.0843)
(-346.731 1543.83 -17.1438)
(-269.136 1654.9 -17.7563)
(-349.108 1915.43 -33.2365)
(-313.931 2185.29 -46.4008)
(-107.802 2328.84 -54.8229)
(127.401 2422.84 -54.1758)
(461.173 2488.73 -41.0571)
(841.854 2492.91 -21.9006)
(1159.75 2367.33 -47.4983)
(1433.39 2232.55 -46.1262)
(1607.17 2086.81 12.5244)
(1740.74 1985.86 10.2332)
(1904.4 1923.67 17.8572)
(2055.5 1874.48 15.4487)
(2116.67 1805.06 -23.3241)
(2148.41 1740.96 -7.21632)
(2174.07 1644.94 6.26848)
(2236.74 1613.59 -14.7807)
(2357.72 1539.14 -7.5432)
(-490.779 1493.58 -21.0223)
(-302.081 1559.21 -14.0507)
(-221.951 1616.89 -7.83669)
(-257.144 1861.45 -14.5291)
(-238.229 2143 -39.6761)
(-84.1739 2312.84 -45.3606)
(135.473 2415.77 -49.5191)
(436.317 2492.07 -40.3916)
(777.919 2499.47 -34.617)
(1095.53 2432.79 -43.4944)
(1343.69 2276.1 -22.925)
(1523.71 2130.16 14.9275)
(1665.02 2053.36 23.2436)
(1832.66 2046.73 11.7577)
(1971.19 1984.39 -22.9371)
(2013.61 1875.22 -29.6961)
(2039.14 1786.17 13.3764)
(2097.22 1716.69 47.2527)
(2170.55 1732.21 36.9132)
(2307.56 1679.94 20.702)
(-440.665 1542.31 -25.3958)
(-283.45 1591.37 -19.3954)
(-186.101 1613.6 -16.8022)
(-178.291 1764.67 5.30317)
(-152.229 2051.67 -35.3005)
(-40.5824 2279.37 -45.1795)
(153.203 2400.63 -40.3494)
(412.531 2485.02 -35.6128)
(728.874 2516.02 -42.2723)
(1015.69 2451.68 -17.5205)
(1260.97 2327.62 2.45816)
(1484.35 2216.41 5.34203)
(1646.4 2137.59 11.3942)
(1769.06 2091.44 -25.8758)
(1855.21 2008.57 -31.6868)
(1886.9 1895.36 -2.07508)
(1943.86 1838.73 12.2413)
(2025.27 1791.43 44.4271)
(2108.4 1821.23 42.7635)
(2242.25 1776.6 26.1666)
(-391.316 1585.81 -30.7117)
(-266.038 1627.5 -26.9672)
(-182.867 1631.95 -20.7329)
(-95.0585 1700.03 -20.1579)
(-86.1741 1915.6 -16.2205)
(27.1695 2196.51 -34.1026)
(186.843 2364.38 -42.7039)
(406.777 2464.92 -32.3547)
(683.273 2525.06 -35.6692)
(963.153 2497.4 -14.0922)
(1192.29 2385.76 11.4609)
(1437.74 2321.6 5.84511)
(1612.58 2233.1 16.8651)
(1719.92 2127.57 -8.78414)
(1771.07 2027.52 10.6448)
(1825.91 1944.11 13.3166)
(1907.67 1914.63 3.2876)
(1988.3 1883.43 48.0829)
(2053.42 1868.82 59.5656)
(2171.74 1822.52 35.8091)
(-358.745 1644.67 -31.4792)
(-253.719 1677.7 -31.2101)
(-183.383 1670.79 -25.0355)
(-84.9003 1704.03 -39.8824)
(-16.6852 1815.01 -13.3536)
(88.8053 2056.05 11.7643)
(226.878 2285.36 -18.6498)
(415.05 2427.68 -25.9176)
(652.334 2498.77 -26.3933)
(900.997 2523.79 -19.4888)
(1130.38 2450.01 -26.7187)
(1360.88 2383.84 -11.0836)
(1524.69 2272.08 18.7225)
(1629.79 2154.34 10.8622)
(1710.34 2081.12 49.066)
(1785.53 2018.61 42.612)
(1875.49 1986.48 43.84)
(1950.12 1952.14 88.1374)
(1989.45 1902.64 68.2637)
(2095.18 1861.54 38.4383)
(-325.668 1699.75 -34.6219)
(-235.026 1728.97 -33.9628)
(-171.245 1717.88 -23.8987)
(-87.6541 1729.52 -54.472)
(29.7664 1801.49 -40.9996)
(129.956 1948.5 -14.7555)
(303.091 2141.21 24.6856)
(454.737 2354.58 13.4785)
(663.985 2463.99 -1.74448)
(870.922 2513.45 -7.57335)
(1070.7 2499.67 -15.5598)
(1294.68 2453.99 -12.5322)
(1458.38 2330 -3.50119)
(1596.26 2218.07 5.3626)
(1725.4 2156.69 44.9826)
(1819.65 2100.63 41.6748)
(1875.9 2052.75 52.8608)
(1909.91 1993.28 63.0575)
(1928.2 1925.55 58.0885)
(2017.82 1901.02 55.2735)
(-295.083 1811.19 -44.3653)
(-215.306 1833.89 -42.7944)
(-153.55 1824.97 -27.3804)
(-77.7931 1818.51 -65.0305)
(44.2787 1844.57 -55.6952)
(138.707 1954.42 -43.8928)
(325.63 2038.08 -19.0377)
(465.983 2219.32 12.2372)
(672.037 2351.56 12.1365)
(857.9 2446.81 8.03689)
(1036.57 2466.22 11.299)
(1210.31 2454.96 12.6894)
(1366.11 2396.94 9.86251)
(1519.98 2338.75 14.2261)
(1667.2 2293.89 30.8169)
(1773.03 2234.96 31.7051)
(1828.82 2169.69 39.6597)
(1870.02 2099.08 40.2823)
(1908.71 2016.2 58.9245)
(2010.66 1998.09 65.2562)
(-800.767 -798.459 1.14835)
(-617.811 -840.159 13.8591)
(-519.523 -889.354 23.1174)
(-510.915 -1048.22 16.0114)
(-340.505 -1210.56 -3.33789)
(-94.6848 -1231.37 -9.68339)
(154.525 -1225.29 -15.3206)
(442.915 -1232.72 -10.5064)
(759.236 -1207.97 -17.761)
(1006.49 -1089.38 -7.77491)
(1192.34 -941.153 2.50505)
(1323.35 -803.894 -1.71243)
(1401.88 -684.003 -10.1621)
(1461.41 -593.233 -2.69458)
(1508.01 -513.08 0.208622)
(1557.65 -460.637 -2.43013)
(1600.06 -410.012 -9.40118)
(1657.39 -377.383 -11.7279)
(1711.69 -344.544 -16.3216)
(1822.07 -314.549 -26.1141)
(-838.13 -613.082 12.4073)
(-671.687 -667.349 29.9529)
(-597.215 -740.091 50.083)
(-735.242 -952.574 17.9263)
(-445.551 -1227.02 -5.34192)
(-126.626 -1221.56 -9.8755)
(143.913 -1202.47 -13.1892)
(499.214 -1219.71 -11.0751)
(926.444 -1143.83 -4.80377)
(1244.54 -934.846 2.80084)
(1429.95 -714.025 11.525)
(1522 -565.676 9.79404)
(1581.27 -455.449 -5.22746)
(1575.58 -365.481 4.18175)
(1583.44 -312.794 8.51976)
(1612.26 -289.522 4.96109)
(1645.88 -271.759 -3.83417)
(1693.15 -261.173 -8.86146)
(1743.1 -245.787 -13.5517)
(1845.42 -229.297 -23.301)
(-876.255 -516.875 19.1805)
(-735.939 -590.621 35.6557)
(-861.033 -850.058 52.0502)
(-897.579 -1036.52 4.60363)
(-496.61 -1214.02 -1.61343)
(-126.591 -1197.82 -8.82816)
(160.961 -1184.91 -9.13101)
(541.529 -1198.28 -11.1768)
(1044.17 -1031.15 8.57544)
(1342.86 -710.202 16.185)
(1495.69 -517.885 6.23091)
(1563.77 -412.991 4.2326)
(1635.1 -341.476 -6.60279)
(1672.37 -263.405 2.97741)
(1644.35 -215.662 8.99514)
(1638.55 -179.183 0.926158)
(1653.29 -177.313 -2.98938)
(1689.07 -180.179 -5.26169)
(1733.36 -173.053 -2.91723)
(1833.86 -161.469 -7.61847)
(-1034.3 -497.544 15.8202)
(-936.773 -726.045 9.59745)
(-1024.39 -905.253 -14.4508)
(-1035.81 -1049.33 -4.66368)
(-666.776 -1165.38 -8.2751)
(-240.843 -1187.21 -10.9032)
(77.4434 -1171.11 -16.0467)
(414.913 -1164.6 -8.29558)
(1039.19 -1067.43 4.02563)
(1812.09 -655.889 -3.1909)
(1964.36 -588.746 5.00475)
(1984.78 -498.446 14.1503)
(1977.49 -412.041 1.25887)
(1964.25 -317.009 -12.0683)
(1918.91 -219.84 -3.55641)
(1829.16 -159.283 9.11872)
(1751.8 -83.2604 -10.256)
(1744.63 -62.253 -28.6338)
(1759.6 -70.9412 -36.3693)
(1834.66 -73.479 -46.1388)
(-1201.56 -340.37 -10.5616)
(-1224.54 -453.221 -20.8014)
(-1219.63 -507.14 -21.0917)
(-1169.79 -711.846 -16.694)
(1904.11 -630.281 -21.7314)
(2348.61 -471.147 -36.7016)
(2351.45 -436.302 -36.9838)
(2339.56 -401.192 -28.8155)
(2314.8 -364.047 -29.5044)
(2273.81 -324.096 -29.615)
(2231.68 -254.489 -28.8041)
(2153.25 -158.38 -33.8055)
(2024.75 -87.7883 -25.3682)
(1906.23 -19.9811 -14.2797)
(1870.05 42.8433 -38.122)
(1893.6 54.6696 -47.0308)
(-1228.12 -95.9848 -12.3646)
(-1222.46 -128.583 -15.4339)
(-1196.87 -128.638 -17.656)
(-1180.18 -242.31 -14.253)
(2373.52 -260.267 -40.3488)
(2435.84 -152.539 -30.6869)
(2443 -150.19 -30.0437)
(2446.9 -143.216 -28.9914)
(2449.85 -132.585 -29.6412)
(2444.93 -118.085 -30.304)
(2431.54 -95.2118 -23.9132)
(2402.4 -57.9813 -28.4319)
(2333.35 14.1527 -38.076)
(2206.07 98.7128 8.56783)
(2062.03 145.464 3.99488)
(2041.45 146.738 -39.7214)
(-1223.98 150.642 -21.247)
(-1202.73 139.083 -19.851)
(-1184.45 157.022 -13.491)
(-1170.3 78.2669 -20.2809)
(2430.03 22.1088 -39.2417)
(2513.62 123.684 -30.5327)
(2521.63 116.251 -29.2167)
(2530.53 109.298 -27.9391)
(2539.02 111.461 -29.6391)
(2543.56 118.517 -33.9741)
(2540.56 128.547 -36.5348)
(2530.06 143.193 -30.939)
(2507.49 173.458 -34.744)
(2445.19 216.739 -32.9335)
(2325.78 291.401 21.8336)
(2181.28 335.713 -8.07276)
(-1230.39 439.079 -15.3277)
(-1219.37 493.549 -16.5279)
(-1195.46 534.787 -17.0325)
(-1161.4 414.057 -14.8405)
(2495.87 357.062 -33.5668)
(2573.49 559.223 -25.2228)
(2590.21 533.429 -21.2693)
(2601.82 509.02 -27.0901)
(2619.33 485.192 -27.8676)
(2619.88 459.69 -17.8842)
(2624.56 439.317 -21.135)
(2625.24 416.492 -25.7469)
(2611.34 406.555 -24.7529)
(2582.2 411.703 -26.8891)
(2534.19 448.611 3.66565)
(2393.31 476.433 13.8549)
(-1208.09 755.382 -26.9958)
(-1149.04 919.66 -18.69)
(-1038.68 1033.83 -10.3448)
(-1068.42 1026.34 -25.0927)
(-647.388 1918.32 -47.4839)
(-262.65 2365.21 -40.8932)
(26.6528 2418.57 -38.8782)
(365.527 2493.77 -33.8015)
(1982.31 1895.8 -24.8104)
(2436.6 1262.25 -32.3207)
(2501.61 1091.1 -67.6784)
(2532.15 999.04 -13.6762)
(2553.17 910.263 22.5831)
(2594.14 857.336 2.83338)
(2622 800.663 -25.0147)
(2634.2 749.321 -36.3363)
(2655.97 705.248 -32.5867)
(2641.28 666.006 -25.6987)
(2618.46 666.713 -8.12273)
(2521.53 682.153 8.91764)
(-1092.54 1007.67 -22.5462)
(-946.126 1242.45 -19.2423)
(-725.302 1333.28 -9.65602)
(-669.717 1789.08 -24.8462)
(-478.072 2323.23 -34.6265)
(-146.867 2412.04 -28.2872)
(133.387 2486.41 -26.6682)
(571.377 2546.1 -20.6247)
(1255.17 2456.75 -35.4341)
(1831.25 1855.24 -90.1796)
(2214.09 1555.47 40.5281)
(2337.79 1402.25 43.4861)
(2390.44 1271.15 -16.4091)
(2454.27 1179.51 -42.5427)
(2521.68 1114.72 -39.1276)
(2557.11 1039.89 -6.85107)
(2604.65 986.928 -3.49614)
(2640.86 935.872 -31.1479)
(2648.49 886.251 -24.6741)
(2600.62 873.82 -5.6021)
(-944.805 1195.29 -16.1995)
(-732.793 1433.9 -16.0785)
(-544.185 1500.88 -15.2808)
(-617.974 1953.64 -17.4187)
(-446.73 2330.23 -29.5081)
(-142.239 2416.97 -29.0058)
(123.842 2493.32 -23.0934)
(544.534 2563.39 -21.9854)
(1078.31 2465.71 -57.1527)
(1547.48 2240.73 37.3928)
(1897.89 1920.53 87.9553)
(2198.24 1696.67 -71.8417)
(2299.85 1569.92 -113.827)
(2326.98 1479.8 -31.569)
(2390.31 1387.03 30.7098)
(2434.04 1303.69 17.3071)
(2491.55 1229.9 4.55439)
(2543.3 1163.27 -48.1149)
(2612.56 1100.35 -46.4444)
(2597.58 1056.01 -4.24949)
(-806.7 1326.52 -18.3712)
(-583.591 1528.84 -9.41892)
(-442.342 1567.9 -12.6985)
(-540.41 1981.87 -7.77114)
(-408.356 2322.4 -22.1605)
(-136.275 2419.32 -28.5118)
(115.841 2501.88 -23.8571)
(516.235 2572.37 -28.4966)
(989.738 2506.07 -9.77309)
(1375.89 2301.5 34.4021)
(1666.3 2194.26 -72.5842)
(1999.47 2029.2 -187.78)
(2208.19 1870.36 -57.3574)
(2222.92 1698.16 91.0307)
(2252.95 1602.73 61.0713)
(2315.97 1527.55 -21.8724)
(2410.42 1473.62 -41.0752)
(2471.27 1395.21 -29.2063)
(2555.75 1335.32 -23.9577)
(2578.2 1240.53 -0.797158)
(-684.796 1400.95 -23.7227)
(-468.006 1580.06 -21.5755)
(-370.19 1641.42 -17.4967)
(-460.496 1977.42 -8.41586)
(-367.283 2301.57 -24.9346)
(-126.403 2422.28 -29.5077)
(115.972 2512.04 -27.0091)
(488.861 2587.36 -28.8721)
(912.602 2541.33 13.0338)
(1259.42 2372.09 -27.0276)
(1538.77 2257.55 -113.662)
(1819.63 2183.2 -54.4293)
(2029.47 2034.6 82.4942)
(2119.94 1859.51 60.5292)
(2169.95 1746.02 -5.67127)
(2226.84 1678.03 -20.5669)
(2318.48 1650.64 -0.15974)
(2376.41 1571.6 39.8821)
(2435.38 1511.64 8.01151)
(2508.8 1402.87 -3.57111)
(-592.282 1457.81 -14.9144)
(-371.134 1566.83 -10.2176)
(-285.96 1681.42 -7.55124)
(-368.879 1966.02 -11.1503)
(-330.127 2261.5 -24.5857)
(-114.892 2417.59 -29.7586)
(122.933 2517.58 -31.3429)
(462.33 2584.05 -21.2229)
(859.558 2589.63 -10.0324)
(1174.01 2446.14 -50.0393)
(1456.25 2296.58 -32.5618)
(1649.35 2166.11 75.4755)
(1832.86 2089.71 55.7439)
(1985.26 1987.82 -35.2994)
(2124.65 1915.28 -27.4283)
(2181.42 1834.6 -24.7702)
(2229.15 1780.63 22.0298)
(2262.1 1683.46 43.477)
(2308 1638.34 -4.72101)
(2423.41 1554.05 -17.4541)
(-511.583 1503.59 -10.8213)
(-316.956 1573.23 -2.5991)
(-237.093 1648.69 3.67371)
(-265.226 1923.83 -1.08795)
(-264.17 2223.3 -23.8785)
(-95.2215 2406.59 -24.6289)
(131.84 2515.24 -32.185)
(441.779 2588.31 -26.3408)
(797.379 2610.46 -35.8951)
(1109.09 2517.84 -44.368)
(1366.08 2362.47 23.8864)
(1569.31 2212.37 52.8033)
(1708.97 2117.98 -1.27346)
(1884.06 2100.72 -31.1997)
(2043.74 2048 0.675052)
(2089.71 1937.71 16.7708)
(2128.11 1846.15 51.3251)
(2172.36 1755.34 62.704)
(2226.47 1747.44 26.2274)
(2361.72 1691.82 7.07685)
(-460.107 1552.96 -11.4174)
(-295.251 1603.92 -2.55813)
(-195.183 1635.77 1.68627)
(-197.658 1829.97 15.0315)
(-170.029 2148.18 -28.3096)
(-62.2375 2381.4 -29.2393)
(144.631 2504.72 -25.8276)
(417.251 2591.18 -30.0408)
(742.271 2616.39 -41.7226)
(1029.51 2544.77 -10.0592)
(1283.49 2415.1 19.0339)
(1509.63 2292.9 -9.647)
(1660.39 2187.28 -12.4427)
(1799.42 2139.63 -27.2629)
(1925.05 2070.42 11.1241)
(1959.08 1948.5 43.0647)
(2018.51 1890.5 34.5104)
(2083.6 1822.41 37.0824)
(2154.9 1839.53 29.8959)
(2297.73 1794.49 27.6949)
(-411.077 1595.59 -15.5428)
(-278.566 1638.7 -7.9871)
(-190.569 1648.39 -0.523472)
(-112.037 1747.68 -0.246702)
(-103.139 2017.03 -15.2495)
(4.09952 2315.1 -32.2308)
(172.528 2480.78 -28.9921)
(404.512 2577.8 -27.3442)
(693.998 2633.71 -34.8449)
(972.091 2590.19 -0.302711)
(1211.91 2478.02 17.9506)